
                                 *****************
                                 * O   R   C   A *
                                 *****************

           --- An Ab Initio, DFT and Semiempirical electronic structure package ---

                  #######################################################
                  #                        -***-                        #
                  #          Department of theory and spectroscopy      #
                  #               Directorship: Frank Neese             #
                  #        Max Planck Institute fuer Kohlenforschung    #
                  #                Kaiser Wilhelm Platz 1               #
                  #                 D-45470 Muelheim/Ruhr               #
                  #                      Germany                        #
                  #                                                     #
                  #                  All rights reserved                #
                  #                        -***-                        #
                  #######################################################


                         Program Version 4.2.0 -  RELEASE  -


 With contributions from (in alphabetic order):
   Daniel Aravena         : Magnetic Suceptibility
   Michael Atanasov       : Ab Initio Ligand Field Theory (pilot matlab implementation)
   Alexander A. Auer      : GIAO ZORA, VPT2
   Ute Becker             : Parallelization
   Giovanni Bistoni       : ED, misc. LED, open-shell LED, HFLED
   Martin Brehm           : Molecular dynamics
   Dmytro Bykov           : SCF Hessian
   Vijay G. Chilkuri      : MRCI spin determinant printing, contributions to CSF-ICE
   Dipayan Datta          : RHF DLPNO-CCSD density
   Achintya Kumar Dutta   : EOM-CC, STEOM-CC
   Dmitry Ganyushin       : Spin-Orbit,Spin-Spin,Magnetic field MRCI
   Miquel Garcia          : C-PCM Hessian, Gaussian charge scheme
   Yang Guo               : DLPNO-NEVPT2, CIM, IAO-localization
   Andreas Hansen         : Spin unrestricted coupled pair/coupled cluster methods
   Benjamin Helmich-Paris : CASSCF linear response (MC-RPA)
   Lee Huntington         : MR-EOM, pCC
   Robert Izsak           : Overlap fitted RIJCOSX, COSX-SCS-MP3, EOM
   Christian Kollmar      : KDIIS, OOCD, Brueckner-CCSD(T), CCSD density
   Simone Kossmann        : Meta GGA functionals, TD-DFT gradient, OOMP2, MP2 Hessian
   Martin Krupicka        : AUTO-CI
   Lucas Lang             : DCDCAS
   Dagmar Lenk            : GEPOL surface, SMD
   Dimitrios Liakos       : Extrapolation schemes; Compound Job, initial MDCI parallelization
   Dimitrios Manganas     : Further ROCIS development; embedding schemes
   Dimitrios Pantazis     : SARC Basis sets
   Taras Petrenko         : DFT Hessian,TD-DFT gradient, ASA, ECA, R-Raman, ABS, FL, XAS/XES, NRVS
   Peter Pinski           : DLPNO-MP2, DLPNO-MP2 Gradient
   Christoph Reimann      : Effective Core Potentials
   Marius Retegan         : Local ZFS, SOC
   Christoph Riplinger    : Optimizer, TS searches, QM/MM, DLPNO-CCSD(T), (RO)-DLPNO pert. Triples
   Tobias Risthaus        : Range-separated hybrids, TD-DFT gradient, RPA, STAB
   Michael Roemelt        : Original ROCIS implementation
   Masaaki Saitow         : Open-shell DLPNO-CCSD energy and density
   Barbara Sandhoefer     : DKH picture change effects
   Avijit Sen             : IP-ROCIS
   Kantharuban Sivalingam : CASSCF convergence, NEVPT2, FIC-MRCI
   Bernardo de Souza      : ESD, SOC TD-DFT
   Georgi Stoychev        : AutoAux, RI-MP2 NMR
   Willem Van den Heuvel  : Paramagnetic NMR
   Boris Wezisla          : Elementary symmetry handling
   Frank Wennmohs         : Technical directorship


 We gratefully acknowledge several colleagues who have allowed us to
 interface, adapt or use parts of their codes:
   Stefan Grimme, W. Hujo, H. Kruse,             : VdW corrections, initial TS optimization,
                  C. Bannwarth                     DFT functionals, gCP, sTDA/sTD-DF
   Ed Valeev, F. Pavosevic, A. Kumar             : LibInt (2-el integral package), F12 methods
   Garnet Chan, S. Sharma, J. Yang, R. Olivares  : DMRG
   Ulf Ekstrom                                   : XCFun DFT Library
   Mihaly Kallay                                 : mrcc  (arbitrary order and MRCC methods)
   Andreas Klamt, Michael Diedenhofen            : otool_cosmo (COSMO solvation model)
   Jiri Pittner, Ondrej Demel                    : Mk-CCSD
   Frank Weinhold                                : gennbo (NPA and NBO analysis)
   Christopher J. Cramer and Donald G. Truhlar   : smd solvation model
   Lars Goerigk                                  : TD-DFT with DH, B97 family of functionals
   V. Asgeirsson, H. Jonsson                     : NEB implementation
   FAccTs GmbH                                   : IRC, NEB, NEB-TS, Multilevel, MM, QM/MM, CI optimization
   S Lehtola, MJT Oliveira, MAL Marques          : LibXC Library


 Your calculation uses the libint2 library for the computation of 2-el integrals
 For citations please refer to: http://libint.valeyev.net

 Your ORCA version has been built with support for libXC version: 4.2.3
 For citations please refer to: https://tddft.org/programs/libxc/

 This ORCA versions uses:
   CBLAS   interface :  Fast vector & matrix operations
   LAPACKE interface :  Fast linear algebra routines
   SCALAPACK package :  Parallel linear algebra routines


XCFun DFT library Copyright 2009-2010 Ulf Ekstrom and contributors.
See http://admol.org/xcfun for more information. This is free soft-
ware; see the source code for copying conditions. There is ABSOLUTELY
NO WARRANTY; not even for MERCHANTABILITY or FITNESS FOR A PARTICULAR
PURPOSE. For details see the documentation. Scientific users of this 
library should cite U. Ekstrom, L. Visscher, R. Bast, A. J. Thorvald-
sen and K. Ruud; J.Chem.Theor.Comp. 2010, DOI: 10.1021/ct100117s
XCFun Version 0.99 
----- Orbital basis set information -----
Your calculation utilizes the basis: def2-SVP
   F. Weigend and R. Ahlrichs, Phys. Chem. Chem. Phys. 7, 3297 (2005).

----- AuxJ basis set information -----
Your calculation utilizes the auxiliary basis: def2/J
   F. Weigend, Phys. Chem. Chem. Phys. 8, 1057 (2006).

================================================================================
                                        WARNINGS
                       Please study these warnings very carefully!
================================================================================

INFO   : Checking CIS options ...

WARNING: CIS/ROCIS methods need fully converged wavefunctions
  ===> : Setting SCFConvForced true
         You can overwrite this default with %scf ConvForced false 


INFO   : the flag for use of LIBINT has been found!

================================================================================
                                       INPUT FILE
================================================================================
NAME = xtbopt.inp
|  1> # ORCA input file
|  2> # SCF done       -193.643344539756          0.000423263536
|  3> ! CAM-B3LYP def2-SVP def2/J RIJCOSX Grid4 TightSCF
|  4> %maxcore 5000
|  5> %tddft
|  6>     Mode sTDDFT
|  7>     Ethresh 5.0
|  8>     maxcore 5000
|  9> end
| 10> 
| 11> %pal
| 12>   nprocs 6
| 13>   end
| 14> * xyz 0 1
| 15>    C      -18.38511         8.84697         1.47436
| 16>    C      -17.31848         8.09097         1.09209
| 17>    C      -16.11705         8.81957         1.18032
| 18>    C      -16.31868        10.12599         1.63734
| 19>    S      -17.96346        10.45674         1.95282
| 20>    C      -15.05638        10.78283         1.70363
| 21>    C      -14.06413         9.88779         1.28240
| 22>    C      -14.69567         8.61493         0.95625
| 23>    C      -14.07880         7.46354         0.56706
| 24>    C      -12.67585         7.35089         0.45212
| 25>    N      -11.53849         7.23084         0.37958
| 26>    C      -14.80383         6.28576         0.28562
| 27>    N      -15.39029         5.32749         0.05678
| 28>    C      -12.78171        10.44202         1.30282
| 29>    C      -12.79656        11.74860         1.75003
| 30>    S      -14.41973        12.29997         2.14426
| 31>    C      -11.69341        12.62482         1.96020
| 32>    C      -10.41250        12.53574         1.43422
| 33>    C      -10.07109        11.60348         0.44096
| 34>    N       -9.83493        10.86876        -0.40690
| 35>    C       -9.54835        13.55006         1.93721
| 36>    C      -10.22142        14.39515         2.81178
| 37>    S      -11.87418        13.98365         3.04787
| 38>    S       -9.26484        15.65939         3.51053
| 39>    C       -7.91142        15.03497         2.62615
| 40>    C       -8.17712        13.93041         1.82717
| 41>    C       -6.99650        13.46908         1.17502
| 42>    C       -6.92985        12.32032         0.36935
| 43>    N       -6.85560        11.36399        -0.25899
| 44>    C       -5.87792        14.21546         1.51147
| 45>    S       -6.26202        15.51921         2.62032
| 46>    C       -4.50902        14.03178         1.12578
| 47>    C       -3.48935        14.39257         1.96911
| 48>    C       -2.13400        14.20333         1.70680
| 49>    C       -1.68009        13.62870         0.43608
| 50>    C       -2.51625        13.23248        -0.54948
| 51>    S       -4.22657        13.32604        -0.45919
| 52>    C       -0.26524        13.56355         0.54438
| 53>    C        0.14178        14.02441         1.80142
| 54>    C        1.54643        13.97529         1.94774
| 55>    C        2.14949        13.48539         0.83308
| 56>    S        1.05282        13.06606        -0.43782
| 57>    C       -1.02541        14.42530         2.54281
| 58>    C       -1.11747        14.88812         3.87639
| 59>    C       -0.15557        14.81736         4.82879
| 60>    C       -0.37818        15.19821         6.17566
| 61>    C        0.46412        14.95333         7.25565
| 62>    C        1.72740        14.38024         7.04934
| 63>    N        2.75702        13.94086         6.79719
| 64>    C       -0.09595        15.36860         8.49519
| 65>    C       -1.33690        15.96533         8.30507
| 66>    S       -1.86086        15.99637         6.66624
| 67>    S       -2.12600        16.52024         9.74480
| 68>    C       -0.77405        15.90842        10.64283
| 69>    C        0.22821        15.32162         9.88402
| 70>    C        1.25803        14.78897        10.71626
| 71>    C        2.34714        14.05475        10.21804
| 72>    N        3.21548        13.43094         9.80286
| 73>    C        1.01052        14.98203        12.06303
| 74>    S       -0.49243        15.83633        12.33643
| 75>    C        1.78162        14.55247        13.20861
| 76>    C        1.12523        14.34892        14.43119
| 77>    C        1.83911        13.91027        15.51729
| 78>    C        3.22019        13.67452        15.41592
| 79>    C        3.88066        13.89501        14.21758
| 80>    C        3.16054        14.33340        13.12249
| 81>    C        3.70131        13.21007        16.70430
| 82>    C        2.61589        13.16210        17.59295
| 83>    C        1.34316        13.60458        16.91010
| 84>    C        0.74799        14.85696        17.58036
| 85>    C        1.72861        16.02221        17.63186
| 86>    C        0.29121        12.47956        16.89563
| 87>    C        0.79879        11.20216        16.23765
| 88>    C        2.79922        12.74759        18.89452
| 89>    C        4.07349        12.37936        19.30612
| 90>    C        5.14568        12.42620        18.42805
| 91>    C        4.97113        12.84209        17.11822
| 92>    H      -19.41636         8.55754         1.50737
| 93>    H      -17.39688         7.07024         0.76575
| 94>    H      -11.88238         9.92482         1.02374
| 95>    H       -3.77457        14.81623         2.92343
| 96>    H       -2.16337        12.80192        -1.47334
| 97>    H        2.09636        14.28677         2.81655
| 98>    H        3.19903        13.33849         0.66872
| 99>    H       -2.08318        15.28030         4.17471
|100>    H        0.81136        14.38687         4.61588
|101>    H        0.05999        14.52044        14.49981
|102>    H        4.94367        13.72990        14.13260
|103>    H        3.67096        14.51978        12.19122
|104>    H        0.44076        14.59674        18.59545
|105>    H       -0.14487        15.15845        17.02813
|106>    H        2.61943        15.74948        18.19327
|107>    H        1.26572        16.87977        18.11474
|108>    H        2.03217        16.31403        16.62885
|109>    H       -0.59399        12.83499        16.36348
|110>    H       -0.00281        12.26443        17.92512
|111>    H        1.07685        11.38579        15.20212
|112>    H        0.02411        10.43897        16.25573
|113>    H        1.67112        10.82016        16.76316
|114>    H        1.97126        12.70612        19.58735
|115>    H        4.23113        12.05134        20.32316
|116>    H        6.12749        12.13400        18.77065
|117>    H        5.80663        12.87694        16.43529
|118> *
|119> 
|120>                          ****END OF INPUT****
================================================================================

                       ****************************
                       * Single Point Calculation *
                       ****************************

---------------------------------
CARTESIAN COORDINATES (ANGSTROEM)
---------------------------------
  C    -18.385110    8.846970    1.474360
  C    -17.318480    8.090970    1.092090
  C    -16.117050    8.819570    1.180320
  C    -16.318680   10.125990    1.637340
  S    -17.963460   10.456740    1.952820
  C    -15.056380   10.782830    1.703630
  C    -14.064130    9.887790    1.282400
  C    -14.695670    8.614930    0.956250
  C    -14.078800    7.463540    0.567060
  C    -12.675850    7.350890    0.452120
  N    -11.538490    7.230840    0.379580
  C    -14.803830    6.285760    0.285620
  N    -15.390290    5.327490    0.056780
  C    -12.781710   10.442020    1.302820
  C    -12.796560   11.748600    1.750030
  S    -14.419730   12.299970    2.144260
  C    -11.693410   12.624820    1.960200
  C    -10.412500   12.535740    1.434220
  C    -10.071090   11.603480    0.440960
  N     -9.834930   10.868760   -0.406900
  C     -9.548350   13.550060    1.937210
  C    -10.221420   14.395150    2.811780
  S    -11.874180   13.983650    3.047870
  S     -9.264840   15.659390    3.510530
  C     -7.911420   15.034970    2.626150
  C     -8.177120   13.930410    1.827170
  C     -6.996500   13.469080    1.175020
  C     -6.929850   12.320320    0.369350
  N     -6.855600   11.363990   -0.258990
  C     -5.877920   14.215460    1.511470
  S     -6.262020   15.519210    2.620320
  C     -4.509020   14.031780    1.125780
  C     -3.489350   14.392570    1.969110
  C     -2.134000   14.203330    1.706800
  C     -1.680090   13.628700    0.436080
  C     -2.516250   13.232480   -0.549480
  S     -4.226570   13.326040   -0.459190
  C     -0.265240   13.563550    0.544380
  C      0.141780   14.024410    1.801420
  C      1.546430   13.975290    1.947740
  C      2.149490   13.485390    0.833080
  S      1.052820   13.066060   -0.437820
  C     -1.025410   14.425300    2.542810
  C     -1.117470   14.888120    3.876390
  C     -0.155570   14.817360    4.828790
  C     -0.378180   15.198210    6.175660
  C      0.464120   14.953330    7.255650
  C      1.727400   14.380240    7.049340
  N      2.757020   13.940860    6.797190
  C     -0.095950   15.368600    8.495190
  C     -1.336900   15.965330    8.305070
  S     -1.860860   15.996370    6.666240
  S     -2.126000   16.520240    9.744800
  C     -0.774050   15.908420   10.642830
  C      0.228210   15.321620    9.884020
  C      1.258030   14.788970   10.716260
  C      2.347140   14.054750   10.218040
  N      3.215480   13.430940    9.802860
  C      1.010520   14.982030   12.063030
  S     -0.492430   15.836330   12.336430
  C      1.781620   14.552470   13.208610
  C      1.125230   14.348920   14.431190
  C      1.839110   13.910270   15.517290
  C      3.220190   13.674520   15.415920
  C      3.880660   13.895010   14.217580
  C      3.160540   14.333400   13.122490
  C      3.701310   13.210070   16.704300
  C      2.615890   13.162100   17.592950
  C      1.343160   13.604580   16.910100
  C      0.747990   14.856960   17.580360
  C      1.728610   16.022210   17.631860
  C      0.291210   12.479560   16.895630
  C      0.798790   11.202160   16.237650
  C      2.799220   12.747590   18.894520
  C      4.073490   12.379360   19.306120
  C      5.145680   12.426200   18.428050
  C      4.971130   12.842090   17.118220
  H    -19.416360    8.557540    1.507370
  H    -17.396880    7.070240    0.765750
  H    -11.882380    9.924820    1.023740
  H     -3.774570   14.816230    2.923430
  H     -2.163370   12.801920   -1.473340
  H      2.096360   14.286770    2.816550
  H      3.199030   13.338490    0.668720
  H     -2.083180   15.280300    4.174710
  H      0.811360   14.386870    4.615880
  H      0.059990   14.520440   14.499810
  H      4.943670   13.729900   14.132600
  H      3.670960   14.519780   12.191220
  H      0.440760   14.596740   18.595450
  H     -0.144870   15.158450   17.028130
  H      2.619430   15.749480   18.193270
  H      1.265720   16.879770   18.114740
  H      2.032170   16.314030   16.628850
  H     -0.593990   12.834990   16.363480
  H     -0.002810   12.264430   17.925120
  H      1.076850   11.385790   15.202120
  H      0.024110   10.438970   16.255730
  H      1.671120   10.820160   16.763160
  H      1.971260   12.706120   19.587350
  H      4.231130   12.051340   20.323160
  H      6.127490   12.134000   18.770650
  H      5.806630   12.876940   16.435290

----------------------------
CARTESIAN COORDINATES (A.U.)
----------------------------
  NO LB      ZA    FRAG     MASS         X           Y           Z
   0 C     6.0000    0    12.011  -34.742823   16.718350    2.786137
   1 C     6.0000    0    12.011  -32.727184   15.289717    2.063751
   2 C     6.0000    0    12.011  -30.456811   16.666572    2.230482
   3 C     6.0000    0    12.011  -30.837836   19.135348    3.094124
   4 S    16.0000    0    32.060  -33.946020   19.760375    3.690295
   5 C     6.0000    0    12.011  -28.452435   20.376596    3.219394
   6 C     6.0000    0    12.011  -26.577354   18.685215    2.423385
   7 C     6.0000    0    12.011  -27.770792   16.279858    1.807051
   8 C     6.0000    0    12.011  -26.605076   14.104047    1.071588
   9 C     6.0000    0    12.011  -23.953885   13.891169    0.854383
  10 N     7.0000    0    14.007  -21.804586   13.664307    0.717302
  11 C     6.0000    0    12.011  -27.975184   11.878365    0.539744
  12 N     7.0000    0    14.007  -29.083433   10.067497    0.107299
  13 C     6.0000    0    12.011  -24.153931   19.732558    2.461973
  14 C     6.0000    0    12.011  -24.181994   22.201636    3.307077
  15 S    16.0000    0    32.060  -27.249341   23.243575    4.052064
  16 C     6.0000    0    12.011  -22.097342   23.857452    3.704241
  17 C     6.0000    0    12.011  -19.676773   23.689115    2.710283
  18 C     6.0000    0    12.011  -19.031602   21.927399    0.833294
  19 N     7.0000    0    14.007  -18.585324   20.538980   -0.768930
  20 C     6.0000    0    12.011  -18.043767   25.605902    3.660796
  21 C     6.0000    0    12.011  -19.315684   27.202891    5.313494
  22 S    16.0000    0    32.060  -22.438948   26.425269    5.759640
  23 S    16.0000    0    32.060  -17.508010   29.591959    6.633940
  24 C     6.0000    0    12.011  -14.950417   28.411976    4.962704
  25 C     6.0000    0    12.011  -15.452517   26.324660    3.452851
  26 C     6.0000    0    12.011  -13.221469   25.452872    2.220466
  27 C     6.0000    0    12.011  -13.095519   23.282031    0.697970
  28 N     7.0000    0    14.007  -12.955206   21.474829   -0.489420
  29 C     6.0000    0    12.011  -11.107659   26.863326    2.856264
  30 S    16.0000    0    32.060  -11.833503   29.327057    4.951687
  31 C     6.0000    0    12.011   -8.520813   26.516221    2.127416
  32 C     6.0000    0    12.011   -6.593916   27.198016    3.721079
  33 C     6.0000    0    12.011   -4.032676   26.840404    3.225385
  34 C     6.0000    0    12.011   -3.174910   25.754511    0.824072
  35 C     6.0000    0    12.011   -4.755023   25.005763   -1.038367
  36 S    16.0000    0    32.060   -7.987060   25.182566   -0.867743
  37 C     6.0000    0    12.011   -0.501231   25.631395    1.028729
  38 C     6.0000    0    12.011    0.267925   26.502294    3.404190
  39 C     6.0000    0    12.011    2.922329   26.409471    3.680695
  40 C     6.0000    0    12.011    4.061947   25.483694    1.574293
  41 S    16.0000    0    32.060    1.989541   24.691275   -0.827360
  42 C     6.0000    0    12.011   -1.937744   27.259866    4.805215
  43 C     6.0000    0    12.011   -2.111712   28.134469    7.325315
  44 C     6.0000    0    12.011   -0.293985   28.000752    9.125091
  45 C     6.0000    0    12.011   -0.714657   28.720455   11.670306
  46 C     6.0000    0    12.011    0.877060   28.257698   13.711191
  47 C     6.0000    0    12.011    3.264313   27.174715   13.321322
  48 N     7.0000    0    14.007    5.210013   26.344407   12.844828
  49 C     6.0000    0    12.011   -0.181319   29.042445   16.053583
  50 C     6.0000    0    12.011   -2.526375   30.170101   15.694308
  51 S    16.0000    0    32.060   -3.516516   30.228758   12.597368
  52 S    16.0000    0    32.060   -4.017558   31.218729   18.415003
  53 C     6.0000    0    12.011   -1.462743   30.062557   20.112034
  54 C     6.0000    0    12.011    0.431254   28.953666   18.678091
  55 C     6.0000    0    12.011    2.377332   27.947103   20.250797
  56 C     6.0000    0    12.011    4.435452   26.559628   19.309297
  57 N     7.0000    0    14.007    6.076377   25.380798   18.524721
  58 C     6.0000    0    12.011    1.909606   28.311934   22.795823
  59 S    16.0000    0    32.060   -0.930558   29.926327   23.312474
  60 C     6.0000    0    12.011    3.366774   27.500183   24.960656
  61 C     6.0000    0    12.011    2.126377   27.115529   27.270997
  62 C     6.0000    0    12.011    3.475414   26.286601   29.323428
  63 C     6.0000    0    12.011    6.085277   25.841098   29.131867
  64 C     6.0000    0    12.011    7.333385   26.257764   26.867332
  65 C     6.0000    0    12.011    5.972555   27.086201   24.797912
  66 C     6.0000    0    12.011    6.994462   24.963415   31.566552
  67 C     6.0000    0    12.011    4.943316   24.872764   33.245857
  68 C     6.0000    0    12.011    2.538205   25.708930   31.955458
  69 C     6.0000    0    12.011    1.413496   28.075586   33.222066
  70 C     6.0000    0    12.011    3.266599   30.277589   33.319387
  71 C     6.0000    0    12.011    0.550307   23.582951   31.928114
  72 C     6.0000    0    12.011    1.509494   21.169015   30.684712
  73 C     6.0000    0    12.011    5.289759   24.089454   35.705468
  74 C     6.0000    0    12.011    7.697781   23.393600   36.483280
  75 C     6.0000    0    12.011    9.723926   23.482115   34.823968
  76 C     6.0000    0    12.011    9.394074   24.268033   32.348748
  77 H     1.0000    0     1.008  -36.691603   16.171407    2.848516
  78 H     1.0000    0     1.008  -32.875339   13.360817    1.447058
  79 H     1.0000    0     1.008  -22.454444   18.755192    1.934588
  80 H     1.0000    0     1.008   -7.132904   27.998617    5.524482
  81 H     1.0000    0     1.008   -4.088177   24.192123   -2.784209
  82 H     1.0000    0     1.008    3.961546   26.998083    5.322508
  83 H     1.0000    0     1.008    6.045291   25.206093    1.263698
  84 H     1.0000    0     1.008   -3.936640   28.875582    7.889059
  85 H     1.0000    0     1.008    1.533248   27.187244    8.722749
  86 H     1.0000    0     1.008    0.113365   27.439655   27.400670
  87 H     1.0000    0     1.008    9.342182   25.945751   26.706744
  88 H     1.0000    0     1.008    6.937109   27.438408   23.038067
  89 H     1.0000    0     1.008    0.832916   27.583841   35.140308
  90 H     1.0000    0     1.008   -0.273765   28.645319   32.178502
  91 H     1.0000    0     1.008    4.950005   29.762204   34.380298
  92 H     1.0000    0     1.008    2.391864   31.898143   34.231898
  93 H     1.0000    0     1.008    3.840245   30.829049   31.423972
  94 H     1.0000    0     1.008   -1.122478   24.254616   30.922496
  95 H     1.0000    0     1.008   -0.005310   23.176414   33.873568
  96 H     1.0000    0     1.008    2.034952   21.516025   28.727843
  97 H     1.0000    0     1.008    0.045561   19.726794   30.718878
  98 H     1.0000    0     1.008    3.157959   20.447139   31.677782
  99 H     1.0000    0     1.008    3.725142   24.011087   37.014727
 100 H     1.0000    0     1.008    7.995677   22.773732   38.405207
 101 H     1.0000    0     1.008   11.579278   22.929937   35.471388
 102 H     1.0000    0     1.008   10.972940   24.333890   31.058197

--------------------------------
INTERNAL COORDINATES (ANGSTROEM)
--------------------------------
 C      0   0   0     0.000000000000     0.00000000     0.00000000
 C      1   0   0     1.362118170277     0.00000000     0.00000000
 C      2   1   0     1.407862400166   111.31071797     0.00000000
 C      3   2   1     1.398661915439   112.38620077     0.11454273
 S      4   3   2     1.707109967547   112.34929035   359.91874636
 C      4   3   2     1.424512000546   108.55113497   179.62084779
 C      6   4   3     1.401103628216   108.60267785     0.23289292
 C      3   2   1     1.453411847654   138.76701691   178.77240317
 C      8   3   2     1.362973361845   127.27066933   358.22991745
 C      9   8   3     1.412150816521   122.70218857   183.77588298
 N     10   9   8     1.145976362627   178.23145787   127.31740919
 C      9   8   3     1.411397429111   121.96363393     1.99271057
 N     12   9   8     1.146553300157   179.85313586   188.28075455
 C      7   6   4     1.397207545678   113.09267527   179.62202908
 C     14   7   6     1.381075161966   111.72405283     0.58964706
 S      6   4   3     1.703288524884   138.93444744   180.69037212
 C     15  14   7     1.424385074269   128.42039211   177.27547184
 C     17  15  14     1.387559236537   128.28131534    19.86929790
 C     18  17  15     1.404362817544   122.35350066     8.42101975
 N     19  18  17     1.146495356990   176.88917919    60.27685196
 C     18  17  15     1.424289024391   112.36476632   183.77221793
 C     21  18  17     1.389990294175   111.18549560   358.69571534
 S     22  21  18     1.719501775428   113.97398139     0.40082492
 S     22  21  18     1.732512521311   115.47129086   179.09063931
 C     24  22  21     1.733139930069    87.84857453   359.30281473
 C     25  24  22     1.388891041083   115.51070795     0.70763705
 C     26  25  24     1.425478367356   111.23023861   181.75542227
 C     27  26  25     1.404704918835   124.49669958   175.79361791
 N     28  27  26     1.146687092018   178.00135830   253.40000355
 C     27  26  25     1.386182860701   112.52203976     0.97147488
 S     25  24  22     1.719023771360   130.50534912   183.55852670
 C     30  27  26     1.434009180061   129.49880714   176.53988802
 C     32  30  27     1.371532654332   120.70547139   211.44496960
 C     33  32  30     1.393410182322   124.86665554   177.24689198
 C     34  33  32     1.466616256353   121.15521977     2.49171840
 C     35  34  33     1.351844054468   123.71578971   359.20346795
 S     36  35  34     1.715255158890   124.22120176   359.36685622
 C     35  34  33     1.420483697548   105.08070229   181.25473061
 C     38  35  34     1.399359418305   110.06529451     1.61608991
 C     39  38  35     1.413104362494   111.75804432   180.01542341
 C     40  39  38     1.358731132049   111.63997299   359.65216591
 S     38  35  34     1.717409474674   137.23195388   181.02003044
 C     34  33  32     1.406113505056   129.30942684   186.22676687
 C     43  34  33     1.414607016949   124.11376440     1.00620016
 C     44  43  34     1.355479379260   126.80708203   162.72535697
 C     45  44  43     1.417272285589   122.83601608   185.90328257
 C     46  45  44     1.391335295499   126.53281149   168.42741344
 C     47  46  45     1.402452253234   120.20179593     6.07556903
 N     48  47  46     1.147498039780   175.57941186    22.54276579
 C     47  46  45     1.422176848848   112.75181919   184.80871594
 C     50  47  46     1.390032089486   110.96008817   357.79416599
 S     51  50  47     1.720831581562   114.19381747     1.60280599
 S     51  50  47     1.733039639189   115.48816080   180.11739342
 C     53  51  50     1.734517337993    87.83786677   358.84022668
 C     54  53  51     1.387318263305   115.41130292     0.41436477
 C     55  54  53     1.427189080851   111.11281466   183.06990820
 C     56  55  54     1.404799903509   123.20728043   175.27043199
 N     57  56  55     1.146964560961   178.34372407   292.49848608
 C     56  55  54     1.382867599085   112.74665430     0.09450019
 S     54  53  51     1.718367758223   130.75431864   183.75258971
 C     59  56  55     1.446191736942   129.38719828   177.63534058
 C     61  59  56     1.402491458441   118.95260502   206.48821581
 C     62  61  59     1.371733096087   119.54112364   178.42490192
 C     63  62  61     1.404719155490   120.54361723     0.49765709
 C     64  63  62     1.385949211407   120.27981365     0.60231020
 C     65  64  63     1.382020518878   119.16168605   359.22817113
 C     64  63  62     1.451589914990   108.39182085   180.55179020
 C     67  64  63     1.403615517084   108.45497001     0.00000000
 C     63  62  61     1.509745831158   128.62613706   181.09248961
 C     69  63  62     1.540107613415   111.33327836   298.18071641
 C     70  69  63     1.523835751287   112.82037942   303.68162121
 C     69  63  62     1.540285098220   111.31981999    60.69130967
 C     72  69  63     1.523917942935   112.88130704    56.04434801
 C     68  67  64     1.378228171929   120.35230179   179.84146401
 C     74  68  67     1.388802335035   118.79504511   359.95545129
 C     75  74  68     1.386647866836   120.85253280     0.00000000
 C     76  75  74     1.385311092679   120.76004075     0.00000000
 H      1   2   3     1.071604380124   127.75733711   179.90010947
 H      2   1   3     1.074492479499   123.73462497   180.06382053
 H     14   7   6     1.074325805005   125.00008333   179.65369973
 H     33  32  30     1.082388519156   116.69138711   359.95974715
 H     36  35  34     1.078621114015   122.62123813   180.68315849
 H     40  39  38     1.074371263298   125.62345222   179.18984493
 H     41  40  39     1.072440222670   127.55185416   180.07677637
 H     44  43  34     1.084156713257   115.83116463   346.94396970
 H     45  44  43     1.079632313846   121.18559252     0.84411560
 H     62  61  59     1.081140172411   119.56673310   359.66521171
 H     65  64  63     1.079107581569   120.87632918   179.16264363
 H     66  65  64     1.078206795425   119.50908645   179.15921249
 H     70  69  63     1.092022174409   108.63228568   182.22736976
 H     70  69  63     1.092269734361   108.68225686    65.18656101
 H     71  70  69     1.087714628660   110.65514139   300.10226664
 H     71  70  69     1.087588801018   110.12471890   180.16370930
 H     71  70  69     1.087812780813   110.70474359    60.23023021
 H     72  69  63     1.092288033167   108.68597815   294.47521457
 H     72  69  63     1.092052351035   108.59678916   177.49272987
 H     73  72  69     1.087823387044   110.77215992   299.70156039
 H     73  72  69     1.087618942875   110.10716112   179.75756378
 H     73  72  69     1.087678440073   110.66574465    59.84909906
 H     74  68  67     1.080393877898   121.01166291   180.03044870
 H     75  74  68     1.080193432493   119.56825025   180.07591288
 H     76  75  74     1.080141877764   119.52782685   180.06123765
 H     77  76  75     1.079661130818   120.68117801   180.07395644

---------------------------
INTERNAL COORDINATES (A.U.)
---------------------------
 C      0   0   0     0.000000000000     0.00000000     0.00000000
 C      1   0   0     2.574030303862     0.00000000     0.00000000
 C      2   1   0     2.660474370558   111.31071797     0.00000000
 C      3   2   1     2.643087974126   112.38620077     0.11454273
 S      4   3   2     3.225970319152   112.34929035   359.91874636
 C      4   3   2     2.691937555517   108.55113497   179.62084779
 C      6   4   3     2.647702142572   108.60267785     0.23289292
 C      3   2   1     2.746550351862   138.76701691   178.77240317
 C      8   3   2     2.575646381718   127.27066933   358.22991745
 C      9   8   3     2.668578303017   122.70218857   183.77588298
 N     10   9   8     2.165581481312   178.23145787   127.31740919
 C      9   8   3     2.667154607140   121.96363393     1.99271057
 N     12   9   8     2.166671735240   179.85313586   188.28075455
 C      7   6   4     2.640339613580   113.09267527   179.62202908
 C     14   7   6     2.609853826477   111.72405283     0.58964706
 S      6   4   3     3.218748839081   138.93444744   180.69037212
 C     15  14   7     2.691697699613   128.42039211   177.27547184
 C     17  15  14     2.622106951648   128.28131534    19.86929790
 C     18  17  15     2.653861117820   122.35350066     8.42101975
 N     19  18  17     2.166562238524   176.88917919    60.27685196
 C     18  17  15     2.691516191648   112.36476632   183.77221793
 C     21  18  17     2.626700984799   111.18549560   358.69571534
 S     22  21  18     3.249387442350   113.97398139     0.40082492
 S     22  21  18     3.273974188868   115.47129086   179.09063931
 C     24  22  21     3.275159819594    87.84857453   359.30281473
 C     25  24  22     2.624623697503   115.51070795     0.70763705
 C     26  25  24     2.693763724132   111.23023861   181.75542227
 C     27  26  25     2.654507595571   124.49669958   175.79361791
 N     28  27  26     2.166924565216   178.00135830   253.40000355
 C     27  26  25     2.619505978260   112.52203976     0.97147488
 S     25  24  22     3.248484145570   130.50534912   183.55852670
 C     30  27  26     2.709884623845   129.49880714   176.53988802
 C     32  30  27     2.591821100418   120.70547139   211.44496960
 C     33  32  30     2.633163636807   124.86665554   177.24689198
 C     34  33  32     2.771503068065   121.15521977     2.49171840
 C     35  34  33     2.554615038714   123.71578971   359.20346795
 S     36  35  34     3.241362500098   124.22120176   359.36685622
 C     35  34  33     2.684325166066   105.08070229   181.25473061
 C     38  35  34     2.644406063521   110.06529451     1.61608991
 C     39  38  35     2.670380243763   111.75804432   180.01542341
 C     40  39  38     2.567629729206   111.63997299   359.65216591
 S     38  35  34     3.245433566935   137.23195388   181.02003044
 C     34  33  32     2.657169437763   129.30942684   186.22676687
 C     43  34  33     2.673219849156   124.11376440     1.00620016
 C     44  43  34     2.561484806980   126.80708203   162.72535697
 C     45  44  43     2.678256476961   122.83601608   185.90328257
 C     46  45  44     2.629242668951   126.53281149   168.42741344
 C     47  46  45     2.650250674512   120.20179593     6.07556903
 N     48  47  46     2.168457034397   175.57941186    22.54276579
 C     47  46  45     2.687524758326   112.75181919   184.80871594
 C     50  47  46     2.626779966490   110.96008817   357.79416599
 S     51  50  47     3.251900411754   114.19381747     1.60280599
 S     51  50  47     3.274970297297   115.48816080   180.11739342
 C     53  51  50     3.277762743346    87.83786677   358.84022668
 C     54  53  51     2.621651578234   115.41130292     0.41436477
 C     55  54  53     2.696996504131   111.11281466   183.06990820
 C     56  55  54     2.654687090592   123.20728043   175.27043199
 N     57  56  55     2.167448905529   178.34372407   292.49848608
 C     56  55  54     2.613241041744   112.74665430     0.09450019
 S     54  53  51     3.247244460401   130.75431864   183.75258971
 C     59  56  55     2.732906319961   129.38719828   177.63534058
 C     61  59  56     2.650324761617   118.95260502   206.48821581
 C     62  61  59     2.592199880440   119.54112364   178.42490192
 C     63  62  61     2.654534498949   120.54361723     0.49765709
 C     64  63  62     2.619064445084   120.27981365     0.60231020
 C     65  64  63     2.611640292139   119.16168605   359.22817113
 C     64  63  62     2.743107398093   108.39182085   180.55179020
 C     67  64  63     2.652448924612   108.45497001     0.00000000
 C     63  62  61     2.853006152719   128.62613706   181.09248961
 C     69  63  62     2.910381606122   111.33327836   298.18071641
 C     70  69  63     2.879632243010   112.82037942   303.68162121
 C     69  63  62     2.910717003797   111.31981999    60.69130967
 C     72  69  63     2.879787562716   112.88130704    56.04434801
 C     68  67  64     2.604473795002   120.35230179   179.84146401
 C     74  68  67     2.624456067367   118.79504511   359.95545129
 C     75  74  68     2.620384712506   120.85253280     0.00000000
 C     76  75  74     2.617858575447   120.76004075     0.00000000
 H      1   2   3     2.025038802344   127.75733711   179.90010947
 H      2   1   3     2.030496519211   123.73462497   180.06382053
 H     14   7   6     2.030181550064   125.00008333   179.65369973
 H     33  32  30     2.045417871705   116.69138711   359.95974715
 H     36  35  34     2.038298507754   122.62123813   180.68315849
 H     40  39  38     2.030267453788   125.62345222   179.18984493
 H     41  40  39     2.026618315847   127.55185416   180.07677637
 H     44  43  34     2.048759274308   115.83116463   346.94396970
 H     45  44  43     2.040209398500   121.18559252     0.84411560
 H     62  61  59     2.043058838236   119.56673310   359.66521171
 H     65  64  63     2.039217798204   120.87632918   179.16264363
 H     66  65  64     2.037515559086   119.50908645   179.15921249
 H     70  69  63     2.063622841801   108.63228568   182.22736976
 H     70  69  63     2.064090662312   108.68225686    65.18656101
 H     71  70  69     2.055482760026   110.65514139   300.10226664
 H     71  70  69     2.055244980244   110.12471890   180.16370930
 H     71  70  69     2.055668240716   110.70474359    60.23023021
 H     72  69  63     2.064125242045   108.68597815   294.47521457
 H     72  69  63     2.063679867360   108.59678916   177.49272987
 H     73  72  69     2.055688283588   110.77215992   299.70156039
 H     73  72  69     2.055301940098   110.10716112   179.75756378
 H     73  72  69     2.055414373509   110.66574465    59.84909906
 H     74  68  67     2.041648545993   121.01166291   180.03044870
 H     75  74  68     2.041269759071   119.56825025   180.07591288
 H     76  75  74     2.041172334754   119.52782685   180.06123765
 H     77  76  75     2.040263854686   120.68117801   180.07395644

---------------------
BASIS SET INFORMATION
---------------------
There are 4 groups of distinct atoms

 Group   1 Type C   : 7s4p1d contracted to 3s2p1d pattern {511/31/1}
 Group   2 Type S   : 10s7p1d contracted to 4s3p1d pattern {5311/511/1}
 Group   3 Type N   : 7s4p1d contracted to 3s2p1d pattern {511/31/1}
 Group   4 Type H   : 4s1p contracted to 2s1p pattern {31/1}

Atom   0C    basis set group =>   1
Atom   1C    basis set group =>   1
Atom   2C    basis set group =>   1
Atom   3C    basis set group =>   1
Atom   4S    basis set group =>   2
Atom   5C    basis set group =>   1
Atom   6C    basis set group =>   1
Atom   7C    basis set group =>   1
Atom   8C    basis set group =>   1
Atom   9C    basis set group =>   1
Atom  10N    basis set group =>   3
Atom  11C    basis set group =>   1
Atom  12N    basis set group =>   3
Atom  13C    basis set group =>   1
Atom  14C    basis set group =>   1
Atom  15S    basis set group =>   2
Atom  16C    basis set group =>   1
Atom  17C    basis set group =>   1
Atom  18C    basis set group =>   1
Atom  19N    basis set group =>   3
Atom  20C    basis set group =>   1
Atom  21C    basis set group =>   1
Atom  22S    basis set group =>   2
Atom  23S    basis set group =>   2
Atom  24C    basis set group =>   1
Atom  25C    basis set group =>   1
Atom  26C    basis set group =>   1
Atom  27C    basis set group =>   1
Atom  28N    basis set group =>   3
Atom  29C    basis set group =>   1
Atom  30S    basis set group =>   2
Atom  31C    basis set group =>   1
Atom  32C    basis set group =>   1
Atom  33C    basis set group =>   1
Atom  34C    basis set group =>   1
Atom  35C    basis set group =>   1
Atom  36S    basis set group =>   2
Atom  37C    basis set group =>   1
Atom  38C    basis set group =>   1
Atom  39C    basis set group =>   1
Atom  40C    basis set group =>   1
Atom  41S    basis set group =>   2
Atom  42C    basis set group =>   1
Atom  43C    basis set group =>   1
Atom  44C    basis set group =>   1
Atom  45C    basis set group =>   1
Atom  46C    basis set group =>   1
Atom  47C    basis set group =>   1
Atom  48N    basis set group =>   3
Atom  49C    basis set group =>   1
Atom  50C    basis set group =>   1
Atom  51S    basis set group =>   2
Atom  52S    basis set group =>   2
Atom  53C    basis set group =>   1
Atom  54C    basis set group =>   1
Atom  55C    basis set group =>   1
Atom  56C    basis set group =>   1
Atom  57N    basis set group =>   3
Atom  58C    basis set group =>   1
Atom  59S    basis set group =>   2
Atom  60C    basis set group =>   1
Atom  61C    basis set group =>   1
Atom  62C    basis set group =>   1
Atom  63C    basis set group =>   1
Atom  64C    basis set group =>   1
Atom  65C    basis set group =>   1
Atom  66C    basis set group =>   1
Atom  67C    basis set group =>   1
Atom  68C    basis set group =>   1
Atom  69C    basis set group =>   1
Atom  70C    basis set group =>   1
Atom  71C    basis set group =>   1
Atom  72C    basis set group =>   1
Atom  73C    basis set group =>   1
Atom  74C    basis set group =>   1
Atom  75C    basis set group =>   1
Atom  76C    basis set group =>   1
Atom  77H    basis set group =>   4
Atom  78H    basis set group =>   4
Atom  79H    basis set group =>   4
Atom  80H    basis set group =>   4
Atom  81H    basis set group =>   4
Atom  82H    basis set group =>   4
Atom  83H    basis set group =>   4
Atom  84H    basis set group =>   4
Atom  85H    basis set group =>   4
Atom  86H    basis set group =>   4
Atom  87H    basis set group =>   4
Atom  88H    basis set group =>   4
Atom  89H    basis set group =>   4
Atom  90H    basis set group =>   4
Atom  91H    basis set group =>   4
Atom  92H    basis set group =>   4
Atom  93H    basis set group =>   4
Atom  94H    basis set group =>   4
Atom  95H    basis set group =>   4
Atom  96H    basis set group =>   4
Atom  97H    basis set group =>   4
Atom  98H    basis set group =>   4
Atom  99H    basis set group =>   4
Atom 100H    basis set group =>   4
Atom 101H    basis set group =>   4
Atom 102H    basis set group =>   4
---------------------------------
AUXILIARY/J BASIS SET INFORMATION
---------------------------------
There are 4 groups of distinct atoms

 Group   1 Type C   : 12s5p4d2f1g contracted to 6s4p3d1f1g pattern {711111/2111/211/2/1}
 Group   2 Type S   : 14s5p5d2f1g contracted to 8s4p3d1f1g pattern {71111111/2111/311/2/1}
 Group   3 Type N   : 12s5p4d2f1g contracted to 6s4p3d1f1g pattern {711111/2111/211/2/1}
 Group   4 Type H   : 5s2p1d contracted to 3s1p1d pattern {311/2/1}

Atom   0C    basis set group =>   1
Atom   1C    basis set group =>   1
Atom   2C    basis set group =>   1
Atom   3C    basis set group =>   1
Atom   4S    basis set group =>   2
Atom   5C    basis set group =>   1
Atom   6C    basis set group =>   1
Atom   7C    basis set group =>   1
Atom   8C    basis set group =>   1
Atom   9C    basis set group =>   1
Atom  10N    basis set group =>   3
Atom  11C    basis set group =>   1
Atom  12N    basis set group =>   3
Atom  13C    basis set group =>   1
Atom  14C    basis set group =>   1
Atom  15S    basis set group =>   2
Atom  16C    basis set group =>   1
Atom  17C    basis set group =>   1
Atom  18C    basis set group =>   1
Atom  19N    basis set group =>   3
Atom  20C    basis set group =>   1
Atom  21C    basis set group =>   1
Atom  22S    basis set group =>   2
Atom  23S    basis set group =>   2
Atom  24C    basis set group =>   1
Atom  25C    basis set group =>   1
Atom  26C    basis set group =>   1
Atom  27C    basis set group =>   1
Atom  28N    basis set group =>   3
Atom  29C    basis set group =>   1
Atom  30S    basis set group =>   2
Atom  31C    basis set group =>   1
Atom  32C    basis set group =>   1
Atom  33C    basis set group =>   1
Atom  34C    basis set group =>   1
Atom  35C    basis set group =>   1
Atom  36S    basis set group =>   2
Atom  37C    basis set group =>   1
Atom  38C    basis set group =>   1
Atom  39C    basis set group =>   1
Atom  40C    basis set group =>   1
Atom  41S    basis set group =>   2
Atom  42C    basis set group =>   1
Atom  43C    basis set group =>   1
Atom  44C    basis set group =>   1
Atom  45C    basis set group =>   1
Atom  46C    basis set group =>   1
Atom  47C    basis set group =>   1
Atom  48N    basis set group =>   3
Atom  49C    basis set group =>   1
Atom  50C    basis set group =>   1
Atom  51S    basis set group =>   2
Atom  52S    basis set group =>   2
Atom  53C    basis set group =>   1
Atom  54C    basis set group =>   1
Atom  55C    basis set group =>   1
Atom  56C    basis set group =>   1
Atom  57N    basis set group =>   3
Atom  58C    basis set group =>   1
Atom  59S    basis set group =>   2
Atom  60C    basis set group =>   1
Atom  61C    basis set group =>   1
Atom  62C    basis set group =>   1
Atom  63C    basis set group =>   1
Atom  64C    basis set group =>   1
Atom  65C    basis set group =>   1
Atom  66C    basis set group =>   1
Atom  67C    basis set group =>   1
Atom  68C    basis set group =>   1
Atom  69C    basis set group =>   1
Atom  70C    basis set group =>   1
Atom  71C    basis set group =>   1
Atom  72C    basis set group =>   1
Atom  73C    basis set group =>   1
Atom  74C    basis set group =>   1
Atom  75C    basis set group =>   1
Atom  76C    basis set group =>   1
Atom  77H    basis set group =>   4
Atom  78H    basis set group =>   4
Atom  79H    basis set group =>   4
Atom  80H    basis set group =>   4
Atom  81H    basis set group =>   4
Atom  82H    basis set group =>   4
Atom  83H    basis set group =>   4
Atom  84H    basis set group =>   4
Atom  85H    basis set group =>   4
Atom  86H    basis set group =>   4
Atom  87H    basis set group =>   4
Atom  88H    basis set group =>   4
Atom  89H    basis set group =>   4
Atom  90H    basis set group =>   4
Atom  91H    basis set group =>   4
Atom  92H    basis set group =>   4
Atom  93H    basis set group =>   4
Atom  94H    basis set group =>   4
Atom  95H    basis set group =>   4
Atom  96H    basis set group =>   4
Atom  97H    basis set group =>   4
Atom  98H    basis set group =>   4
Atom  99H    basis set group =>   4
Atom 100H    basis set group =>   4
Atom 101H    basis set group =>   4
Atom 102H    basis set group =>   4


           ************************************************************
           *        Program running with 6 parallel MPI-processes     *
           *              working on a common directory               *
           ************************************************************
------------------------------------------------------------------------------
                           ORCA GTO INTEGRAL CALCULATION
                           -- RI-GTO INTEGRALS CHOSEN --
------------------------------------------------------------------------------

                         BASIS SET STATISTICS AND STARTUP INFO

Gaussian basis set:
 # of primitive gaussian shells          ... 1114
 # of primitive gaussian functions       ... 2150
 # of contracted shells                  ...  560
 # of contracted basis functions         ... 1248
 Highest angular momentum                ...    2
 Maximum contraction depth               ...    5
Auxiliary gaussian basis set:
 # of primitive gaussian shells          ... 2086
 # of primitive gaussian functions       ... 5876
 # of contracted shells                  ... 1305
 # of contracted aux-basis functions     ... 4079
 Highest angular momentum                ...    4
 Maximum contraction depth               ...    7
Ratio of auxiliary to basis functions    ...  3.27
Integral package used                  ... LIBINT
 One Electron integrals                  ... done
 Ordering auxiliary basis shells         ... done
 Integral threshhold             Thresh  ...  2.500e-11
 Primitive cut-off               TCut    ...  2.500e-12
 Pre-screening matrix                    ... done
 Shell pair data                         ... 
 Ordering of the shell pairs             ... done (   0.009 sec) 44335 of 157080 pairs
 Determination of significant pairs      ... done (   0.000 sec)
 Creation of shell pair data             ... done (   0.006 sec)
 Storage of shell pair data              ... done (   0.015 sec)
 Shell pair data done in (   0.031 sec)
 Computing two index integrals           ... done
 Cholesky decomposition of the V-matrix  ... done


Timings:
 Total evaluation time                   ...   2.530 sec (  0.042 min)
 One electron matrix time                ...   0.600 sec (  0.010 min) = 23.7%
 Schwartz matrix evaluation time         ...   0.805 sec (  0.013 min) = 31.8%
 Two index repulsion integral time       ...   0.387 sec (  0.006 min) = 15.3%
 Cholesky decomposition of V             ...   0.691 sec (  0.012 min) = 27.3%
 Three index repulsion integral time     ...   0.000 sec (  0.000 min) =  0.0%



           ************************************************************
           *        Program running with 6 parallel MPI-processes     *
           *              working on a common directory               *
           ************************************************************
-------------------------------------------------------------------------------
                                 ORCA SCF
-------------------------------------------------------------------------------

------------
SCF SETTINGS
------------
Hamiltonian:
 Density Functional     Method          .... DFT(GTOs)
 Exchange Functional    Exchange        .... WB88
 Correlation Functional Correlation     .... LYP
 LDA part of GGA corr.  LDAOpt          .... VWN-5
 Gradients option       PostSCFGGA      .... off
 Hybrid DFT is turned on
   Fraction HF Exchange ScalHFX         ....  0.190000
   Scaling of DF-GGA-X  ScalDFX         ....  0.350000
   Scaling of DF-GGA-C  ScalDFC         ....  0.810000
   Scaling of DF-LDA-C  ScalLDAC        ....  1.000000
   Perturbative correction              ....  0.000000
   Density functional embedding theory  .... OFF
 Long-range corrected/Screened/Range-Separated Hybrid DFT is turned on
   Amount of maximum screened exact exchange              ....  0.460000
   Range separation parameter mu (erf(mu*r12)/r12)        ....  0.330000
 RI-approximation to the Coulomb term is turned on
   Number of auxiliary basis functions  .... 4079
   RIJ-COSX (HFX calculated with COS-X)).... on


General Settings:
 Integral files         IntName         .... xtbopt
 Hartree-Fock type      HFTyp           .... RHF
 Total Charge           Charge          ....    0
 Multiplicity           Mult            ....    1
 Number of Electrons    NEL             ....  594
 Basis Dimension        Dim             .... 1248
 Nuclear Repulsion      ENuc            ....  12447.5339234558 Eh

Convergence Acceleration:
 DIIS                   CNVDIIS         .... on
   Start iteration      DIISMaxIt       ....    12
   Startup error        DIISStart       ....  0.200000
   # of expansion vecs  DIISMaxEq       ....     5
   Bias factor          DIISBfac        ....   1.050
   Max. coefficient     DIISMaxC        ....  10.000
 Newton-Raphson         CNVNR           .... off
 SOSCF                  CNVSOSCF        .... on
   Start iteration      SOSCFMaxIt      ....   150
   Startup grad/error   SOSCFStart      ....  0.003300
 Level Shifting         CNVShift        .... on
   Level shift para.    LevelShift      ....    0.2500
   Turn off err/grad.   ShiftErr        ....    0.0010
 Zerner damping         CNVZerner       .... off
 Static damping         CNVDamp         .... on
   Fraction old density DampFac         ....    0.7000
   Max. Damping (<1)    DampMax         ....    0.9800
   Min. Damping (>=0)   DampMin         ....    0.0000
   Turn off err/grad.   DampErr         ....    0.1000
 Fernandez-Rico         CNVRico         .... off

SCF Procedure:
 Maximum # iterations   MaxIter         ....   125
 SCF integral mode      SCFMode         .... Direct
   Integral package                     .... LIBINT
 Reset frequency        DirectResetFreq ....    20
 Integral Threshold     Thresh          ....  2.500e-11 Eh
 Primitive CutOff       TCut            ....  2.500e-12 Eh

Convergence Tolerance:
 Convergence Check Mode ConvCheckMode   .... Total+1el-Energy
 Convergence forced     ConvForced      .... 1
 Energy Change          TolE            ....  1.000e-08 Eh
 1-El. energy change                    ....  1.000e-05 Eh
 Orbital Gradient       TolG            ....  1.000e-05
 Orbital Rotation angle TolX            ....  1.000e-05
 DIIS Error             TolErr          ....  5.000e-07


Diagonalization of the overlap matrix:
Smallest eigenvalue                        ... 1.245e-04
Time for diagonalization                   ...    0.236 sec
Threshold for overlap eigenvalues          ... 1.000e-08
Number of eigenvalues below threshold      ... 0
Time for construction of square roots      ...    0.160 sec
Total time needed                          ...    0.400 sec

-------------------
DFT GRID GENERATION
-------------------

General Integration Accuracy     IntAcc      ...  4.670
Radial Grid Type                 RadialGrid  ... Gauss-Chebyshev
Angular Grid (max. acc.)         AngularGrid ... Lebedev-302
Angular grid pruning method      GridPruning ... 3 (G Style)
Weight generation scheme         WeightScheme... Becke
Basis function cutoff            BFCut       ...    1.0000e-11
Integration weight cutoff        WCut        ...    1.0000e-14
Grids for H and He will be reduced by one unit

# of grid points (after initial pruning)     ... 572908 (   0.0 sec)
# of grid points (after weights+screening)   ... 492716 (   7.9 sec)
nearest neighbour list constructed           ...    0.0 sec
Grid point re-assignment to atoms done       ...    0.1 sec
Grid point division into batches done        ...    1.8 sec
Reduced shell lists constructed in    2.7 sec

Total number of grid points                  ...   492716
Total number of batches                      ...     7750
Average number of points per batch           ...       63
Average number of grid points per atom       ...     4784
Average number of shells per batch           ...    74.59 (13.32%)
Average number of basis functions per batch  ...   164.73 (13.20%)
Average number of large shells per batch     ...    49.17 (65.91%)
Average number of large basis fcns per batch ...   109.23 (66.31%)
Maximum spatial batch extension              ...  18.31, 20.34, 28.09 au
Average spatial batch extension              ...   0.34,  0.36,  0.41 au

Time for grid setup =   10.963 sec

------------------------------
INITIAL GUESS: MODEL POTENTIAL
------------------------------
Loading Hartree-Fock densities                     ... done
Calculating cut-offs                               ... done
Setting up the integral package                    ... done
Initializing the effective Hamiltonian             ... done
Starting the Coulomb interaction                   ... done (   1.4 sec)
Reading the grid                                   ... done
Mapping shells                                     ... done
Starting the XC term evaluation                    ... done (   1.5 sec)
  promolecular density results
     # of electrons  =    593.988072593
     EX              =   -608.203607464
     EC              =    -21.017947235
     EX+EC           =   -629.221554699
Transforming the Hamiltonian                       ... done (   0.1 sec)
Diagonalizing the Hamiltonian                      ... done (   0.2 sec)
Back transforming the eigenvectors                 ... done (   0.1 sec)
Now organizing SCF variables                       ... done
                      ------------------
                      INITIAL GUESS DONE (  14.3 sec)
                      ------------------
--------------------
COSX GRID GENERATION
--------------------

General Integration Accuracy     IntAcc      ...  3.340
Radial Grid Type                 RadialGrid  ... Gauss-Chebyshev
Angular Grid (max. acc.)         AngularGrid ... Lebedev-50
Angular grid pruning method      GridPruning ... 3 (G Style)
Weight generation scheme         WeightScheme... Becke
Basis function cutoff            BFCut       ...    1.0000e-11
Integration weight cutoff        WCut        ...    1.0000e-14
Grids for H and He will be reduced by one unit

# of grid points (after initial pruning)     ...  54156 (   0.0 sec)
# of grid points (after weights+screening)   ...  48719 (   0.7 sec)
nearest neighbour list constructed           ...    0.0 sec
Grid point re-assignment to atoms done       ...    0.0 sec
Grid point division into batches done        ...    0.0 sec
Reduced shell lists constructed in    0.1 sec

Total number of grid points                  ...    48719
Total number of batches                      ...      811
Average number of points per batch           ...       60
Average number of grid points per atom       ...      473
Average number of shells per batch           ...    90.34 (16.13%)
Average number of basis functions per batch  ...   202.00 (16.19%)
Average number of large shells per batch     ...    59.58 (65.96%)
Average number of large basis fcns per batch ...   133.54 (66.11%)
Maximum spatial batch extension              ...  14.03, 16.08, 27.03 au
Average spatial batch extension              ...   0.61,  0.73,  1.05 au

Overlap Fitting                  UseSFitting ... on
Constructing numerical overlap ... done (      0.1 sec)
Inverting numerical overlap    ... done (      0.1 sec)
Obtaining analytic overlap     ... done (      0.0 sec)
Final contraction and storage  ... done (      0.1 sec)


General Integration Accuracy     IntAcc      ...  3.670
Radial Grid Type                 RadialGrid  ... Gauss-Chebyshev
Angular Grid (max. acc.)         AngularGrid ... Lebedev-50
Angular grid pruning method      GridPruning ... 3 (G Style)
Weight generation scheme         WeightScheme... Becke
Basis function cutoff            BFCut       ...    1.0000e-11
Integration weight cutoff        WCut        ...    1.0000e-14
Grids for H and He will be reduced by one unit

# of grid points (after initial pruning)     ...  67338 (   0.0 sec)
# of grid points (after weights+screening)   ...  60360 (   0.9 sec)
nearest neighbour list constructed           ...    0.0 sec
Grid point re-assignment to atoms done       ...    0.0 sec
Grid point division into batches done        ...    0.0 sec
Reduced shell lists constructed in    0.2 sec

Total number of grid points                  ...    60360
Total number of batches                      ...      992
Average number of points per batch           ...       60
Average number of grid points per atom       ...      586
Average number of shells per batch           ...    88.61 (15.82%)
Average number of basis functions per batch  ...   198.13 (15.88%)
Average number of large shells per batch     ...    58.33 (65.83%)
Average number of large basis fcns per batch ...   131.06 (66.15%)
Maximum spatial batch extension              ...  17.88, 16.97, 19.26 au
Average spatial batch extension              ...   0.58,  0.67,  0.89 au

Overlap Fitting                  UseSFitting ... on
Constructing numerical overlap ... done (      0.1 sec)
Inverting numerical overlap    ... done (      0.1 sec)
Obtaining analytic overlap     ... done (      0.0 sec)
Final contraction and storage  ... done (      0.1 sec)


General Integration Accuracy     IntAcc      ...  4.010
Radial Grid Type                 RadialGrid  ... Gauss-Chebyshev
Angular Grid (max. acc.)         AngularGrid ... Lebedev-110
Angular grid pruning method      GridPruning ... 3 (G Style)
Weight generation scheme         WeightScheme... Becke
Basis function cutoff            BFCut       ...    1.0000e-11
Integration weight cutoff        WCut        ...    1.0000e-14
Grids for H and He will be reduced by one unit

# of grid points (after initial pruning)     ... 132044 (   0.0 sec)
# of grid points (after weights+screening)   ... 116979 (   1.9 sec)
nearest neighbour list constructed           ...    0.0 sec
Grid point re-assignment to atoms done       ...    0.0 sec
Grid point division into batches done        ...    0.1 sec
Reduced shell lists constructed in    0.3 sec

Total number of grid points                  ...   116979
Total number of batches                      ...     1875
Average number of points per batch           ...       62
Average number of grid points per atom       ...     1136
Average number of shells per batch           ...    82.76 (14.78%)
Average number of basis functions per batch  ...   184.18 (14.76%)
Average number of large shells per batch     ...    55.01 (66.47%)
Average number of large basis fcns per batch ...   123.19 (66.89%)
Maximum spatial batch extension              ...  16.21, 16.99, 27.64 au
Average spatial batch extension              ...   0.50,  0.58,  0.73 au

Overlap Fitting                  UseSFitting ... on
Constructing numerical overlap ... done (      0.2 sec)
Inverting numerical overlap    ... done (      0.1 sec)
Obtaining analytic overlap     ... done (      0.0 sec)
Final contraction and storage  ... done (      0.1 sec)

Time for X-Grid setup             =    5.164 sec
--------------
SCF ITERATIONS
--------------
ITER       Energy         Delta-E        Max-DP      RMS-DP      [F,P]     Damp
               ***  Starting incremental Fock matrix formation  ***
  0  -6644.0257402413   0.000000000000 0.10915384  0.00108194  0.2395651 0.7000
  1  -6644.8380400600  -0.812299818714 0.06584047  0.00075865  0.1060539 0.7000
                               ***Turning on DIIS***
  2  -6645.1738369445  -0.335796884463 0.11658852  0.00132640  0.0427262 0.0000
  3  -6645.6587993635  -0.484962419019 0.05176266  0.00063485  0.0590085 0.0000
  4  -6645.8004660746  -0.141666711081 0.01883862  0.00020602  0.0143258 0.0000
  5  -6645.8085749079  -0.008108833319 0.00757013  0.00006909  0.0135614 0.0000
                      *** Initiating the SOSCF procedure ***
                           *** Shutting down DIIS ***
                      *** Re-Reading the Fockian *** 
                      *** Removing any level shift *** 
ITER      Energy       Delta-E        Grad      Rot      Max-DP    RMS-DP
  6  -6645.81022634  -0.0016514315  0.002259  0.002259  0.002693  0.000037
               *** Restarting incremental Fock matrix formation ***
  7  -6645.81055762  -0.0003312831  0.001498  0.007229  0.002399  0.000031
  8  -6645.81075383  -0.0001962111  0.000509  0.007638  0.002762  0.000036
  9  -6645.81076669  -0.0000128514  0.000682  0.003116  0.001057  0.000016
 10  -6645.81081966  -0.0000529735  0.000165  0.000709  0.000545  0.000006
 11  -6645.81081892   0.0000007413  0.000181  0.000459  0.000281  0.000003
 12  -6645.81082268  -0.0000037663  0.000044  0.000280  0.000180  0.000002
 13  -6645.81082267   0.0000000125  0.000034  0.000098  0.000078  0.000001
 14  -6645.81082288  -0.0000002047  0.000009  0.000053  0.000031  0.000000
 15  -6645.81082282   0.0000000531  0.000006  0.000022  0.000017  0.000000
                  ***Gradient check signals convergence***
              ***Rediagonalizing the Fockian in SOSCF/NRSCF***

               *****************************************************
               *                     SUCCESS                       *
               *           SCF CONVERGED AFTER  16 CYCLES          *
               *****************************************************

Setting up the final grid:

General Integration Accuracy     IntAcc      ...  5.010
Radial Grid Type                 RadialGrid  ... Gauss-Chebyshev
Angular Grid (max. acc.)         AngularGrid ... Lebedev-434
Angular grid pruning method      GridPruning ... 3 (G Style)
Weight generation scheme         WeightScheme... Becke
Basis function cutoff            BFCut       ...    1.0000e-11
Integration weight cutoff        WCut        ...    1.0000e-14
Grids for H and He will be reduced by one unit

# of grid points (after initial pruning)     ... 1007510 (   0.1 sec)
# of grid points (after weights+screening)   ... 863453 (  13.5 sec)
nearest neighbour list constructed           ...    0.0 sec
Grid point re-assignment to atoms done       ...    0.1 sec
Grid point division into batches done        ...    5.7 sec
Reduced shell lists constructed in    7.1 sec

Total number of grid points                  ...   863453
Total number of batches                      ...    13544
Average number of points per batch           ...       63
Average number of grid points per atom       ...     8383
Average number of shells per batch           ...    72.51 (12.95%)
Average number of basis functions per batch  ...   159.74 (12.80%)
Average number of large shells per batch     ...    47.62 (65.68%)
Average number of large basis fcns per batch ...   105.67 (66.15%)
Maximum spatial batch extension              ...  14.04, 19.25, 22.80 au
Average spatial batch extension              ...   0.28,  0.30,  0.33 au

Final grid set up in   21.4 sec
Final integration                            ... done (   3.1 sec)
Change in XC energy                          ...    -0.000038767
Integrated number of electrons               ...   593.999907747
Previous integrated no of electrons          ...   594.000326820
Old exchange energy                            =   -163.614478474 Eh
New exchange energy                            =   -163.610297215 Eh
Exchange energy change after final integration =      0.004181259 Eh
Total energy after final integration           =  -6645.806680407 Eh
Final COS-X integration done in                =    61.433 sec

----------------
TOTAL SCF ENERGY
----------------

Total Energy       :        -6645.80668041 Eh         -180841.59358 eV

Components:
Nuclear Repulsion  :        12447.53392346 Eh          338714.61798 eV
Electronic Energy  :       -19093.34060386 Eh         -519556.21156 eV
One Electron Energy:       -33912.89635616 Eh         -922816.82495 eV
Two Electron Energy:        14819.55575229 Eh          403260.61339 eV

Virial components:
Potential Energy   :       -13257.18597916 Eh         -360746.37048 eV
Kinetic Energy     :         6611.37929875 Eh          179904.77690 eV
Virial Ratio       :            2.00520729


DFT components:
N(Alpha)           :      296.999953873333 electrons
N(Beta)            :      296.999953873333 electrons
N(Total)           :      593.999907746667 electrons
E(XC)              :     -474.148810112155 Eh       
DFET-embed. en.    :        0.000000000000 Eh       

---------------
SCF CONVERGENCE
---------------

  Last Energy change         ...   -7.7069e-08  Tolerance :   1.0000e-08
  Last MAX-Density change    ...    6.6613e-15  Tolerance :   1.0000e-07
  Last RMS-Density change    ...    4.0482e-17  Tolerance :   5.0000e-09
  Last Orbital Gradient      ...    1.7546e-06  Tolerance :   1.0000e-05
  Last Orbital Rotation      ...    1.5926e-05  Tolerance :   1.0000e-05

             **** THE GBW FILE WAS UPDATED (xtbopt.gbw) ****
             **** DENSITY FILE WAS UPDATED (xtbopt.scfp) ****
             **** ENERGY FILE WAS UPDATED (xtbopt.en.tmp) ****
             **** THE GBW FILE WAS UPDATED (xtbopt.gbw) ****
             **** DENSITY FILE WAS UPDATED (xtbopt.scfp) ****
----------------
ORBITAL ENERGIES
----------------

  NO   OCC          E(Eh)            E(eV) 
   0   2.0000     -88.995604     -2421.6935 
   1   2.0000     -88.995279     -2421.6847 
   2   2.0000     -88.994769     -2421.6708 
   3   2.0000     -88.994191     -2421.6551 
   4   2.0000     -88.989711     -2421.5331 
   5   2.0000     -88.980877     -2421.2928 
   6   2.0000     -88.980599     -2421.2852 
   7   2.0000     -88.977964     -2421.2135 
   8   2.0000     -88.976428     -2421.1717 
   9   2.0000     -88.956223     -2420.6219 
  10   2.0000     -14.428254      -392.6128 
  11   2.0000     -14.424630      -392.5141 
  12   2.0000     -14.407059      -392.0360 
  13   2.0000     -14.406764      -392.0280 
  14   2.0000     -14.395956      -391.7339 
  15   2.0000     -14.393086      -391.6558 
  16   2.0000     -10.363484      -282.0047 
  17   2.0000     -10.349801      -281.6324 
  18   2.0000     -10.348322      -281.5921 
  19   2.0000     -10.347286      -281.5640 
  20   2.0000     -10.345141      -281.5056 
  21   2.0000     -10.345055      -281.5033 
  22   2.0000     -10.336678      -281.2753 
  23   2.0000     -10.335692      -281.2485 
  24   2.0000     -10.332824      -281.1704 
  25   2.0000     -10.331326      -281.1297 
  26   2.0000     -10.331068      -281.1226 
  27   2.0000     -10.330662      -281.1116 
  28   2.0000     -10.329762      -281.0871 
  29   2.0000     -10.329407      -281.0774 
  30   2.0000     -10.329132      -281.0700 
  31   2.0000     -10.328317      -281.0478 
  32   2.0000     -10.327201      -281.0174 
  33   2.0000     -10.325356      -280.9672 
  34   2.0000     -10.323746      -280.9234 
  35   2.0000     -10.318316      -280.7757 
  36   2.0000     -10.318014      -280.7674 
  37   2.0000     -10.314395      -280.6690 
  38   2.0000     -10.313861      -280.6544 
  39   2.0000     -10.311207      -280.5822 
  40   2.0000     -10.307661      -280.4857 
  41   2.0000     -10.306199      -280.4459 
  42   2.0000     -10.306035      -280.4415 
  43   2.0000     -10.305209      -280.4190 
  44   2.0000     -10.304187      -280.3912 
  45   2.0000     -10.302755      -280.3522 
  46   2.0000     -10.302479      -280.3447 
  47   2.0000     -10.302007      -280.3319 
  48   2.0000     -10.301049      -280.3058 
  49   2.0000     -10.298787      -280.2442 
  50   2.0000     -10.296253      -280.1753 
  51   2.0000     -10.295296      -280.1492 
  52   2.0000     -10.293543      -280.1015 
  53   2.0000     -10.290832      -280.0278 
  54   2.0000     -10.289894      -280.0022 
  55   2.0000     -10.289543      -279.9927 
  56   2.0000     -10.289162      -279.9823 
  57   2.0000     -10.283177      -279.8195 
  58   2.0000     -10.281057      -279.7618 
  59   2.0000     -10.276872      -279.6479 
  60   2.0000     -10.276583      -279.6401 
  61   2.0000     -10.275987      -279.6238 
  62   2.0000     -10.273435      -279.5544 
  63   2.0000     -10.272549      -279.5303 
  64   2.0000     -10.272295      -279.5234 
  65   2.0000     -10.271332      -279.4972 
  66   2.0000     -10.269413      -279.4449 
  67   2.0000     -10.267658      -279.3972 
  68   2.0000     -10.267038      -279.3803 
  69   2.0000     -10.266571      -279.3676 
  70   2.0000     -10.266115      -279.3552 
  71   2.0000     -10.265101      -279.3276 
  72   2.0000     -10.264970      -279.3240 
  73   2.0000     -10.262999      -279.2704 
  74   2.0000     -10.262149      -279.2473 
  75   2.0000     -10.245814      -278.8028 
  76   2.0000     -10.243995      -278.7533 
  77   2.0000      -8.090477      -220.1531 
  78   2.0000      -8.090336      -220.1492 
  79   2.0000      -8.090270      -220.1474 
  80   2.0000      -8.089350      -220.1224 
  81   2.0000      -8.084639      -219.9942 
  82   2.0000      -8.076058      -219.7607 
  83   2.0000      -8.075571      -219.7474 
  84   2.0000      -8.073188      -219.6826 
  85   2.0000      -8.071664      -219.6411 
  86   2.0000      -8.051809      -219.1008 
  87   2.0000      -6.060458      -164.9135 
  88   2.0000      -6.059908      -164.8985 
  89   2.0000      -6.059592      -164.8899 
  90   2.0000      -6.058980      -164.8732 
  91   2.0000      -6.056213      -164.7979 
  92   2.0000      -6.055677      -164.7833 
  93   2.0000      -6.055449      -164.7771 
  94   2.0000      -6.054763      -164.7585 
  95   2.0000      -6.053907      -164.7352 
  96   2.0000      -6.052656      -164.7012 
  97   2.0000      -6.051727      -164.6759 
  98   2.0000      -6.051262      -164.6632 
  99   2.0000      -6.050814      -164.6510 
 100   2.0000      -6.049462      -164.6142 
 101   2.0000      -6.047263      -164.5544 
 102   2.0000      -6.046043      -164.5212 
 103   2.0000      -6.045217      -164.4987 
 104   2.0000      -6.042732      -164.4311 
 105   2.0000      -6.041801      -164.4058 
 106   2.0000      -6.041216      -164.3899 
 107   2.0000      -6.040445      -164.3689 
 108   2.0000      -6.038521      -164.3165 
 109   2.0000      -6.037435      -164.2869 
 110   2.0000      -6.037156      -164.2794 
 111   2.0000      -6.036879      -164.2718 
 112   2.0000      -6.034852      -164.2167 
 113   2.0000      -6.033185      -164.1713 
 114   2.0000      -6.021251      -163.8466 
 115   2.0000      -6.016964      -163.7299 
 116   2.0000      -6.013814      -163.6442 
 117   2.0000      -1.051170       -28.6038 
 118   2.0000      -1.044613       -28.4254 
 119   2.0000      -1.033828       -28.1319 
 120   2.0000      -1.022630       -27.8272 
 121   2.0000      -1.018154       -27.7054 
 122   2.0000      -1.008342       -27.4384 
 123   2.0000      -1.003570       -27.3085 
 124   2.0000      -1.001967       -27.2649 
 125   2.0000      -0.998016       -27.1574 
 126   2.0000      -0.993491       -27.0343 
 127   2.0000      -0.986368       -26.8404 
 128   2.0000      -0.984628       -26.7931 
 129   2.0000      -0.981998       -26.7215 
 130   2.0000      -0.976180       -26.5632 
 131   2.0000      -0.971616       -26.4390 
 132   2.0000      -0.959042       -26.0969 
 133   2.0000      -0.951007       -25.8782 
 134   2.0000      -0.948919       -25.8214 
 135   2.0000      -0.934444       -25.4275 
 136   2.0000      -0.928104       -25.2550 
 137   2.0000      -0.910622       -24.7793 
 138   2.0000      -0.910156       -24.7666 
 139   2.0000      -0.906761       -24.6742 
 140   2.0000      -0.896551       -24.3964 
 141   2.0000      -0.889729       -24.2108 
 142   2.0000      -0.883073       -24.0296 
 143   2.0000      -0.880738       -23.9661 
 144   2.0000      -0.870926       -23.6991 
 145   2.0000      -0.867481       -23.6054 
 146   2.0000      -0.861367       -23.4390 
 147   2.0000      -0.854560       -23.2538 
 148   2.0000      -0.844897       -22.9908 
 149   2.0000      -0.840434       -22.8694 
 150   2.0000      -0.836163       -22.7532 
 151   2.0000      -0.835183       -22.7265 
 152   2.0000      -0.833270       -22.6744 
 153   2.0000      -0.827015       -22.5042 
 154   2.0000      -0.824792       -22.4437 
 155   2.0000      -0.813115       -22.1260 
 156   2.0000      -0.804797       -21.8997 
 157   2.0000      -0.794569       -21.6213 
 158   2.0000      -0.784385       -21.3442 
 159   2.0000      -0.777196       -21.1486 
 160   2.0000      -0.768844       -20.9213 
 161   2.0000      -0.759418       -20.6648 
 162   2.0000      -0.747475       -20.3398 
 163   2.0000      -0.737602       -20.0712 
 164   2.0000      -0.727871       -19.8064 
 165   2.0000      -0.725904       -19.7528 
 166   2.0000      -0.713384       -19.4122 
 167   2.0000      -0.706419       -19.2226 
 168   2.0000      -0.701287       -19.0830 
 169   2.0000      -0.697583       -18.9822 
 170   2.0000      -0.693262       -18.8646 
 171   2.0000      -0.691157       -18.8073 
 172   2.0000      -0.680697       -18.5227 
 173   2.0000      -0.677403       -18.4331 
 174   2.0000      -0.673953       -18.3392 
 175   2.0000      -0.673030       -18.3141 
 176   2.0000      -0.664695       -18.0873 
 177   2.0000      -0.660146       -17.9635 
 178   2.0000      -0.658679       -17.9236 
 179   2.0000      -0.656077       -17.8528 
 180   2.0000      -0.650041       -17.6885 
 181   2.0000      -0.646388       -17.5891 
 182   2.0000      -0.634529       -17.2664 
 183   2.0000      -0.633078       -17.2269 
 184   2.0000      -0.631805       -17.1923 
 185   2.0000      -0.625016       -17.0076 
 186   2.0000      -0.621447       -16.9104 
 187   2.0000      -0.615707       -16.7542 
 188   2.0000      -0.614872       -16.7315 
 189   2.0000      -0.592834       -16.1318 
 190   2.0000      -0.591273       -16.0894 
 191   2.0000      -0.583986       -15.8911 
 192   2.0000      -0.578991       -15.7552 
 193   2.0000      -0.572747       -15.5852 
 194   2.0000      -0.566981       -15.4283 
 195   2.0000      -0.563211       -15.3257 
 196   2.0000      -0.561056       -15.2671 
 197   2.0000      -0.554780       -15.0963 
 198   2.0000      -0.550302       -14.9745 
 199   2.0000      -0.545966       -14.8565 
 200   2.0000      -0.545240       -14.8367 
 201   2.0000      -0.541993       -14.7484 
 202   2.0000      -0.535116       -14.5613 
 203   2.0000      -0.533498       -14.5172 
 204   2.0000      -0.532272       -14.4839 
 205   2.0000      -0.531278       -14.4568 
 206   2.0000      -0.527795       -14.3620 
 207   2.0000      -0.524991       -14.2857 
 208   2.0000      -0.521604       -14.1936 
 209   2.0000      -0.519898       -14.1471 
 210   2.0000      -0.517098       -14.0710 
 211   2.0000      -0.516234       -14.0474 
 212   2.0000      -0.515711       -14.0332 
 213   2.0000      -0.514862       -14.0101 
 214   2.0000      -0.511583       -13.9209 
 215   2.0000      -0.509119       -13.8538 
 216   2.0000      -0.505378       -13.7520 
 217   2.0000      -0.503619       -13.7042 
 218   2.0000      -0.500154       -13.6099 
 219   2.0000      -0.499026       -13.5792 
 220   2.0000      -0.497024       -13.5247 
 221   2.0000      -0.493457       -13.4277 
 222   2.0000      -0.491182       -13.3657 
 223   2.0000      -0.487593       -13.2681 
 224   2.0000      -0.483226       -13.1493 
 225   2.0000      -0.478909       -13.0318 
 226   2.0000      -0.477530       -12.9943 
 227   2.0000      -0.476916       -12.9775 
 228   2.0000      -0.474360       -12.9080 
 229   2.0000      -0.472205       -12.8494 
 230   2.0000      -0.469978       -12.7887 
 231   2.0000      -0.468792       -12.7565 
 232   2.0000      -0.465917       -12.6782 
 233   2.0000      -0.463589       -12.6149 
 234   2.0000      -0.461865       -12.5680 
 235   2.0000      -0.461073       -12.5464 
 236   2.0000      -0.459848       -12.5131 
 237   2.0000      -0.457982       -12.4623 
 238   2.0000      -0.456872       -12.4321 
 239   2.0000      -0.453377       -12.3370 
 240   2.0000      -0.452874       -12.3233 
 241   2.0000      -0.451514       -12.2863 
 242   2.0000      -0.450344       -12.2545 
 243   2.0000      -0.448894       -12.2150 
 244   2.0000      -0.447745       -12.1838 
 245   2.0000      -0.443605       -12.0711 
 246   2.0000      -0.441733       -12.0202 
 247   2.0000      -0.439575       -11.9615 
 248   2.0000      -0.437960       -11.9175 
 249   2.0000      -0.436577       -11.8799 
 250   2.0000      -0.436417       -11.8755 
 251   2.0000      -0.435990       -11.8639 
 252   2.0000      -0.435308       -11.8453 
 253   2.0000      -0.432964       -11.7815 
[...]
   1      2.52     492.9   104 -> 105      gap,J,K:    3.509     0.995     0.000
   2      2.74     452.9   104 -> 106      gap,J,K:    4.274     2.557     0.511
   3      3.33     372.0   104 -> 109      gap,J,K:    5.277     2.177     0.116
   4      3.53     351.5   101 -> 106      gap,J,K:    5.453     2.423     0.249
   5      3.60     344.2   104 -> 108      gap,J,K:    5.257     1.800     0.073
   6      3.64     341.1   104 -> 107      gap,J,K:    4.912     1.291     0.008
   7      3.64     340.8   103 -> 105      gap,J,K:    4.309     0.671     0.000
   8      3.66     338.7   101 -> 105      gap,J,K:    4.688     1.032     0.002
   9      3.68     336.9   104 -> 110      gap,J,K:    5.663     2.553     0.285
  10      3.82     324.4   102 -> 106      gap,J,K:    5.199     1.414     0.019
  11      3.83     323.8   102 -> 107      gap,J,K:    5.836     2.768     0.380
  12      3.84     323.2   103 -> 106      gap,J,K:    5.074     1.271     0.017
  13      3.93     315.1    96 -> 105      gap,J,K:    5.761     2.178     0.175
  14      4.11     301.6    98 -> 105      gap,J,K:    5.584     1.504     0.016
  15      4.16     297.9   100 -> 106      gap,J,K:    5.893     2.176     0.223
  16      4.26     291.2   100 -> 105      gap,J,K:    5.128     0.870     0.000
  17      4.39     282.7    93 -> 105      gap,J,K:    5.957     2.949     0.689
  18      4.40     281.6   103 -> 108      gap,J,K:    6.057     2.190     0.268
  19      4.47     277.2    98 -> 106      gap,J,K:    6.348     2.214     0.169
  20      4.50     275.5    90 -> 105      gap,J,K:    6.719     2.924     0.353
  21      4.58     270.9   104 -> 111      gap,J,K:    6.215     1.755     0.058
  22      4.63     268.0    99 -> 105      gap,J,K:    5.343     0.716     0.000
  23      4.70     263.9    91 -> 105      gap,J,K:    6.387     1.800     0.056
  24      4.70     263.6   103 -> 109      gap,J,K:    6.077     1.652     0.139

average / max PT2 energy lowering (eV):       0.050       0.132

CSF included by PT:                   223 
total number of CSF included:         254 
 
sTD-DFT procedure...
setting up A+B and A-B matrices...  done
estimated time (min):    0.001
calculating (A-B)^0.5 ... done
calculating (A+B)*(A-B)^0.5 ... done
calculating (A-B)^0.5 *(A+B)*(A-B)^0.5 ... done
diagonalizing ...using LAPACKE_ssyevr ...done

   38 roots found, lowest/highest eigenvalue :     1.947     4.968

excitation energies, transition moments and amplitudes

molecular weight: 1163.521
state   eV        nm        fL         fV        Rl        RV
   0   1.947     636.8   0.102551   0.122400  -43.759071  -70.169921     0.93 ( 102-> 105)    0.04 (  96-> 105)    0.01 ( 102-> 107)
   1   2.336     530.7   1.057410   1.356719  25.890697  23.722220     0.96 ( 104-> 106)    0.01 ( 104-> 105)    0.01 ( 101-> 106)
   2   2.494     497.1   0.006574   0.008582  -0.064654   1.506086     0.97 ( 104-> 105)    0.01 ( 104-> 106)    0.01 ( 101-> 105)
   3   2.807     441.6   0.014606   0.013925  -28.640525  -1.914353     0.60 ( 104-> 109)    0.28 ( 104-> 108)    0.07 ( 104-> 110)
   4   3.299     375.8   0.241428   0.226444  142.451895  149.167550     0.84 ( 101-> 106)    0.08 ( 104-> 110)    0.02 ( 102-> 107)
   5   3.439     360.5   0.757551   0.744894  544.614075  506.198317     0.74 ( 104-> 110)    0.07 ( 104-> 108)    0.05 ( 101-> 106)
   6   3.518     352.4   0.414845   0.407827  -387.742522  -389.015917     0.31 ( 101-> 105)    0.17 ( 102-> 107)    0.12 ( 104-> 107)
   7   3.546     349.6   0.709284   0.688612  -382.473955  -335.717762     0.57 ( 102-> 107)    0.25 ( 101-> 105)    0.07 (  98-> 105)
   8   3.590     345.4   0.042757   0.040774   4.169906  10.736133     0.73 ( 104-> 107)    0.09 (  96-> 105)    0.03 (  91-> 105)
   9   3.627     341.8   0.004855   0.004291   2.584564  -0.006241     0.85 ( 103-> 105)    0.11 ( 103-> 106)    0.01 (  99-> 106)
  10   3.654     339.3   0.038541   0.033973  26.157181  11.015062     0.64 ( 103-> 106)    0.13 ( 103-> 105)    0.06 (  99-> 106)
  11   3.661     338.7   0.003623   0.002966  -7.226980  -4.370201     0.28 ( 102-> 106)    0.27 (  96-> 105)    0.13 ( 101-> 105)
  12   3.679     337.0   0.025951   0.024678  32.075440  27.172290     0.52 ( 102-> 106)    0.13 (  96-> 105)    0.09 ( 102-> 107)
  13   3.733     332.1   0.004998   0.003802  -1.477204   3.709924     0.53 ( 104-> 108)    0.30 ( 104-> 109)    0.06 ( 103-> 106)
  14   3.866     320.7   0.591685   0.526364  481.301565  319.381143     0.69 ( 100-> 106)    0.13 ( 103-> 108)    0.06 ( 103-> 109)
  15   3.925     315.9   0.689479   0.657459  -189.915452  -197.282061     0.70 (  93-> 105)    0.17 (  96-> 105)    0.04 (  90-> 105)
  16   3.985     311.1   0.641346   0.561465  19.031399  -49.153125     0.53 ( 103-> 108)    0.24 ( 103-> 109)    0.15 ( 100-> 106)
  17   4.064     305.1   0.120239   0.109812  -32.667869  -30.861503     0.55 (  98-> 105)    0.14 ( 101-> 105)    0.07 (  91-> 105)
  18   4.195     295.6   0.514200   0.471818   2.163611  -18.019868     0.51 (  98-> 106)    0.15 ( 101-> 109)    0.08 ( 101-> 108)
  19   4.241     292.3   0.198590   0.177478  21.320979  18.539085     0.71 (  90-> 105)    0.07 (  98-> 106)    0.06 ( 100-> 105)
  20   4.257     291.2   0.014037   0.012520  -9.935045  -9.523558     0.91 ( 100-> 105)    0.04 (  90-> 105)    0.01 (  98-> 105)
  21   4.327     286.5   0.114752   0.114555  38.743368  17.670544     0.28 ( 101-> 109)    0.20 ( 104-> 111)    0.18 (  98-> 106)
  22   4.450     278.6   0.049259   0.046615   7.160473   0.514903     0.60 ( 104-> 111)    0.10 (  98-> 106)    0.06 ( 101-> 109)
  23   4.548     272.6   0.020269   0.018603   3.862348  -0.669316     0.45 (  99-> 106)    0.17 (  95-> 106)    0.13 ( 104-> 113)
  24   4.568     271.4   0.002307   0.002431  -1.946920  -0.528404     0.45 ( 101-> 107)    0.18 (  91-> 105)    0.16 (  98-> 107)
  25   4.623     268.2   0.000860   0.000858   0.181942   0.078192     0.94 (  99-> 105)    0.01 ( 104-> 116)    0.01 (  95-> 105)
  26   4.643     267.0   0.019588   0.019269  17.543243  12.083430     0.34 ( 104-> 116)    0.13 ( 104-> 112)    0.08 (  92-> 106)
  27   4.676     265.2   0.035738   0.031020   2.365229  -2.621818     0.33 (  91-> 105)    0.18 ( 101-> 107)    0.11 (  98-> 105)
  28   4.701     263.8   0.012541   0.010589  -14.483442  -10.366840     0.42 ( 102-> 109)    0.25 ( 102-> 108)    0.09 (  96-> 106)
  29   4.773     259.8   0.018112   0.014378  -1.531617  -0.704514     0.28 ( 103-> 109)    0.17 ( 103-> 110)    0.15 ( 103-> 108)
  30   4.810     257.8   0.079725   0.066577  -42.021909  -30.617373     0.41 (  96-> 106)    0.09 (  92-> 106)    0.08 ( 104-> 111)
  31   4.843     256.0   0.079199   0.068366   9.837132   6.657249     0.32 ( 101-> 110)    0.14 (  92-> 106)    0.10 ( 100-> 109)
  32   4.853     255.5   0.014263   0.010115  -30.633252  -42.210805     0.24 ( 104-> 113)    0.11 (  99-> 106)    0.08 ( 101-> 110)
  33   4.888     253.6   0.107862   0.086011  23.609416  65.837736     0.25 ( 101-> 110)    0.12 ( 104-> 112)    0.10 ( 100-> 108)
  34   4.930     251.5   0.002994   0.002347   2.414496   0.844746     0.87 ( 103-> 107)    0.04 ( 103-> 109)    0.02 ( 103-> 108)
  35   4.946     250.7   0.015792   0.013510   5.922528   3.595577     0.31 (  96-> 107)    0.22 ( 102-> 111)    0.09 ( 102-> 112)
  36   4.960     250.0   0.016892   0.018728  -19.718968  -12.855213     0.34 ( 100-> 109)    0.13 ( 101-> 108)    0.08 ( 101-> 109)
  37   4.968     249.6   0.099780   0.077771  82.139388  50.144338     0.29 ( 100-> 108)    0.13 ( 101-> 108)    0.11 ( 103-> 109)

-----------------------------------------------------------------------------
         ABSORPTION SPECTRUM VIA TRANSITION ELECTRIC DIPOLE MOMENTS
-----------------------------------------------------------------------------
State   Energy  Wavelength   fosc         T2         TX        TY        TZ  
        (cm-1)    (nm)                  (au**2)     (au)      (au)      (au) 
-----------------------------------------------------------------------------
   0   15702.9    636.8   0.102551439   2.14999   1.29381   0.65351   0.22130
   1   18842.8    530.7   1.057409731  18.47453   3.26701   0.61857   2.72370
   2   20114.9    497.1   0.006574238   0.10760   0.17713   0.04696   0.27206
   3   22642.5    441.6   0.014606368   0.21237  -0.37544  -0.14140  -0.22676
   4   26610.2    375.8   0.241427826   2.98686  -1.26536  -0.06894   1.17514
   5   27735.8    360.5   0.757550508   8.99179  -0.91452   0.02977   2.85562
   6   28378.0    352.4   0.414844769   4.81260  -1.46873  -1.37858  -0.86888
   7   28604.4    349.6   0.709284117   8.16325   2.06820   1.78802   0.82994
   8   28954.1    345.4   0.042756668   0.48615   0.43772   0.52648   0.13177
   9   29255.5    341.8   0.004854585   0.05463  -0.07644   0.15545  -0.15691
  10   29474.3    339.3   0.038540776   0.43048   0.35636  -0.28620   0.47072
  11   29524.8    338.7   0.003623012   0.04040  -0.16313  -0.11304  -0.03176
  12   29669.5    337.0   0.025950989   0.28795  -0.46621  -0.17937   0.19604
  13   30109.9    332.1   0.004998250   0.05465   0.19334  -0.06346  -0.11507
  14   31185.2    320.7   0.591685468   6.24623  -0.76229   0.41173  -2.34427
  15   31658.7    315.9   0.689479480   7.16976   1.93361  -1.68532  -0.76851
  16   32139.4    311.1   0.641346109   6.56946   1.32656  -1.04731   1.92687
  17   32780.1    305.1   0.120238808   1.20756   1.06791   0.06700  -0.25027
  18   33831.0    295.6   0.514199504   5.00371  -2.21527  -0.14079   0.27651
  19   34208.2    292.3   0.198590126   1.91119   0.07935  -1.31747  -0.41129
  20   34335.2    291.2   0.014037211   0.13459   0.01339   0.33815   0.14166
  21   34900.1    286.5   0.114751805   1.08245  -1.01797   0.07387  -0.20184
  22   35890.8    278.6   0.049258948   0.45183   0.63085   0.15585   0.17197
  23   36685.8    272.6   0.020268793   0.18189   0.28645   0.04316   0.31300
  24   36847.1    271.4   0.002306620   0.02061  -0.13971  -0.02831  -0.01701
  25   37285.3    268.2   0.000859978   0.00759  -0.06668   0.03964   0.03969
  26   37449.0    267.0   0.019588345   0.17220   0.41496  -0.00085   0.00202
  27   37713.4    265.2   0.035737902   0.31197  -0.42513   0.29661   0.20797
  28   37912.3    263.8   0.012540926   0.10890   0.11175  -0.22246  -0.21662
  29   38495.9    259.8   0.018112229   0.15489   0.25792  -0.19180   0.22712
  30   38796.7    257.8   0.079725096   0.67651  -0.51585  -0.55268  -0.32396
  31   39058.4    256.0   0.079199375   0.66755   0.76951  -0.05119  -0.26977
  32   39146.0    255.5   0.014262594   0.11995   0.09737  -0.04179   0.32973
  33   39424.9    253.6   0.107861725   0.90068   0.62186  -0.01028   0.71684
  34   39766.8    251.5   0.002994426   0.02479  -0.13173   0.04051   0.07614
  35   39891.1    250.7   0.015792258   0.13033   0.33608  -0.10941  -0.07356
  36   40003.8    250.0   0.016891585   0.13901   0.25670   0.10396   0.24961
  37   40067.0    249.6   0.099780076   0.81985  -0.86554   0.24273   0.10848

-----------------------------------------------------------------------------
         ABSORPTION SPECTRUM VIA TRANSITION VELOCITY DIPOLE MOMENTS
-----------------------------------------------------------------------------
State   Energy  Wavelength   fosc         P2         PX        PY        PZ  
        (cm-1)    (nm)                  (au**2)     (au)      (au)      (au) 
-----------------------------------------------------------------------------
   0   15702.9    636.8   0.122400272   0.01314   0.10036   0.05200   0.01897
   1   18842.8    530.7   1.356719093   0.17472   0.31736   0.06135   0.26503
   2   20114.9    497.1   0.008582039   0.00118   0.01909   0.00500   0.02812
   3   22642.5    441.6   0.013925040   0.00215  -0.04273  -0.01054  -0.01478
   4   26610.2    375.8   0.226444456   0.04118  -0.14794  -0.00795   0.13868
   5   27735.8    360.5   0.744894444   0.14120  -0.11618   0.00288   0.35735
   6   28378.0    352.4   0.407827307   0.07910  -0.18588  -0.17924  -0.11144
   7   28604.4    349.6   0.688612190   0.13462   0.26622   0.22974   0.10472
   8   28954.1    345.4   0.040774018   0.00807   0.05620   0.06828   0.01576
   9   29255.5    341.8   0.004290969   0.00086  -0.00797   0.01948  -0.02037
  10   29474.3    339.3   0.033972627   0.00684   0.04239  -0.03775   0.06018
  11   29524.8    338.7   0.002966469   0.00060  -0.02264  -0.00917  -0.00138
  12   29669.5    337.0   0.024677522   0.00500  -0.06137  -0.02500   0.02476
  13   30109.9    332.1   0.003802112   0.00078   0.02227  -0.00531  -0.01607
  14   31185.2    320.7   0.526364006   0.11219  -0.09486   0.05780  -0.31599
  15   31658.7    315.9   0.657459124   0.14226   0.27409  -0.23537  -0.10831
  16   32139.4    311.1   0.561465459   0.12333   0.17887  -0.14689   0.26412
  17   32780.1    305.1   0.109812227   0.02460   0.15242   0.00941  -0.03578
  18   33831.0    295.6   0.471818092   0.10909  -0.32731  -0.01991   0.03956
  19   34208.2    292.3   0.177478199   0.04149   0.01411  -0.19403  -0.06038
  20   34335.2    291.2   0.012519864   0.00294   0.00180   0.04995   0.02096
  21   34900.1    286.5   0.114555243   0.02732  -0.16110   0.00998  -0.03564
  22   35890.8    278.6   0.046614542   0.01143   0.10010   0.02436   0.02864
  23   36685.8    272.6   0.018603021   0.00466   0.04413   0.00870   0.05139
  24   36847.1    271.4   0.002430905   0.00061  -0.02462  -0.00244   0.00014
  25   37285.3    268.2   0.000857541   0.00022  -0.01120   0.00713   0.00651
  26   37449.0    267.0   0.019269409   0.00493   0.06988  -0.00693  -0.00097
  27   37713.4    265.2   0.031019847   0.00800  -0.07133   0.04451   0.03045
  28   37912.3    263.8   0.010589396   0.00274   0.01383  -0.03516  -0.03628
  29   38495.9    259.8   0.014378105   0.00378   0.04055  -0.02892   0.03608
  30   38796.7    257.8   0.066576899   0.01765  -0.08692  -0.08660  -0.05097
  31   39058.4    256.0   0.068366015   0.01825   0.12738  -0.00882  -0.04413
  32   39146.0    255.5   0.010115063   0.00271   0.00708  -0.00390   0.05139
  33   39424.9    253.6   0.086011157   0.02318   0.10593  -0.00442   0.10925
  34   39766.8    251.5   0.002346844   0.00064  -0.02198   0.00608   0.01085
  35   39891.1    250.7   0.013509920   0.00368   0.05637  -0.01931  -0.01152
  36   40003.8    250.0   0.018727749   0.00512   0.05168   0.01547   0.04701
  37   40067.0    249.6   0.077770978   0.02130  -0.14128   0.03494   0.01081

-------------------------------------------------------------------
                             CD SPECTRUM
-------------------------------------------------------------------
State   Energy Wavelength       R         MX        MY        MZ   
        (cm-1)   (nm)       (1e40*cgs)   (au)      (au)      (au)  
-------------------------------------------------------------------
   0   15702.9    636.8    -43.75907  -0.20356  -0.80893   4.41774
   1   18842.8    530.7     25.89070  -7.07183  -1.52473   8.78846
   2   20114.9    497.1     -0.06465  -0.75640  -0.14904   0.51920
   3   22642.5    441.6    -28.64053   0.36557   0.30358  -1.33037
   4   26610.2    375.8    142.45189  -3.90195   0.09239  -4.71037
   5   27735.8    360.5    544.61407 -10.02578  -0.30833  -4.01665
   6   28378.0    352.4    -387.74252   2.39524   1.46469  -8.26590
   7   28604.4    349.6    -382.47395  -1.98034  -2.10888  11.43338
   8   28954.1    345.4      4.16991  -0.14092  -0.62902   2.84704
   9   29255.5    341.8      2.58456   0.81338   0.22791  -0.10055
  10   29474.3    339.3     26.15718  -2.24107  -0.68833   1.04239
  11   29524.8    338.7     -7.22698  -0.07763   0.01124  -0.60665
  12   29669.5    337.0     32.07544  -0.81080   0.17078  -2.46605
  13   30109.9    332.1     -1.47720   0.28214  -0.47967   0.68410
  14   31185.2    320.7    481.30156  10.12799   1.22586  -2.20707
  15   31658.7    315.9    -189.91545   1.50788   2.23023  -2.14527
  16   32139.4    311.1     19.03140 -10.45415  -3.19993   5.41600
  17   32780.1    305.1    -32.66787   0.93192   0.20253   3.47698
  18   33831.0    295.6      2.16361  -1.24652   0.70404  -9.66122
  19   34208.2    292.3     21.32098   0.75349   1.34841  -3.95403
  20   34335.2    291.2     -9.93504  -0.31534  -0.33508   1.12718
  21   34900.1    286.5     38.74337   0.89930  -0.11119  -3.76200
  22   35890.8    278.6      7.16047  -0.70053  -0.75921   3.08129
  23   36685.8    272.6      3.86235  -1.35273  -0.47358   1.25094
  24   36847.1    271.4     -1.94692  -0.01788   0.00644  -0.34938
  25   37285.3    268.2      0.18194  -0.08479   0.07550  -0.23731
  26   37449.0    267.0     17.54324  -0.19316  -1.02214   2.41056
  27   37713.4    265.2      2.36523  -0.44627  -0.62328  -0.07161
  28   37912.3    263.8    -14.48344   0.75353   0.47098  -0.37860
  29   38495.9    259.8     -1.53162  -1.48406  -0.73104   1.09654
  30   38796.7    257.8    -42.02191   0.93415   0.78916  -3.38405
  31   39058.4    256.0      9.83713   1.14819  -0.19818   3.46743
  32   39146.0    255.5    -30.63325  -1.73995  -0.92021   0.79129
  33   39424.9    253.6     23.60942  -3.36694  -0.93666   2.76767
  34   39766.8    251.5      2.41450  -0.23900   0.13692  -0.62089
  35   39891.1    250.7      5.92253   0.32943   0.03368   1.79665
  36   40003.8    250.0    -19.71897  -1.00574   0.60112   1.11909
  37   40067.0    249.6     82.13939   0.43868   1.86277  -3.87995

sTD-DFT done

Total run time:        4.123 sec

           *** ORCA-CIS/TD-DFT FINISHED WITHOUT ERROR ***

-------------------------   --------------------
FINAL SINGLE POINT ENERGY     -6645.806680407008
-------------------------   --------------------


                            ***************************************
                            *     ORCA property calculations      *
                            ***************************************

                                    ---------------------
                                    Active property flags
                                    ---------------------
   (+) Dipole Moment


------------------------------------------------------------------------------
                       ORCA ELECTRIC PROPERTIES CALCULATION
------------------------------------------------------------------------------

Dipole Moment Calculation                       ... on
Quadrupole Moment Calculation                   ... off
Polarizability Calculation                      ... off
GBWName                                         ... xtbopt.gbw
Electron density file                           ... xtbopt.scfp
The origin for moment calculation is the CENTER OF MASS  = (-8.924991, 24.836267 11.221547)

-------------
DIPOLE MOMENT
-------------
                                X             Y             Z
Electronic contribution:   -104.71982       6.00894    -138.46932
Nuclear contribution   :    101.27989      -2.54492     140.81123
                        -----------------------------------------
Total Dipole Moment    :     -3.43992       3.46401       2.34191
                        -----------------------------------------
Magnitude (a.u.)       :      5.41452
Magnitude (Debye)      :     13.76261



--------------------
Rotational spectrum 
--------------------
 
Rotational constants in cm-1:     0.000820     0.000192     0.000167 
Rotational constants in MHz :    24.585234     5.747072     5.020697 

 Dipole components along the rotational axes: 
x,y,z [a.u.] :     0.505135     3.011875    -4.471068 
x,y,z [Debye]:     1.283950     7.655578   -11.364551 

 

Timings for individual modules:

Sum of individual times         ...      629.594 sec (=  10.493 min)
GTO integral calculation        ...        3.242 sec (=   0.054 min)   0.5 %
SCF iterations                  ...      621.505 sec (=  10.358 min)  98.7 %
CIS module                      ...        4.847 sec (=   0.081 min)   0.8 %
                             ****ORCA TERMINATED NORMALLY****
TOTAL RUN TIME: 0 days 0 hours 10 minutes 30 seconds 670 msec
