
                                 *****************
                                 * O   R   C   A *
                                 *****************

           --- An Ab Initio, DFT and Semiempirical electronic structure package ---

                  #######################################################
                  #                        -***-                        #
                  #          Department of theory and spectroscopy      #
                  #               Directorship: Frank Neese             #
                  #        Max Planck Institute fuer Kohlenforschung    #
                  #                Kaiser Wilhelm Platz 1               #
                  #                 D-45470 Muelheim/Ruhr               #
                  #                      Germany                        #
                  #                                                     #
                  #                  All rights reserved                #
                  #                        -***-                        #
                  #######################################################


                         Program Version 4.2.0 -  RELEASE  -


 With contributions from (in alphabetic order):
   Daniel Aravena         : Magnetic Suceptibility
   Michael Atanasov       : Ab Initio Ligand Field Theory (pilot matlab implementation)
   Alexander A. Auer      : GIAO ZORA, VPT2
   Ute Becker             : Parallelization
   Giovanni Bistoni       : ED, misc. LED, open-shell LED, HFLED
   Martin Brehm           : Molecular dynamics
   Dmytro Bykov           : SCF Hessian
   Vijay G. Chilkuri      : MRCI spin determinant printing, contributions to CSF-ICE
   Dipayan Datta          : RHF DLPNO-CCSD density
   Achintya Kumar Dutta   : EOM-CC, STEOM-CC
   Dmitry Ganyushin       : Spin-Orbit,Spin-Spin,Magnetic field MRCI
   Miquel Garcia          : C-PCM Hessian, Gaussian charge scheme
   Yang Guo               : DLPNO-NEVPT2, CIM, IAO-localization
   Andreas Hansen         : Spin unrestricted coupled pair/coupled cluster methods
   Benjamin Helmich-Paris : CASSCF linear response (MC-RPA)
   Lee Huntington         : MR-EOM, pCC
   Robert Izsak           : Overlap fitted RIJCOSX, COSX-SCS-MP3, EOM
   Christian Kollmar      : KDIIS, OOCD, Brueckner-CCSD(T), CCSD density
   Simone Kossmann        : Meta GGA functionals, TD-DFT gradient, OOMP2, MP2 Hessian
   Martin Krupicka        : AUTO-CI
   Lucas Lang             : DCDCAS
   Dagmar Lenk            : GEPOL surface, SMD
   Dimitrios Liakos       : Extrapolation schemes; Compound Job, initial MDCI parallelization
   Dimitrios Manganas     : Further ROCIS development; embedding schemes
   Dimitrios Pantazis     : SARC Basis sets
   Taras Petrenko         : DFT Hessian,TD-DFT gradient, ASA, ECA, R-Raman, ABS, FL, XAS/XES, NRVS
   Peter Pinski           : DLPNO-MP2, DLPNO-MP2 Gradient
   Christoph Reimann      : Effective Core Potentials
   Marius Retegan         : Local ZFS, SOC
   Christoph Riplinger    : Optimizer, TS searches, QM/MM, DLPNO-CCSD(T), (RO)-DLPNO pert. Triples
   Tobias Risthaus        : Range-separated hybrids, TD-DFT gradient, RPA, STAB
   Michael Roemelt        : Original ROCIS implementation
   Masaaki Saitow         : Open-shell DLPNO-CCSD energy and density
   Barbara Sandhoefer     : DKH picture change effects
   Avijit Sen             : IP-ROCIS
   Kantharuban Sivalingam : CASSCF convergence, NEVPT2, FIC-MRCI
   Bernardo de Souza      : ESD, SOC TD-DFT
   Georgi Stoychev        : AutoAux, RI-MP2 NMR
   Willem Van den Heuvel  : Paramagnetic NMR
   Boris Wezisla          : Elementary symmetry handling
   Frank Wennmohs         : Technical directorship


 We gratefully acknowledge several colleagues who have allowed us to
 interface, adapt or use parts of their codes:
   Stefan Grimme, W. Hujo, H. Kruse,             : VdW corrections, initial TS optimization,
                  C. Bannwarth                     DFT functionals, gCP, sTDA/sTD-DF
   Ed Valeev, F. Pavosevic, A. Kumar             : LibInt (2-el integral package), F12 methods
   Garnet Chan, S. Sharma, J. Yang, R. Olivares  : DMRG
   Ulf Ekstrom                                   : XCFun DFT Library
   Mihaly Kallay                                 : mrcc  (arbitrary order and MRCC methods)
   Andreas Klamt, Michael Diedenhofen            : otool_cosmo (COSMO solvation model)
   Jiri Pittner, Ondrej Demel                    : Mk-CCSD
   Frank Weinhold                                : gennbo (NPA and NBO analysis)
   Christopher J. Cramer and Donald G. Truhlar   : smd solvation model
   Lars Goerigk                                  : TD-DFT with DH, B97 family of functionals
   V. Asgeirsson, H. Jonsson                     : NEB implementation
   FAccTs GmbH                                   : IRC, NEB, NEB-TS, Multilevel, MM, QM/MM, CI optimization
   S Lehtola, MJT Oliveira, MAL Marques          : LibXC Library


 Your calculation uses the libint2 library for the computation of 2-el integrals
 For citations please refer to: http://libint.valeyev.net

 Your ORCA version has been built with support for libXC version: 4.2.3
 For citations please refer to: https://tddft.org/programs/libxc/

 This ORCA versions uses:
   CBLAS   interface :  Fast vector & matrix operations
   LAPACKE interface :  Fast linear algebra routines
   SCALAPACK package :  Parallel linear algebra routines


XCFun DFT library Copyright 2009-2010 Ulf Ekstrom and contributors.
See http://admol.org/xcfun for more information. This is free soft-
ware; see the source code for copying conditions. There is ABSOLUTELY
NO WARRANTY; not even for MERCHANTABILITY or FITNESS FOR A PARTICULAR
PURPOSE. For details see the documentation. Scientific users of this 
library should cite U. Ekstrom, L. Visscher, R. Bast, A. J. Thorvald-
sen and K. Ruud; J.Chem.Theor.Comp. 2010, DOI: 10.1021/ct100117s
XCFun Version 0.99 
----- Orbital basis set information -----
Your calculation utilizes the basis: def2-SVP
   F. Weigend and R. Ahlrichs, Phys. Chem. Chem. Phys. 7, 3297 (2005).

----- AuxJ basis set information -----
Your calculation utilizes the auxiliary basis: def2/J
   F. Weigend, Phys. Chem. Chem. Phys. 8, 1057 (2006).

================================================================================
                                        WARNINGS
                       Please study these warnings very carefully!
================================================================================

INFO   : Checking CIS options ...

WARNING: CIS/ROCIS methods need fully converged wavefunctions
  ===> : Setting SCFConvForced true
         You can overwrite this default with %scf ConvForced false 


INFO   : the flag for use of LIBINT has been found!

================================================================================
                                       INPUT FILE
================================================================================
NAME = xtbopt.inp
|  1> # ORCA input file
|  2> # SCF done       -186.282903525354          0.000408973624
|  3> ! CAM-B3LYP def2-SVP def2/J RIJCOSX Grid4 TightSCF
|  4> %maxcore 5000
|  5> %tddft
|  6>     Mode sTDDFT
|  7>     Ethresh 5.0
|  8>     maxcore 5000
|  9> end
| 10> 
| 11> %pal
| 12>   nprocs 6
| 13>   end
| 14> * xyz 0 1
| 15>    C       13.44594       -11.34333         1.62617
| 16>    C       13.28115       -10.41638         0.67376
| 17>    C       14.28612        -9.84748        -0.17998
| 18>    C       13.82312        -8.92924        -1.05407
| 19>    C       12.42069        -8.69062        -0.97063
| 20>    S       11.71146        -9.69571         0.28224
| 21>    C       11.67766        -7.82138        -1.72484
| 22>    C       12.13137        -6.96297        -2.76328
| 23>    C       11.15545        -6.21367        -3.32486
| 24>    C        9.84938        -6.41841        -2.77837
| 25>    S        9.94906        -7.62129        -1.49223
| 26>    C        8.72528        -5.81454        -3.24438
| 27>    C        7.37267        -5.92614        -2.75966
| 28>    C        7.10964        -6.22797        -1.41279
| 29>    C        5.83505        -6.26217        -0.89232
| 30>    C        4.73626        -5.99268        -1.69918
| 31>    C        4.96029        -5.70640        -3.02598
| 32>    C        6.25089        -5.68230        -3.56608
| 33>    N        6.16258        -5.41606        -4.93214
| 34>    C        7.20702        -5.49046        -5.91969
| 35>    C        4.86504        -5.24903        -5.32874
| 36>    O        4.51573        -5.04020        -6.47008
| 37>    C        3.97052        -5.41531        -4.10754
| 38>    C        2.99036        -6.57834        -4.37096
| 39>    C        3.76944        -7.74020        -4.99676
| 40>    O        4.70783        -8.33183        -4.51313
| 41>    N        3.24055        -7.97965        -6.23074
| 42>    C        3.78070        -8.94421        -7.15018
| 43>    C        2.19971        -7.10979        -6.51758
| 44>    C        1.43958        -7.02097        -7.66097
| 45>    C        0.44115        -6.03570        -7.73110
| 46>    C        0.23225        -5.19088        -6.63472
| 47>    C        0.99880        -5.29627        -5.48609
| 48>    C        1.98574        -6.25593        -5.42856
| 49>    C       -0.32260        -5.93628        -8.94889
| 50>    C       -1.21636        -4.97988        -9.28245
| 51>    C       -1.90003        -4.95599       -10.52282
| 52>    S       -1.69387        -6.20413       -11.73276
| 53>    C       -2.78998        -5.44780       -12.86807
| 54>    C       -3.28969        -4.26226       -12.29879
| 55>    C       -2.78755        -4.00861       -10.99849
| 56>    S       -3.41422        -2.54086       -10.31955
| 57>    C       -4.35442        -2.24930       -11.77304
| 58>    C       -5.16208        -1.03182       -11.78486
| 59>    O       -5.16155        -0.29220       -10.82392
| 60>    C       -5.96523        -0.77107       -13.03966
| 61>    C       -6.75575         0.52514       -12.93842
| 62>    C       -4.17423        -3.24279       -12.70350
| 63>    F       -4.78127        -3.25484       -13.90108
| 64>    C       -3.08690        -5.97149       -14.12310
| 65>    C       -2.59082        -7.13820       -14.66449
| 66>    C       -2.89051        -7.66602       -15.94218
| 67>    C       -2.25984        -8.84073       -16.22910
| 68>    C       -1.42782        -9.30542       -15.18829
| 69>    S       -1.47305        -8.19533       -13.83305
| 70>    C       -0.65052       -10.44448       -15.13104
| 71>    C       -0.46817       -11.45313       -16.10419
| 72>    C        0.37648       -12.44577       -15.71889
| 73>    C        0.91929       -12.29065       -14.41025
| 74>    S        0.29426       -10.80763       -13.70325
| 75>    C        1.78451       -13.15934       -13.81414
| 76>    C        2.36526       -13.08438       -12.51282
| 77>    C        3.24374       -14.03871       -12.04979
| 78>    F        3.65351       -15.11104       -12.73016
| 79>    S        3.83802       -13.77921       -10.44842
| 80>    C        2.87325       -12.33529       -10.38850
| 81>    F        2.88995       -11.58872        -9.28466
| 82>    C        2.16365       -12.08557       -11.50644
| 83>    H       14.41910       -11.75422         1.82958
| 84>    H       12.62157       -11.70419         2.21327
| 85>    H       15.31324       -10.15632        -0.09693
| 86>    H       14.43731        -8.40524        -1.76513
| 87>    H       13.16437        -6.93443        -3.06098
| 88>    H       11.31314        -5.51138        -4.12519
| 89>    H        8.88226        -5.14603        -4.07771
| 90>    H        7.94453        -6.40171        -0.75350
| 91>    H        5.69200        -6.49220         0.15217
| 92>    H        3.73479        -6.00995        -1.29668
| 93>    H        7.82209        -6.37509        -5.75467
| 94>    H        7.82882        -4.59241        -5.91465
| 95>    H        6.71570        -5.56059        -6.89189
| 96>    H        3.39765        -4.50267        -3.92025
| 97>    H        2.53723        -6.88406        -3.42423
| 98>    H        4.60372        -9.45012        -6.64713
| 99>    H        4.15265        -8.44497        -8.04704
|100>    H        3.02303        -9.67623        -7.43326
|101>    H        1.61145        -7.67719        -8.50000
|102>    H       -0.54069        -4.44070        -6.68064
|103>    H        0.82420        -4.63149        -4.65299
|104>    H       -0.12935        -6.71253        -9.68084
|105>    H       -1.44868        -4.15836        -8.61938
|106>    H       -6.63587        -1.61880       -13.20192
|107>    H       -5.27784        -0.73683       -13.88881
|108>    H       -7.44584         0.47936       -12.09976
|109>    H       -7.31936         0.69829       -13.85156
|110>    H       -6.08264         1.36270       -12.77362
|111>    H       -3.77713        -5.40331       -14.73252
|112>    H       -3.56390        -7.15897       -16.61066
|113>    H       -2.37239        -9.37954       -17.15273
|114>    H       -0.96448       -11.41470       -17.05737
|115>    H        0.63522       -13.29474       -16.32650
|116>    H        2.07588       -14.02399       -14.39620
|117>    H        1.52213       -11.23282       -11.61437
|118> *
|119> 
|120>                          ****END OF INPUT****
================================================================================

                       ****************************
                       * Single Point Calculation *
                       ****************************

---------------------------------
CARTESIAN COORDINATES (ANGSTROEM)
---------------------------------
  C     13.445940  -11.343330    1.626170
  C     13.281150  -10.416380    0.673760
  C     14.286120   -9.847480   -0.179980
  C     13.823120   -8.929240   -1.054070
  C     12.420690   -8.690620   -0.970630
  S     11.711460   -9.695710    0.282240
  C     11.677660   -7.821380   -1.724840
  C     12.131370   -6.962970   -2.763280
  C     11.155450   -6.213670   -3.324860
  C      9.849380   -6.418410   -2.778370
  S      9.949060   -7.621290   -1.492230
  C      8.725280   -5.814540   -3.244380
  C      7.372670   -5.926140   -2.759660
  C      7.109640   -6.227970   -1.412790
  C      5.835050   -6.262170   -0.892320
  C      4.736260   -5.992680   -1.699180
  C      4.960290   -5.706400   -3.025980
  C      6.250890   -5.682300   -3.566080
  N      6.162580   -5.416060   -4.932140
  C      7.207020   -5.490460   -5.919690
  C      4.865040   -5.249030   -5.328740
  O      4.515730   -5.040200   -6.470080
  C      3.970520   -5.415310   -4.107540
  C      2.990360   -6.578340   -4.370960
  C      3.769440   -7.740200   -4.996760
  O      4.707830   -8.331830   -4.513130
  N      3.240550   -7.979650   -6.230740
  C      3.780700   -8.944210   -7.150180
  C      2.199710   -7.109790   -6.517580
  C      1.439580   -7.020970   -7.660970
  C      0.441150   -6.035700   -7.731100
  C      0.232250   -5.190880   -6.634720
  C      0.998800   -5.296270   -5.486090
  C      1.985740   -6.255930   -5.428560
  C     -0.322600   -5.936280   -8.948890
  C     -1.216360   -4.979880   -9.282450
  C     -1.900030   -4.955990  -10.522820
  S     -1.693870   -6.204130  -11.732760
  C     -2.789980   -5.447800  -12.868070
  C     -3.289690   -4.262260  -12.298790
  C     -2.787550   -4.008610  -10.998490
  S     -3.414220   -2.540860  -10.319550
  C     -4.354420   -2.249300  -11.773040
  C     -5.162080   -1.031820  -11.784860
  O     -5.161550   -0.292200  -10.823920
  C     -5.965230   -0.771070  -13.039660
  C     -6.755750    0.525140  -12.938420
  C     -4.174230   -3.242790  -12.703500
  F     -4.781270   -3.254840  -13.901080
  C     -3.086900   -5.971490  -14.123100
  C     -2.590820   -7.138200  -14.664490
  C     -2.890510   -7.666020  -15.942180
  C     -2.259840   -8.840730  -16.229100
  C     -1.427820   -9.305420  -15.188290
  S     -1.473050   -8.195330  -13.833050
  C     -0.650520  -10.444480  -15.131040
  C     -0.468170  -11.453130  -16.104190
  C      0.376480  -12.445770  -15.718890
  C      0.919290  -12.290650  -14.410250
  S      0.294260  -10.807630  -13.703250
  C      1.784510  -13.159340  -13.814140
  C      2.365260  -13.084380  -12.512820
  C      3.243740  -14.038710  -12.049790
  F      3.653510  -15.111040  -12.730160
  S      3.838020  -13.779210  -10.448420
  C      2.873250  -12.335290  -10.388500
  F      2.889950  -11.588720   -9.284660
  C      2.163650  -12.085570  -11.506440
  H     14.419100  -11.754220    1.829580
  H     12.621570  -11.704190    2.213270
  H     15.313240  -10.156320   -0.096930
  H     14.437310   -8.405240   -1.765130
  H     13.164370   -6.934430   -3.060980
  H     11.313140   -5.511380   -4.125190
  H      8.882260   -5.146030   -4.077710
  H      7.944530   -6.401710   -0.753500
  H      5.692000   -6.492200    0.152170
  H      3.734790   -6.009950   -1.296680
  H      7.822090   -6.375090   -5.754670
  H      7.828820   -4.592410   -5.914650
  H      6.715700   -5.560590   -6.891890
  H      3.397650   -4.502670   -3.920250
  H      2.537230   -6.884060   -3.424230
  H      4.603720   -9.450120   -6.647130
  H      4.152650   -8.444970   -8.047040
  H      3.023030   -9.676230   -7.433260
  H      1.611450   -7.677190   -8.500000
  H     -0.540690   -4.440700   -6.680640
  H      0.824200   -4.631490   -4.652990
  H     -0.129350   -6.712530   -9.680840
  H     -1.448680   -4.158360   -8.619380
  H     -6.635870   -1.618800  -13.201920
  H     -5.277840   -0.736830  -13.888810
  H     -7.445840    0.479360  -12.099760
  H     -7.319360    0.698290  -13.851560
  H     -6.082640    1.362700  -12.773620
  H     -3.777130   -5.403310  -14.732520
  H     -3.563900   -7.158970  -16.610660
  H     -2.372390   -9.379540  -17.152730
  H     -0.964480  -11.414700  -17.057370
  H      0.635220  -13.294740  -16.326500
  H      2.075880  -14.023990  -14.396200
  H      1.522130  -11.232820  -11.614370

----------------------------
CARTESIAN COORDINATES (A.U.)
----------------------------
  NO LB      ZA    FRAG     MASS         X           Y           Z
   0 C     6.0000    0    12.011   25.409144  -21.435787    3.073016
   1 C     6.0000    0    12.011   25.097736  -19.684106    1.273222
   2 C     6.0000    0    12.011   26.996854  -18.609040   -0.340113
   3 C     6.0000    0    12.011   26.121911  -16.873818   -1.991904
   4 C     6.0000    0    12.011   23.471702  -16.422892   -1.834225
   5 S    16.0000    0    32.060   22.131452  -18.322237    0.533356
   6 C     6.0000    0    12.011   22.067579  -14.780266   -3.259475
   7 C     6.0000    0    12.011   22.924967  -13.158106   -5.221842
   8 C     6.0000    0    12.011   21.080745  -11.742135   -6.283075
   9 C     6.0000    0    12.011   18.612631  -12.129037   -5.250358
  10 S    16.0000    0    32.060   18.800999  -14.402151   -2.819906
  11 C     6.0000    0    12.011   16.488390  -10.987888   -6.130990
  12 C     6.0000    0    12.011   13.932327  -11.198782   -5.215002
  13 C     6.0000    0    12.011   13.435273  -11.769158   -2.669786
  14 C     6.0000    0    12.011   11.026646  -11.833786   -1.686240
  15 C     6.0000    0    12.011    8.950234  -11.324524   -3.210985
  16 C     6.0000    0    12.011    9.373590  -10.783533   -5.718273
  17 C     6.0000    0    12.011   11.812470  -10.737991   -6.738915
  18 N     7.0000    0    14.007   11.645588  -10.234870   -9.320394
  19 C     6.0000    0    12.011   13.619294  -10.375466  -11.186593
  20 C     6.0000    0    12.011    9.193593   -9.919229  -10.069859
  21 O     8.0000    0    15.999    8.533493   -9.524598  -12.226679
  22 C     6.0000    0    12.011    7.503195  -10.233453   -7.762126
  23 C     6.0000    0    12.011    5.650961  -12.431261   -8.259917
  24 C     6.0000    0    12.011    7.123209  -14.626858   -9.442508
  25 O     8.0000    0    15.999    8.896509  -15.744877   -8.528580
  26 N     7.0000    0    14.007    6.123752  -15.079353  -11.774392
  27 C     6.0000    0    12.011    7.144488  -16.902107  -13.511882
  28 C     6.0000    0    12.011    4.156849  -13.435556  -12.316441
  29 C     6.0000    0    12.011    2.720412  -13.267710  -14.477135
  30 C     6.0000    0    12.011    0.833653  -11.405820  -14.609662
  31 C     6.0000    0    12.011    0.438889   -9.809342  -12.537804
  32 C     6.0000    0    12.011    1.887458  -10.008500  -10.367208
  33 C     6.0000    0    12.011    3.752505  -11.821994  -10.258492
  34 C     6.0000    0    12.011   -0.609626  -11.217943  -16.910951
  35 C     6.0000    0    12.011   -2.298587   -9.410609  -17.541288
  36 C     6.0000    0    12.011   -3.590536   -9.365464  -19.885248
  37 S    16.0000    0    32.060   -3.200950  -11.724107  -22.171703
  38 C     6.0000    0    12.011   -5.272298  -10.294850  -24.317128
  39 C     6.0000    0    12.011   -6.216613   -8.054504  -23.241345
  40 C     6.0000    0    12.011   -5.267706   -7.575175  -20.784134
  41 S    16.0000    0    32.060   -6.451941   -4.801530  -19.501123
  42 C     6.0000    0    12.011   -8.228661   -4.250561  -22.247821
  43 C     6.0000    0    12.011   -9.754917   -1.949857  -22.270158
  44 O     8.0000    0    15.999   -9.753916   -0.552178  -20.454244
  45 C     6.0000    0    12.011  -11.272651   -1.457111  -24.641386
  46 C     6.0000    0    12.011  -12.766517    0.992371  -24.450070
  47 C     6.0000    0    12.011   -7.888152   -6.127985  -24.006136
  48 F     9.0000    0    18.998   -9.035291   -6.150756  -26.269234
  49 C     6.0000    0    12.011   -5.833396  -11.284481  -26.688791
  50 C     6.0000    0    12.011   -4.895940  -13.489243  -27.711870
  51 C     6.0000    0    12.011   -5.462272  -14.486678  -30.126354
  52 C     6.0000    0    12.011   -4.270479  -16.706559  -30.668554
  53 C     6.0000    0    12.011   -2.698189  -17.584695  -28.701709
  54 S    16.0000    0    32.060   -2.783661  -15.486929  -26.140676
  55 C     6.0000    0    12.011   -1.229305  -19.737207  -28.593522
  56 C     6.0000    0    12.011   -0.884713  -21.643279  -30.432509
  57 C     6.0000    0    12.011    0.711444  -23.519097  -29.704397
  58 C     6.0000    0    12.011    1.737206  -23.225963  -27.231426
  59 S    16.0000    0    32.060    0.556071  -20.423461  -25.895390
  60 C     6.0000    0    12.011    3.372235  -24.867549  -26.104941
  61 C     6.0000    0    12.011    4.469694  -24.725895  -23.645803
  62 C     6.0000    0    12.011    6.129780  -26.529317  -22.770803
  63 F     9.0000    0    18.998    6.904133  -28.555727  -24.056516
  64 S    16.0000    0    32.060    7.252807  -26.038933  -19.744652
  65 C     6.0000    0    12.011    5.429656  -23.310320  -19.631420
  66 F     9.0000    0    18.998    5.461214  -21.899507  -17.545465
  67 C     6.0000    0    12.011    4.088706  -22.838417  -21.744020
  68 H     1.0000    0     1.008   27.248150  -22.212257    3.457405
  69 H     1.0000    0     1.008   23.851311  -22.117714    4.182474
  70 H     1.0000    0     1.008   28.937830  -19.192663   -0.183171
  71 H     1.0000    0     1.008   27.282562  -15.883602   -3.335612
  72 H     1.0000    0     1.008   24.877054  -13.104174   -5.784414
  73 H     1.0000    0     1.008   21.378736  -10.414999   -7.795479
  74 H     1.0000    0     1.008   16.785039   -9.724587   -7.705755
  75 H     1.0000    0     1.008   15.012986  -12.097479   -1.423909
  76 H     1.0000    0     1.008   10.756321  -12.268480    0.287560
  77 H     1.0000    0     1.008    7.057730  -11.357160   -2.450370
  78 H     1.0000    0     1.008   14.781608  -12.047174  -10.874750
  79 H     1.0000    0     1.008   14.794326   -8.678397  -11.177069
  80 H     1.0000    0     1.008   12.690834  -10.507992  -13.023785
  81 H     1.0000    0     1.008    6.420628   -8.508813   -7.408199
  82 H     1.0000    0     1.008    4.794670  -13.008988   -6.470857
  83 H     1.0000    0     1.008    8.699770  -17.858139  -12.561255
  84 H     1.0000    0     1.008    7.847371  -15.958681  -15.206702
  85 H     1.0000    0     1.008    5.712699  -18.285425  -14.046826
  86 H     1.0000    0     1.008    3.045199  -14.507787  -16.062672
  87 H     1.0000    0     1.008   -1.021756   -8.391707  -12.624580
  88 H     1.0000    0     1.008    1.557512   -8.752248   -8.792877
  89 H     1.0000    0     1.008   -0.244436  -12.684843  -18.294136
  90 H     1.0000    0     1.008   -2.737608   -7.858162  -16.288268
  91 H     1.0000    0     1.008  -12.539977   -3.059089  -24.948013
  92 H     1.0000    0     1.008   -9.973672   -1.392407  -26.246047
  93 H     1.0000    0     1.008  -14.070598    0.905859  -22.865233
  94 H     1.0000    0     1.008  -13.831586    1.319577  -26.175655
  95 H     1.0000    0     1.008  -11.494524    2.575130  -24.138644
  96 H     1.0000    0     1.008   -7.137741  -10.210776  -27.840428
  97 H     1.0000    0     1.008   -6.734795  -13.528493  -31.389598
  98 H     1.0000    0     1.008   -4.483167  -17.724762  -32.413962
  99 H     1.0000    0     1.008   -1.822603  -21.570657  -32.233758
 100 H     1.0000    0     1.008    1.200392  -25.123418  -30.852614
 101 H     1.0000    0     1.008    3.922845  -26.501500  -27.204875
 102 H     1.0000    0     1.008    2.876409  -21.226954  -21.947979

--------------------------------
INTERNAL COORDINATES (ANGSTROEM)
--------------------------------
 C      0   0   0     0.000000000000     0.00000000     0.00000000
 C      1   0   0     1.339207547283     0.00000000     0.00000000
 C      2   1   0     1.436135055801   127.65121463     0.00000000
 C      3   2   1     1.349654409729   114.48496400   179.88733192
 C      4   3   2     1.425030400693   114.43200605     0.00000000
 S      5   4   3     1.755817854420   110.08735794     0.03571676
 C      5   4   3     1.369855642978   127.43268636   180.02073328
 C      7   5   4     1.421646273093   127.74938061     0.19882733
 C      8   7   5     1.352494891968   114.04986215   180.17490675
 C      9   8   7     1.430520406216   114.89027724   359.93213445
 S      7   5   4     1.755619941844   122.23808678   180.74418961
 C     10   9   8     1.358464245757   124.11250958   183.34699827
 C     12  10   9     1.441166836456   128.81668373   181.27033874
 C     13  12  10     1.405113848306   120.97894821    27.58929030
 C     14  13  12     1.377184929122   122.74094750   175.88340577
 C     15  14  13     1.389599720711   120.50171766     0.00000000
 C     16  15  14     1.375697611868   118.13774441     0.63662696
 C     17  16  15     1.399263084627   121.73932038     0.00000000
 N     18  17  16     1.394561693616   108.84332163   177.75891347
 C     19  18  17     1.439321116395   128.04494897   189.91239065
 C     19  18  17     1.367040830590   111.56878451     0.52379636
 O     21  19  18     1.211727873988   124.60661305   181.86115295
 C     17  16  15     1.494707354167   129.09181692   178.42352874
 C     23  17  16     1.543613456439   113.40463983   299.07038929
 C     24  23  17     1.532484892585   108.54849958   291.23748020
 O     25  24  23     1.210165206036   126.98895463    59.56303318
 N     25  24  23     1.363732955897   107.78594264   241.13481999
 C     27  25  24     1.437883141879   123.41480981   175.59499507
 C     27  25  24     1.386463670927   111.60388667     0.39393807
 C     29  27  25     1.375873286825   128.84226295   178.67768346
 C     30  29  27     1.404470595883   118.65481541   180.93961417
 C     31  30  29     1.399788965094   119.36522775   358.93315355
 C     32  31  30     1.384939288020   121.40436186     0.68205415
 C     33  32  31     1.377790833218   118.95419185   359.97026407
 C     31  30  29     1.440906271414   117.86654670   178.49839710
 C     35  31  30     1.350840542477   127.46239406   187.89183799
 C     36  35  31     1.416507373048   123.19550024   178.68166226
 S     37  36  35     1.750517126109   122.43730190     2.20034364
 C     38  37  36     1.749977427597    93.81229740   180.84037727
 C     39  38  37     1.406874157165   108.91484025   359.91997095
 C     37  36  35     1.382563764786   128.51011338   182.95482058
 S     41  37  36     1.734348544843   132.62280640   359.52633837
 C     42  41  37     1.755453347059    90.57022234   179.40980821
 C     43  42  41     1.461065343645   116.17814980   180.24920210
 O     44  43  42     1.212618533959   120.10568690   359.69853149
 C     44  43  42     1.512469346797   116.35368306   179.53022818
 C     46  44  43     1.521621428641   111.56393611   180.37687084
 C     43  42  41     1.373042835384   111.75456708     0.07415664
 F     48  43  42     1.342699005921   123.47568592   180.01730961
 C     39  38  37     1.391945761659   123.77613573   179.80961897
 C     50  39  38     1.378553851904   126.56577696     0.34530302
 C     51  50  39     1.414531648497   126.46206943   180.23629641
 C     52  51  50     1.363822319586   114.42205291   179.99419304
 C     53  52  51     1.411197906957   113.64730312     0.11347858
 S     51  50  39     1.748778454636   123.70352544     0.31520883
 C     54  53  52     1.380192209839   129.37507832   179.85432039
 C     56  54  53     1.413381501046   129.27648923     0.49139442
 C     57  56  54     1.359126146500   113.96628492   179.94594040
 C     58  57  56     1.425217022106   114.67707644     0.10901917
 S     56  54  53     1.750163265241   120.60405538   180.47940708
 C     59  58  57     1.363295674680   125.01935963   179.93659931
 C     61  59  58     1.426998005079   128.57669194   180.44386127
 C     62  61  59     1.377268906278   121.98998902   180.79257124
 F     63  62  61     1.334431121752   125.53994556     0.23672838
 S     63  62  61     1.727684822327   115.27348926   180.16374611
 C     65  63  62     1.737606550891    88.03967175     0.06162083
 F     66  65  63     1.332707169824   119.15100700   179.91474176
 C     66  65  63     1.347472479125   114.69475233   359.93541329
 H      1   2   3     1.075753970850   120.67473006     0.00000000
 H      1   2   3     1.074473008735   121.77901979   179.99696603
 H      3   2   1     1.075757845660   120.56499607   359.90196378
 H      4   3   2     1.075830692860   124.30375482   179.99877519
 H      8   7   5     1.075420299976   121.65370173     0.48149289
 H      9   8   7     1.076385381311   124.36662684   180.19118459
 H     12  10   9     1.079808885590   114.81228152   359.80567864
 H     14  13  12     1.077910109332   118.41904352   358.33212766
 H     15  14  13     1.079044236118   119.59129832   180.49308743
 H     16  15  14     1.079465915997   120.92960632   180.48447204
 H     20  19  18     1.090005936773   110.33731759    41.48775530
 H     20  19  18     1.092316091660   111.55601144   278.64023695
 H     20  19  18     1.091552288853   106.72623742   160.58670609
 H     23  17  16     1.093695273191   112.67124185    63.47282783
 H     24  23  17     1.093201357573   109.03318261    51.82758684
 H     28  27  25     1.089204366040   107.46396677     3.59093835
 H     28  27  25     1.091762446551   110.27439306   244.25739516
 H     28  27  25     1.090894768390   110.80326043   123.12487799
 H     30  29  27     1.078951030492   121.26312301   359.75378691
 H     32  31  30     1.078107101544   119.57684798   180.68780831
 H     33  32  31     1.080033896875   120.22726035   179.72396284
 H     35  31  30     1.084278759130   115.25587092     6.33518752
 H     36  35  31     1.080985438246   121.92404450   359.86120655
 H     46  44  43     1.093038183276   108.37647806    58.37902940
 H     46  44  43     1.093038476999   108.41962519   302.39790573
 H     47  46  44     1.087046738692   110.19803467   300.05392353
 H     47  46  44     1.086950695386   110.43787277   179.56226965
 H     47  46  44     1.087079972081   110.16549394    59.09028480
 H     50  39  38     1.081960582323   116.51044951   180.32761265
 H     52  51  50     1.075834236767   121.19793169     0.04100535
 H     53  52  51     1.075209791390   124.32931373   180.00858361
 H     57  56  54     1.075338362284   121.68571016     0.00000000
 H     58  57  56     1.075586519347   124.45953011   180.02548364
 H     61  59  58     1.082270734613   116.40871316     0.42801772
 H     68  66  65     1.072557391378   123.08018908   179.86297551

---------------------------
INTERNAL COORDINATES (A.U.)
---------------------------
 C      0   0   0     0.000000000000     0.00000000     0.00000000
 C      1   0   0     2.530735500845     0.00000000     0.00000000
 C      2   1   0     2.713901946787   127.65121463     0.00000000
 C      3   2   1     2.550477209826   114.48496400   179.88733192
 C      4   3   2     2.692917189822   114.43200605     0.00000000
 S      5   4   3     3.318014885903   110.08735794     0.03571676
 C      5   4   3     2.588652008236   127.43268636   180.02073328
 C      7   5   4     2.686522115456   127.74938061     0.19882733
 C      8   7   5     2.555844943347   114.04986215   180.17490675
 C      9   8   7     2.703291796734   114.89027724   359.93213445
 S      7   5   4     3.317640885336   122.23808678   180.74418961
 C     10   9   8     2.567125387205   124.11250958   183.34699827
 C     12  10   9     2.723410634191   128.81668373   181.27033874
 C     13  12  10     2.655280360278   120.97894821    27.58929030
 C     14  13  12     2.602502351804   122.74094750   175.88340577
 C     15  14  13     2.625962907917   120.50171766     0.00000000
 C     16  15  14     2.599691729520   118.13774441     0.63662696
 C     17  16  15     2.644224019251   121.73932038     0.00000000
 N     18  17  16     2.635339677791   108.84332163   177.75891347
 C     19  18  17     2.719922728756   128.04494897   189.91239065
 C     19  18  17     2.583332783703   111.56878451     0.52379636
 O     21  19  18     2.289833830676   124.60661305   181.86115295
 C     17  16  15     2.824587549733   129.09181692   178.42352874
 C     23  17  16     2.917006689306   113.40463983   299.07038929
 C     24  23  17     2.895976751357   108.54849958   291.23748020
 O     25  24  23     2.286880816208   126.98895463    59.56303318
 N     25  24  23     2.577081806449   107.78594264   241.13481999
 C     27  25  24     2.717205350734   123.41480981   175.59499507
 C     27  25  24     2.620036632683   111.60388667     0.39393807
 C     29  27  25     2.600023707078   128.84226295   178.67768346
 C     30  29  27     2.654064789364   118.65481541   180.93961417
 C     31  30  29     2.645217789313   119.36522775   358.93315355
 C     32  31  30     2.617155966465   121.40436186     0.68205415
 C     33  32  31     2.603647344610   118.95419185   359.97026407
 C     31  30  29     2.722918237622   117.86654670   178.49839710
 C     35  31  30     2.552718675879   127.46239406   187.89183799
 C     36  35  31     2.676811001741   123.19550024   178.68166226
 S     37  36  35     3.307997961084   122.43730190     2.20034364
 C     38  37  36     3.306978078703    93.81229740   180.84037727
 C     39  38  37     2.658606861934   108.91484025   359.91997095
 C     37  36  35     2.612666878129   128.51011338   182.95482058
 S     41  37  36     3.277443770519   132.62280640   359.52633837
 C     42  41  37     3.317326066817    90.57022234   179.40980821
 C     43  42  41     2.761013363252   116.17814980   180.24920210
 O     44  43  42     2.291516934099   120.10568690   359.69853149
 C     44  43  42     2.858152851397   116.35368306   179.53022818
 C     46  44  43     2.875447779638   111.56393611   180.37687084
 C     43  42  41     2.594674929019   111.75456708     0.07415664
 F     48  43  42     2.537333401478   123.47568592   180.01730961
 C     39  38  37     2.630396282808   123.77613573   179.80961897
 C     50  39  38     2.605089240961   126.56577696     0.34530302
 C     51  50  39     2.673077423424   126.46206943   180.23629641
 C     52  51  50     2.577250679346   114.42205291   179.99419304
 C     53  52  51     2.666777564912   113.64730312     0.11347858
 S     51  50  39     3.304712348165   123.70352544     0.31520883
 C     54  53  52     2.608185288767   129.37507832   179.85432039
 C     56  54  53     2.670903959728   129.27648923     0.49139442
 C     57  56  54     2.568376198337   113.96628492   179.94594040
 C     58  57  56     2.693269853183   114.67707644     0.10901917
 S     56  54  53     3.307329260955   120.60405538   180.47940708
 C     59  58  57     2.576255464704   125.01935963   179.93659931
 C     61  59  58     2.696635423252   128.57669194   180.44386127
 C     62  61  59     2.602661045631   121.98998902   180.79257124
 F     63  62  61     2.521709364692   125.53994556     0.23672838
 S     63  62  61     3.264851159931   115.27348926   180.16374611
 C     65  63  62     3.283600509692    88.03967175     0.06162083
 F     66  65  63     2.518451567680   119.15100700   179.91474176
 C     66  65  63     2.546353958543   114.69475233   359.93541329
 H      1   2   3     2.032880392385   120.67473006     0.00000000
 H      1   2   3     2.030459724799   121.77901979   179.99696603
 H      3   2   1     2.032887714715   120.56499607   359.90196378
 H      4   3   2     2.033025375972   124.30375482   179.99877519
 H      8   7   5     2.032249845814   121.65370173     0.48149289
 H      9   8   7     2.034073585234   124.36662684   180.19118459
 H     12  10   9     2.040543070741   114.81228152   359.80567864
 H     14  13  12     2.036954903622   118.41904352   358.33212766
 H     15  14  13     2.039098092650   119.59129832   180.49308743
 H     16  15  14     2.039894952137   120.92960632   180.48447204
 H     20  19  18     2.059812704849   110.33731759    41.48775530
 H     20  19  18     2.064178264913   111.55601144   278.64023695
 H     20  19  18     2.062734886787   106.72623742   160.58670609
 H     23  17  16     2.066784540295   112.67124185    63.47282783
 H     24  23  17     2.065851175044   109.03318261    51.82758684
 H     28  27  25     2.058297955686   107.46396677     3.59093835
 H     28  27  25     2.063132027282   110.27439306   244.25739516
 H     28  27  25     2.061492353184   110.80326043   123.12487799
 H     30  29  27     2.038921959542   121.26312301   359.75378691
 H     32  31  30     2.037327164954   119.57684798   180.68780831
 H     33  32  31     2.040968280446   120.22726035   179.72396284
 H     35  31  30     2.048989907583   115.25587092     6.33518752
 H     36  35  31     2.042766433042   121.92404450   359.86120655
 H     46  44  43     2.065542820311   108.37647806    58.37902940
 H     46  44  43     2.065543375366   108.41962519   302.39790573
 H     47  46  44     2.054220630899   110.19803467   300.05392353
 H     47  46  44     2.054039135355   110.43787277   179.56226965
 H     47  46  44     2.054283432904   110.16549394    59.09028480
 H     50  39  38     2.044609188288   116.51044951   180.32761265
 H     52  51  50     2.033032072986   121.19793169     0.04100535
 H     53  52  51     2.031852042237   124.32931373   180.00858361
 H     57  56  54     2.032095006016   121.68571016     0.00000000
 H     58  57  56     2.032563954903   124.45953011   180.02548364
 H     61  59  58     2.045195291177   116.40871316     0.42801772
 H     68  66  65     2.026839732618   123.08018908   179.86297551

---------------------
BASIS SET INFORMATION
---------------------
There are 6 groups of distinct atoms

 Group   1 Type C   : 7s4p1d contracted to 3s2p1d pattern {511/31/1}
 Group   2 Type S   : 10s7p1d contracted to 4s3p1d pattern {5311/511/1}
 Group   3 Type N   : 7s4p1d contracted to 3s2p1d pattern {511/31/1}
 Group   4 Type O   : 7s4p1d contracted to 3s2p1d pattern {511/31/1}
 Group   5 Type F   : 7s4p1d contracted to 3s2p1d pattern {511/31/1}
 Group   6 Type H   : 4s1p contracted to 2s1p pattern {31/1}

Atom   0C    basis set group =>   1
Atom   1C    basis set group =>   1
Atom   2C    basis set group =>   1
Atom   3C    basis set group =>   1
Atom   4C    basis set group =>   1
Atom   5S    basis set group =>   2
Atom   6C    basis set group =>   1
Atom   7C    basis set group =>   1
Atom   8C    basis set group =>   1
Atom   9C    basis set group =>   1
Atom  10S    basis set group =>   2
Atom  11C    basis set group =>   1
Atom  12C    basis set group =>   1
Atom  13C    basis set group =>   1
Atom  14C    basis set group =>   1
Atom  15C    basis set group =>   1
Atom  16C    basis set group =>   1
Atom  17C    basis set group =>   1
Atom  18N    basis set group =>   3
Atom  19C    basis set group =>   1
Atom  20C    basis set group =>   1
Atom  21O    basis set group =>   4
Atom  22C    basis set group =>   1
Atom  23C    basis set group =>   1
Atom  24C    basis set group =>   1
Atom  25O    basis set group =>   4
Atom  26N    basis set group =>   3
Atom  27C    basis set group =>   1
Atom  28C    basis set group =>   1
Atom  29C    basis set group =>   1
Atom  30C    basis set group =>   1
Atom  31C    basis set group =>   1
Atom  32C    basis set group =>   1
Atom  33C    basis set group =>   1
Atom  34C    basis set group =>   1
Atom  35C    basis set group =>   1
Atom  36C    basis set group =>   1
Atom  37S    basis set group =>   2
Atom  38C    basis set group =>   1
Atom  39C    basis set group =>   1
Atom  40C    basis set group =>   1
Atom  41S    basis set group =>   2
Atom  42C    basis set group =>   1
Atom  43C    basis set group =>   1
Atom  44O    basis set group =>   4
Atom  45C    basis set group =>   1
Atom  46C    basis set group =>   1
Atom  47C    basis set group =>   1
Atom  48F    basis set group =>   5
Atom  49C    basis set group =>   1
Atom  50C    basis set group =>   1
Atom  51C    basis set group =>   1
Atom  52C    basis set group =>   1
Atom  53C    basis set group =>   1
Atom  54S    basis set group =>   2
Atom  55C    basis set group =>   1
Atom  56C    basis set group =>   1
Atom  57C    basis set group =>   1
Atom  58C    basis set group =>   1
Atom  59S    basis set group =>   2
Atom  60C    basis set group =>   1
Atom  61C    basis set group =>   1
Atom  62C    basis set group =>   1
Atom  63F    basis set group =>   5
Atom  64S    basis set group =>   2
Atom  65C    basis set group =>   1
Atom  66F    basis set group =>   5
Atom  67C    basis set group =>   1
Atom  68H    basis set group =>   6
Atom  69H    basis set group =>   6
Atom  70H    basis set group =>   6
Atom  71H    basis set group =>   6
Atom  72H    basis set group =>   6
Atom  73H    basis set group =>   6
Atom  74H    basis set group =>   6
Atom  75H    basis set group =>   6
Atom  76H    basis set group =>   6
Atom  77H    basis set group =>   6
Atom  78H    basis set group =>   6
Atom  79H    basis set group =>   6
Atom  80H    basis set group =>   6
Atom  81H    basis set group =>   6
Atom  82H    basis set group =>   6
Atom  83H    basis set group =>   6
Atom  84H    basis set group =>   6
Atom  85H    basis set group =>   6
Atom  86H    basis set group =>   6
Atom  87H    basis set group =>   6
Atom  88H    basis set group =>   6
Atom  89H    basis set group =>   6
Atom  90H    basis set group =>   6
Atom  91H    basis set group =>   6
Atom  92H    basis set group =>   6
Atom  93H    basis set group =>   6
Atom  94H    basis set group =>   6
Atom  95H    basis set group =>   6
Atom  96H    basis set group =>   6
Atom  97H    basis set group =>   6
Atom  98H    basis set group =>   6
Atom  99H    basis set group =>   6
Atom 100H    basis set group =>   6
Atom 101H    basis set group =>   6
Atom 102H    basis set group =>   6
---------------------------------
AUXILIARY/J BASIS SET INFORMATION
---------------------------------
There are 6 groups of distinct atoms

 Group   1 Type C   : 12s5p4d2f1g contracted to 6s4p3d1f1g pattern {711111/2111/211/2/1}
 Group   2 Type S   : 14s5p5d2f1g contracted to 8s4p3d1f1g pattern {71111111/2111/311/2/1}
 Group   3 Type N   : 12s5p4d2f1g contracted to 6s4p3d1f1g pattern {711111/2111/211/2/1}
 Group   4 Type O   : 12s5p4d2f1g contracted to 6s4p3d1f1g pattern {711111/2111/211/2/1}
 Group   5 Type F   : 12s5p4d2f1g contracted to 6s4p3d1f1g pattern {711111/2111/211/2/1}
 Group   6 Type H   : 5s2p1d contracted to 3s1p1d pattern {311/2/1}

Atom   0C    basis set group =>   1
Atom   1C    basis set group =>   1
Atom   2C    basis set group =>   1
Atom   3C    basis set group =>   1
Atom   4C    basis set group =>   1
Atom   5S    basis set group =>   2
Atom   6C    basis set group =>   1
Atom   7C    basis set group =>   1
Atom   8C    basis set group =>   1
Atom   9C    basis set group =>   1
Atom  10S    basis set group =>   2
Atom  11C    basis set group =>   1
Atom  12C    basis set group =>   1
Atom  13C    basis set group =>   1
Atom  14C    basis set group =>   1
Atom  15C    basis set group =>   1
Atom  16C    basis set group =>   1
Atom  17C    basis set group =>   1
Atom  18N    basis set group =>   3
Atom  19C    basis set group =>   1
Atom  20C    basis set group =>   1
Atom  21O    basis set group =>   4
Atom  22C    basis set group =>   1
Atom  23C    basis set group =>   1
Atom  24C    basis set group =>   1
Atom  25O    basis set group =>   4
Atom  26N    basis set group =>   3
Atom  27C    basis set group =>   1
Atom  28C    basis set group =>   1
Atom  29C    basis set group =>   1
Atom  30C    basis set group =>   1
Atom  31C    basis set group =>   1
Atom  32C    basis set group =>   1
Atom  33C    basis set group =>   1
Atom  34C    basis set group =>   1
Atom  35C    basis set group =>   1
Atom  36C    basis set group =>   1
Atom  37S    basis set group =>   2
Atom  38C    basis set group =>   1
Atom  39C    basis set group =>   1
Atom  40C    basis set group =>   1
Atom  41S    basis set group =>   2
Atom  42C    basis set group =>   1
Atom  43C    basis set group =>   1
Atom  44O    basis set group =>   4
Atom  45C    basis set group =>   1
Atom  46C    basis set group =>   1
Atom  47C    basis set group =>   1
Atom  48F    basis set group =>   5
Atom  49C    basis set group =>   1
Atom  50C    basis set group =>   1
Atom  51C    basis set group =>   1
Atom  52C    basis set group =>   1
Atom  53C    basis set group =>   1
Atom  54S    basis set group =>   2
Atom  55C    basis set group =>   1
Atom  56C    basis set group =>   1
Atom  57C    basis set group =>   1
Atom  58C    basis set group =>   1
Atom  59S    basis set group =>   2
Atom  60C    basis set group =>   1
Atom  61C    basis set group =>   1
Atom  62C    basis set group =>   1
Atom  63F    basis set group =>   5
Atom  64S    basis set group =>   2
Atom  65C    basis set group =>   1
Atom  66F    basis set group =>   5
Atom  67C    basis set group =>   1
Atom  68H    basis set group =>   6
Atom  69H    basis set group =>   6
Atom  70H    basis set group =>   6
Atom  71H    basis set group =>   6
Atom  72H    basis set group =>   6
Atom  73H    basis set group =>   6
Atom  74H    basis set group =>   6
Atom  75H    basis set group =>   6
Atom  76H    basis set group =>   6
Atom  77H    basis set group =>   6
Atom  78H    basis set group =>   6
Atom  79H    basis set group =>   6
Atom  80H    basis set group =>   6
Atom  81H    basis set group =>   6
Atom  82H    basis set group =>   6
Atom  83H    basis set group =>   6
Atom  84H    basis set group =>   6
Atom  85H    basis set group =>   6
Atom  86H    basis set group =>   6
Atom  87H    basis set group =>   6
Atom  88H    basis set group =>   6
Atom  89H    basis set group =>   6
Atom  90H    basis set group =>   6
Atom  91H    basis set group =>   6
Atom  92H    basis set group =>   6
Atom  93H    basis set group =>   6
Atom  94H    basis set group =>   6
Atom  95H    basis set group =>   6
Atom  96H    basis set group =>   6
Atom  97H    basis set group =>   6
Atom  98H    basis set group =>   6
Atom  99H    basis set group =>   6
Atom 100H    basis set group =>   6
Atom 101H    basis set group =>   6
Atom 102H    basis set group =>   6


           ************************************************************
           *        Program running with 6 parallel MPI-processes     *
           *              working on a common directory               *
           ************************************************************
------------------------------------------------------------------------------
                           ORCA GTO INTEGRAL CALCULATION
                           -- RI-GTO INTEGRALS CHOSEN --
------------------------------------------------------------------------------

                         BASIS SET STATISTICS AND STARTUP INFO

Gaussian basis set:
 # of primitive gaussian shells          ... 1033
 # of primitive gaussian functions       ... 1961
 # of contracted shells                  ...  527
 # of contracted basis functions         ... 1155
 Highest angular momentum                ...    2
 Maximum contraction depth               ...    5
Auxiliary gaussian basis set:
 # of primitive gaussian shells          ... 1933
 # of primitive gaussian functions       ... 5369
 # of contracted shells                  ... 1209
 # of contracted aux-basis functions     ... 3731
 Highest angular momentum                ...    4
 Maximum contraction depth               ...    7
Ratio of auxiliary to basis functions    ...  3.23
Integral package used                  ... LIBINT
 One Electron integrals                  ... done
 Ordering auxiliary basis shells         ... done
 Integral threshhold             Thresh  ...  2.500e-11
 Primitive cut-off               TCut    ...  2.500e-12
 Pre-screening matrix                    ... done
 Shell pair data                         ... 
 Ordering of the shell pairs             ... done (   0.008 sec) 42040 of 139128 pairs
 Determination of significant pairs      ... done (   0.000 sec)
 Creation of shell pair data             ... done (   0.006 sec)
 Storage of shell pair data              ... done (   0.009 sec)
 Shell pair data done in (   0.024 sec)
 Computing two index integrals           ... done
 Cholesky decomposition of the V-matrix  ... done


Timings:
 Total evaluation time                   ...   2.089 sec (  0.035 min)
 One electron matrix time                ...   0.522 sec (  0.009 min) = 25.0%
 Schwartz matrix evaluation time         ...   0.669 sec (  0.011 min) = 32.0%
 Two index repulsion integral time       ...   0.325 sec (  0.005 min) = 15.6%
 Cholesky decomposition of V             ...   0.531 sec (  0.009 min) = 25.4%
 Three index repulsion integral time     ...   0.000 sec (  0.000 min) =  0.0%



           ************************************************************
           *        Program running with 6 parallel MPI-processes     *
           *              working on a common directory               *
           ************************************************************
-------------------------------------------------------------------------------
                                 ORCA SCF
-------------------------------------------------------------------------------

------------
SCF SETTINGS
------------
Hamiltonian:
 Density Functional     Method          .... DFT(GTOs)
 Exchange Functional    Exchange        .... WB88
 Correlation Functional Correlation     .... LYP
 LDA part of GGA corr.  LDAOpt          .... VWN-5
 Gradients option       PostSCFGGA      .... off
 Hybrid DFT is turned on
   Fraction HF Exchange ScalHFX         ....  0.190000
   Scaling of DF-GGA-X  ScalDFX         ....  0.350000
   Scaling of DF-GGA-C  ScalDFC         ....  0.810000
   Scaling of DF-LDA-C  ScalLDAC        ....  1.000000
   Perturbative correction              ....  0.000000
   Density functional embedding theory  .... OFF
 Long-range corrected/Screened/Range-Separated Hybrid DFT is turned on
   Amount of maximum screened exact exchange              ....  0.460000
   Range separation parameter mu (erf(mu*r12)/r12)        ....  0.330000
 RI-approximation to the Coulomb term is turned on
   Number of auxiliary basis functions  .... 3731
   RIJ-COSX (HFX calculated with COS-X)).... on


General Settings:
 Integral files         IntName         .... xtbopt
 Hartree-Fock type      HFTyp           .... RHF
 Total Charge           Charge          ....    0
 Multiplicity           Mult            ....    1
 Number of Electrons    NEL             ....  530
 Basis Dimension        Dim             .... 1155
 Nuclear Repulsion      ENuc            ....  10680.3145190164 Eh

Convergence Acceleration:
 DIIS                   CNVDIIS         .... on
   Start iteration      DIISMaxIt       ....    12
   Startup error        DIISStart       ....  0.200000
   # of expansion vecs  DIISMaxEq       ....     5
   Bias factor          DIISBfac        ....   1.050
   Max. coefficient     DIISMaxC        ....  10.000
 Newton-Raphson         CNVNR           .... off
 SOSCF                  CNVSOSCF        .... on
   Start iteration      SOSCFMaxIt      ....   150
   Startup grad/error   SOSCFStart      ....  0.003300
 Level Shifting         CNVShift        .... on
   Level shift para.    LevelShift      ....    0.2500
   Turn off err/grad.   ShiftErr        ....    0.0010
 Zerner damping         CNVZerner       .... off
 Static damping         CNVDamp         .... on
   Fraction old density DampFac         ....    0.7000
   Max. Damping (<1)    DampMax         ....    0.9800
   Min. Damping (>=0)   DampMin         ....    0.0000
   Turn off err/grad.   DampErr         ....    0.1000
 Fernandez-Rico         CNVRico         .... off

SCF Procedure:
 Maximum # iterations   MaxIter         ....   125
 SCF integral mode      SCFMode         .... Direct
   Integral package                     .... LIBINT
 Reset frequency        DirectResetFreq ....    20
 Integral Threshold     Thresh          ....  2.500e-11 Eh
 Primitive CutOff       TCut            ....  2.500e-12 Eh

Convergence Tolerance:
 Convergence Check Mode ConvCheckMode   .... Total+1el-Energy
 Convergence forced     ConvForced      .... 1
 Energy Change          TolE            ....  1.000e-08 Eh
 1-El. energy change                    ....  1.000e-05 Eh
 Orbital Gradient       TolG            ....  1.000e-05
 Orbital Rotation angle TolX            ....  1.000e-05
 DIIS Error             TolErr          ....  5.000e-07


Diagonalization of the overlap matrix:
Smallest eigenvalue                        ... 1.912e-04
Time for diagonalization                   ...    0.186 sec
Threshold for overlap eigenvalues          ... 1.000e-08
Number of eigenvalues below threshold      ... 0
Time for construction of square roots      ...    0.146 sec
Total time needed                          ...    0.335 sec

-------------------
DFT GRID GENERATION
-------------------

General Integration Accuracy     IntAcc      ...  4.670
Radial Grid Type                 RadialGrid  ... Gauss-Chebyshev
Angular Grid (max. acc.)         AngularGrid ... Lebedev-302
Angular grid pruning method      GridPruning ... 3 (G Style)
Weight generation scheme         WeightScheme... Becke
Basis function cutoff            BFCut       ...    1.0000e-11
Integration weight cutoff        WCut        ...    1.0000e-14
Grids for H and He will be reduced by one unit

# of grid points (after initial pruning)     ... 545824 (   0.0 sec)
# of grid points (after weights+screening)   ... 470853 (   6.1 sec)
nearest neighbour list constructed           ...    0.0 sec
Grid point re-assignment to atoms done       ...    0.1 sec
Grid point division into batches done        ...    1.6 sec
Reduced shell lists constructed in    2.5 sec

Total number of grid points                  ...   470853
Total number of batches                      ...     7409
Average number of points per batch           ...       63
Average number of grid points per atom       ...     4571
Average number of shells per batch           ...    93.17 (17.68%)
Average number of basis functions per batch  ...   192.78 (16.69%)
Average number of large shells per batch     ...    60.46 (64.89%)
Average number of large basis fcns per batch ...   127.78 (66.29%)
Maximum spatial batch extension              ...  14.29, 20.51, 19.32 au
Average spatial batch extension              ...   0.25,  0.31,  0.29 au

Time for grid setup =    8.963 sec

------------------------------
INITIAL GUESS: MODEL POTENTIAL
------------------------------
Loading Hartree-Fock densities                     ... done
Calculating cut-offs                               ... done
Setting up the integral package                    ... done
Initializing the effective Hamiltonian             ... done
Starting the Coulomb interaction                   ... done (   1.2 sec)
Reading the grid                                   ... done
Mapping shells                                     ... done
Starting the XC term evaluation                    ... done (   1.2 sec)
  promolecular density results
     # of electrons  =    529.983006995
     EX              =   -523.731182212
     EC              =    -18.619616910
     EX+EC           =   -542.350799122
Transforming the Hamiltonian                       ... done (   0.1 sec)
Diagonalizing the Hamiltonian                      ... done (   0.2 sec)
Back transforming the eigenvectors                 ... done (   0.0 sec)
Now organizing SCF variables                       ... done
                      ------------------
                      INITIAL GUESS DONE (  11.8 sec)
                      ------------------
--------------------
COSX GRID GENERATION
--------------------

General Integration Accuracy     IntAcc      ...  3.340
Radial Grid Type                 RadialGrid  ... Gauss-Chebyshev
Angular Grid (max. acc.)         AngularGrid ... Lebedev-50
Angular grid pruning method      GridPruning ... 3 (G Style)
Weight generation scheme         WeightScheme... Becke
Basis function cutoff            BFCut       ...    1.0000e-11
Integration weight cutoff        WCut        ...    1.0000e-14
Grids for H and He will be reduced by one unit

# of grid points (after initial pruning)     ...  51494 (   0.0 sec)
# of grid points (after weights+screening)   ...  46247 (   0.6 sec)
nearest neighbour list constructed           ...    0.0 sec
Grid point re-assignment to atoms done       ...    0.0 sec
Grid point division into batches done        ...    0.0 sec
Reduced shell lists constructed in    0.1 sec

Total number of grid points                  ...    46247
Total number of batches                      ...      775
Average number of points per batch           ...       59
Average number of grid points per atom       ...      449
Average number of shells per batch           ...   104.23 (19.78%)
Average number of basis functions per batch  ...   216.58 (18.75%)
Average number of large shells per batch     ...    66.78 (64.07%)
Average number of large basis fcns per batch ...   142.43 (65.76%)
Maximum spatial batch extension              ...  12.05, 18.09, 15.86 au
Average spatial batch extension              ...   0.48,  0.71,  0.64 au

Overlap Fitting                  UseSFitting ... on
Constructing numerical overlap ... done (      0.1 sec)
Inverting numerical overlap    ... done (      0.1 sec)
Obtaining analytic overlap     ... done (      0.0 sec)
Final contraction and storage  ... done (      0.1 sec)


General Integration Accuracy     IntAcc      ...  3.670
Radial Grid Type                 RadialGrid  ... Gauss-Chebyshev
Angular Grid (max. acc.)         AngularGrid ... Lebedev-50
Angular grid pruning method      GridPruning ... 3 (G Style)
Weight generation scheme         WeightScheme... Becke
Basis function cutoff            BFCut       ...    1.0000e-11
Integration weight cutoff        WCut        ...    1.0000e-14
Grids for H and He will be reduced by one unit

# of grid points (after initial pruning)     ...  64488 (   0.0 sec)
# of grid points (after weights+screening)   ...  57699 (   0.7 sec)
nearest neighbour list constructed           ...    0.0 sec
Grid point re-assignment to atoms done       ...    0.0 sec
Grid point division into batches done        ...    0.0 sec
Reduced shell lists constructed in    0.2 sec

Total number of grid points                  ...    57699
Total number of batches                      ...      951
Average number of points per batch           ...       60
Average number of grid points per atom       ...      560
Average number of shells per batch           ...   104.08 (19.75%)
Average number of basis functions per batch  ...   216.15 (18.71%)
Average number of large shells per batch     ...    66.60 (63.99%)
Average number of large basis fcns per batch ...   142.25 (65.81%)
Maximum spatial batch extension              ...   9.42, 19.74, 17.70 au
Average spatial batch extension              ...   0.45,  0.69,  0.61 au

Overlap Fitting                  UseSFitting ... on
Constructing numerical overlap ... done (      0.1 sec)
Inverting numerical overlap    ... done (      0.1 sec)
Obtaining analytic overlap     ... done (      0.0 sec)
Final contraction and storage  ... done (      0.1 sec)


General Integration Accuracy     IntAcc      ...  4.010
Radial Grid Type                 RadialGrid  ... Gauss-Chebyshev
Angular Grid (max. acc.)         AngularGrid ... Lebedev-110
Angular grid pruning method      GridPruning ... 3 (G Style)
Weight generation scheme         WeightScheme... Becke
Basis function cutoff            BFCut       ...    1.0000e-11
Integration weight cutoff        WCut        ...    1.0000e-14
Grids for H and He will be reduced by one unit

# of grid points (after initial pruning)     ... 124148 (   0.0 sec)
# of grid points (after weights+screening)   ... 110148 (   1.4 sec)
nearest neighbour list constructed           ...    0.0 sec
Grid point re-assignment to atoms done       ...    0.0 sec
Grid point division into batches done        ...    0.1 sec
Reduced shell lists constructed in    0.3 sec

Total number of grid points                  ...   110148
Total number of batches                      ...     1769
Average number of points per batch           ...       62
Average number of grid points per atom       ...     1069
Average number of shells per batch           ...    99.44 (18.87%)
Average number of basis functions per batch  ...   206.50 (17.88%)
Average number of large shells per batch     ...    64.64 (65.00%)
Average number of large basis fcns per batch ...   137.89 (66.77%)
Maximum spatial batch extension              ...  10.98, 22.71, 21.16 au
Average spatial batch extension              ...   0.38,  0.52,  0.47 au

Overlap Fitting                  UseSFitting ... on
Constructing numerical overlap ... done (      0.1 sec)
Inverting numerical overlap    ... done (      0.1 sec)
Obtaining analytic overlap     ... done (      0.0 sec)
Final contraction and storage  ... done (      0.1 sec)

Time for X-Grid setup             =    4.148 sec
--------------
SCF ITERATIONS
--------------
ITER       Energy         Delta-E        Max-DP      RMS-DP      [F,P]     Damp
               ***  Starting incremental Fock matrix formation  ***
  0  -5457.1846716099   0.000000000000 0.11287677  0.00094254  0.2428163 0.7000
  1  -5457.7642686704  -0.579597060552 0.08402434  0.00067423  0.1080864 0.7000
                               ***Turning on DIIS***
  2  -5458.0287364190  -0.264467748588 0.11114942  0.00122190  0.0422891 0.0000
  3  -5458.4349875398  -0.406251120730 0.07672595  0.00051147  0.0563804 0.0000
  4  -5458.5263079451  -0.091320405396 0.01652130  0.00015357  0.0096408 0.0000
  5  -5458.5319460787  -0.005638133563 0.01843081  0.00008577  0.0120265 0.0000
  6  -5458.5341157028  -0.002169624137 0.00638411  0.00005278  0.0018795 0.0000
  7  -5458.5351498918  -0.001034188961 0.00416500  0.00003786  0.0010652 0.0000
  8  -5458.5357458534  -0.000595961566 0.00367513  0.00007045  0.0008275 0.0000
               *** Restarting incremental Fock matrix formation ***
                                   *** Resetting DIIS ***
                      *** Initiating the SOSCF procedure ***
                           *** Shutting down DIIS ***
                      *** Re-Reading the Fockian *** 
                      *** Removing any level shift *** 
ITER      Energy       Delta-E        Grad      Rot      Max-DP    RMS-DP
  9  -5458.53630036  -0.0005545095  0.001093  0.001093  0.002449  0.000025
               *** Restarting incremental Fock matrix formation ***
 10  -5458.53635099  -0.0000506303  0.000846  0.007364  0.002374  0.000025
 11  -5458.53633523   0.0000157613  0.000736  0.002112  0.001821  0.000013
 12  -5458.53640308  -0.0000678489  0.000184  0.001302  0.000755  0.000006
 13  -5458.53640513  -0.0000020503  0.000192  0.001134  0.000299  0.000004
 14  -5458.53640784  -0.0000027056  0.000029  0.000242  0.000142  0.000001
 15  -5458.53640772   0.0000001135  0.000034  0.000115  0.000086  0.000001
 16  -5458.53640791  -0.0000001891  0.000005  0.000030  0.000033  0.000000
 17  -5458.53640794  -0.0000000235  0.000004  0.000014  0.000021  0.000000
                  ***Gradient check signals convergence***
              ***Rediagonalizing the Fockian in SOSCF/NRSCF***

               *****************************************************
               *                     SUCCESS                       *
               *           SCF CONVERGED AFTER  18 CYCLES          *
               *****************************************************

Setting up the final grid:

General Integration Accuracy     IntAcc      ...  5.010
Radial Grid Type                 RadialGrid  ... Gauss-Chebyshev
Angular Grid (max. acc.)         AngularGrid ... Lebedev-434
Angular grid pruning method      GridPruning ... 3 (G Style)
Weight generation scheme         WeightScheme... Becke
Basis function cutoff            BFCut       ...    1.0000e-11
Integration weight cutoff        WCut        ...    1.0000e-14
Grids for H and He will be reduced by one unit

# of grid points (after initial pruning)     ... 969554 (   0.1 sec)
# of grid points (after weights+screening)   ... 833884 (  10.4 sec)
nearest neighbour list constructed           ...    0.0 sec
Grid point re-assignment to atoms done       ...    0.1 sec
Grid point division into batches done        ...    5.3 sec
Reduced shell lists constructed in    6.7 sec

Total number of grid points                  ...   833884
Total number of batches                      ...    13080
Average number of points per batch           ...       63
Average number of grid points per atom       ...     8096
Average number of shells per batch           ...    91.60 (17.38%)
Average number of basis functions per batch  ...   189.38 (16.40%)
Average number of large shells per batch     ...    59.43 (64.88%)
Average number of large basis fcns per batch ...   125.31 (66.17%)
Maximum spatial batch extension              ...  10.72, 20.06, 22.17 au
Average spatial batch extension              ...   0.20,  0.24,  0.23 au

Final grid set up in   17.9 sec
Final integration                            ... done (   2.6 sec)
Change in XC energy                          ...    -0.000015226
Integrated number of electrons               ...   530.000057505
Previous integrated no of electrons          ...   530.000068345
Old exchange energy                            =   -142.500472781 Eh
New exchange energy                            =   -142.497876178 Eh
Exchange energy change after final integration =      0.002596603 Eh
Total energy after final integration           =  -5458.533826554 Eh
Final COS-X integration done in                =    53.217 sec

----------------
TOTAL SCF ENERGY
----------------

Total Energy       :        -5458.53382655 Eh         -148534.25676 eV

Components:
Nuclear Repulsion  :        10680.31451902 Eh          290626.13321 eV
Electronic Energy  :       -16138.84834557 Eh         -439160.38997 eV
One Electron Energy:       -28771.49108389 Eh         -782912.07487 eV
Two Electron Energy:        12632.64273832 Eh          343751.68491 eV

Virial components:
Potential Energy   :       -10886.15840407 Eh         -296227.43009 eV
Kinetic Energy     :         5427.62457752 Eh          147693.17333 eV
Virial Ratio       :            2.00569480


DFT components:
N(Alpha)           :      265.000028752422 electrons
N(Beta)            :      265.000028752422 electrons
N(Total)           :      530.000057504845 electrons
E(XC)              :     -407.986431338518 Eh       
DFET-embed. en.    :        0.000000000000 Eh       

---------------
SCF CONVERGENCE
---------------

  Last Energy change         ...    4.5929e-09  Tolerance :   1.0000e-08
  Last MAX-Density change    ...    7.5495e-15  Tolerance :   1.0000e-07
  Last RMS-Density change    ...    3.5771e-17  Tolerance :   5.0000e-09
  Last Orbital Gradient      ...    9.4203e-07  Tolerance :   1.0000e-05
  Last Orbital Rotation      ...    7.0486e-06  Tolerance :   1.0000e-05

             **** THE GBW FILE WAS UPDATED (xtbopt.gbw) ****
             **** DENSITY FILE WAS UPDATED (xtbopt.scfp) ****
             **** ENERGY FILE WAS UPDATED (xtbopt.en.tmp) ****
             **** THE GBW FILE WAS UPDATED (xtbopt.gbw) ****
             **** DENSITY FILE WAS UPDATED (xtbopt.scfp) ****
----------------
ORBITAL ENERGIES
----------------

  NO   OCC          E(Eh)            E(eV) 
   0   2.0000     -88.980876     -2421.2927 
   1   2.0000     -88.960935     -2420.7501 
   2   2.0000     -88.950273     -2420.4600 
   3   2.0000     -88.949799     -2420.4471 
   4   2.0000     -88.948000     -2420.3981 
   5   2.0000     -88.934045     -2420.0184 
   6   2.0000     -88.929193     -2419.8864 
   7   2.0000     -24.808758      -675.0806 
   8   2.0000     -24.807549      -675.0477 
   9   2.0000     -24.803559      -674.9392 
  10   2.0000     -19.197656      -522.3948 
  11   2.0000     -19.182519      -521.9829 
  12   2.0000     -19.179898      -521.9115 
  13   2.0000     -14.445240      -393.0750 
  14   2.0000     -14.441059      -392.9612 
  15   2.0000     -10.385934      -282.6156 
  16   2.0000     -10.385224      -282.5963 
  17   2.0000     -10.373665      -282.2818 
  18   2.0000     -10.364018      -282.0193 
  19   2.0000     -10.363235      -281.9980 
  20   2.0000     -10.353124      -281.7228 
  21   2.0000     -10.316364      -280.7225 
  22   2.0000     -10.314835      -280.6809 
  23   2.0000     -10.313451      -280.6433 
  24   2.0000     -10.311933      -280.6020 
  25   2.0000     -10.310822      -280.5717 
  26   2.0000     -10.305949      -280.4391 
  27   2.0000     -10.302463      -280.3443 
  28   2.0000     -10.301605      -280.3209 
  29   2.0000     -10.301433      -280.3162 
  30   2.0000     -10.300361      -280.2871 
  31   2.0000     -10.299562      -280.2653 
  32   2.0000     -10.298493      -280.2362 
  33   2.0000     -10.298477      -280.2358 
  34   2.0000     -10.298325      -280.2317 
  35   2.0000     -10.297111      -280.1986 
  36   2.0000     -10.296215      -280.1742 
  37   2.0000     -10.294280      -280.1216 
  38   2.0000     -10.292047      -280.0608 
  39   2.0000     -10.291578      -280.0481 
  40   2.0000     -10.290970      -280.0315 
  41   2.0000     -10.289516      -279.9920 
  42   2.0000     -10.288191      -279.9559 
  43   2.0000     -10.287636      -279.9408 
  44   2.0000     -10.287541      -279.9382 
  45   2.0000     -10.287167      -279.9280 
  46   2.0000     -10.286991      -279.9233 
  47   2.0000     -10.286785      -279.9177 
  48   2.0000     -10.282362      -279.7973 
  49   2.0000     -10.279401      -279.7167 
  50   2.0000     -10.277519      -279.6655 
  51   2.0000     -10.277324      -279.6602 
  52   2.0000     -10.276877      -279.6480 
  53   2.0000     -10.274451      -279.5820 
  54   2.0000     -10.273070      -279.5444 
  55   2.0000     -10.272108      -279.5183 
  56   2.0000     -10.270809      -279.4829 
  57   2.0000     -10.267138      -279.3830 
  58   2.0000     -10.264867      -279.3212 
  59   2.0000     -10.264819      -279.3199 
  60   2.0000     -10.264163      -279.3021 
  61   2.0000     -10.264007      -279.2978 
  62   2.0000     -10.263019      -279.2709 
  63   2.0000     -10.261364      -279.2259 
  64   2.0000     -10.259312      -279.1701 
  65   2.0000     -10.258298      -279.1425 
  66   2.0000     -10.255528      -279.0671 
  67   2.0000     -10.245854      -278.8038 
  68   2.0000      -8.077980      -219.8130 
  69   2.0000      -8.055325      -219.1965 
  70   2.0000      -8.046465      -218.9554 
  71   2.0000      -8.045846      -218.9386 
  72   2.0000      -8.042981      -218.8606 
  73   2.0000      -8.029931      -218.5055 
  74   2.0000      -8.025902      -218.3959 
  75   2.0000      -6.047193      -164.5525 
  76   2.0000      -6.043573      -164.4540 
  77   2.0000      -6.039332      -164.3386 
  78   2.0000      -6.024621      -163.9383 
  79   2.0000      -6.020540      -163.8272 
  80   2.0000      -6.017495      -163.7444 
  81   2.0000      -6.016260      -163.7108 
  82   2.0000      -6.015607      -163.6930 
  83   2.0000      -6.012885      -163.6189 
  84   2.0000      -6.012209      -163.6005 
  85   2.0000      -6.011420      -163.5790 
  86   2.0000      -6.008793      -163.5076 
  87   2.0000      -6.007258      -163.4658 
  88   2.0000      -6.006849      -163.4547 
  89   2.0000      -6.003745      -163.3702 
  90   2.0000      -5.999774      -163.2622 
  91   2.0000      -5.995755      -163.1528 
  92   2.0000      -5.995739      -163.1524 
  93   2.0000      -5.991856      -163.0467 
  94   2.0000      -5.990635      -163.0135 
  95   2.0000      -5.986355      -162.8970 
  96   2.0000      -1.323387       -36.0112 
  97   2.0000      -1.322717       -35.9930 
  98   2.0000      -1.315083       -35.7852 
  99   2.0000      -1.129723       -30.7413 
 100   2.0000      -1.119946       -30.4753 
 101   2.0000      -1.116641       -30.3854 
 102   2.0000      -1.049044       -28.5459 
 103   2.0000      -1.044853       -28.4319 
 104   2.0000      -1.008477       -27.4420 
 105   2.0000      -1.001811       -27.2607 
 106   2.0000      -0.996562       -27.1178 
 107   2.0000      -0.982910       -26.7463 
 108   2.0000      -0.976945       -26.5840 
 109   2.0000      -0.960510       -26.1368 
 110   2.0000      -0.948548       -25.8113 
 111   2.0000      -0.944840       -25.7104 
 112   2.0000      -0.938657       -25.5422 
 113   2.0000      -0.918380       -24.9904 
 114   2.0000      -0.907247       -24.6874 
 115   2.0000      -0.897704       -24.4278 
 116   2.0000      -0.885759       -24.1027 
 117   2.0000      -0.874319       -23.7914 
 118   2.0000      -0.866011       -23.5653 
 119   2.0000      -0.863142       -23.4873 
 120   2.0000      -0.853625       -23.2283 
 121   2.0000      -0.850156       -23.1339 
 122   2.0000      -0.843747       -22.9595 
 123   2.0000      -0.838843       -22.8261 
 124   2.0000      -0.836557       -22.7639 
 125   2.0000      -0.831297       -22.6208 
 126   2.0000      -0.830795       -22.6071 
 127   2.0000      -0.823813       -22.4171 
 128   2.0000      -0.821780       -22.3618 
 129   2.0000      -0.820211       -22.3191 
 130   2.0000      -0.810740       -22.0614 
 131   2.0000      -0.804594       -21.8941 
 132   2.0000      -0.796822       -21.6826 
 133   2.0000      -0.790826       -21.5195 
 134   2.0000      -0.789477       -21.4828 
 135   2.0000      -0.767420       -20.8826 
 136   2.0000      -0.760588       -20.6967 
 137   2.0000      -0.747735       -20.3469 
 138   2.0000      -0.746081       -20.3019 
 139   2.0000      -0.727117       -19.7859 
 140   2.0000      -0.714630       -19.4461 
 141   2.0000      -0.704357       -19.1665 
 142   2.0000      -0.697283       -18.9740 
 143   2.0000      -0.695660       -18.9299 
 144   2.0000      -0.690694       -18.7947 
 145   2.0000      -0.685603       -18.6562 
 146   2.0000      -0.682235       -18.5646 
 147   2.0000      -0.680252       -18.5106 
 148   2.0000      -0.677898       -18.4465 
 149   2.0000      -0.670418       -18.2430 
 150   2.0000      -0.662290       -18.0218 
 151   2.0000      -0.660045       -17.9607 
 152   2.0000      -0.647516       -17.6198 
 153   2.0000      -0.644152       -17.5283 
 154   2.0000      -0.641090       -17.4449 
 155   2.0000      -0.631385       -17.1809 
 156   2.0000      -0.628469       -17.1015 
 157   2.0000      -0.621584       -16.9142 
 158   2.0000      -0.619044       -16.8451 
 159   2.0000      -0.612935       -16.6788 
 160   2.0000      -0.610830       -16.6215 
 161   2.0000      -0.608050       -16.5459 
 162   2.0000      -0.602028       -16.3820 
 163   2.0000      -0.599230       -16.3059 
 164   2.0000      -0.595002       -16.1908 
 165   2.0000      -0.590955       -16.0807 
 166   2.0000      -0.590170       -16.0594 
 167   2.0000      -0.586986       -15.9727 
 168   2.0000      -0.582923       -15.8621 
 169   2.0000      -0.581833       -15.8325 
 170   2.0000      -0.579494       -15.7688 
 171   2.0000      -0.573469       -15.6049 
 172   2.0000      -0.568549       -15.4710 
 173   2.0000      -0.567712       -15.4482 
 174   2.0000      -0.566278       -15.4092 
 175   2.0000      -0.560803       -15.2602 
 176   2.0000      -0.559218       -15.2171 
 177   2.0000      -0.553003       -15.0480 
 178   2.0000      -0.545254       -14.8371 
 179   2.0000      -0.543867       -14.7994 
 180   2.0000      -0.542860       -14.7720 
 181   2.0000      -0.536088       -14.5877 
 182   2.0000      -0.535652       -14.5758 
 183   2.0000      -0.533341       -14.5129 
 184   2.0000      -0.528218       -14.3736 
 185   2.0000      -0.526728       -14.3330 
 186   2.0000      -0.522740       -14.2245 
 187   2.0000      -0.517368       -14.0783 
 188   2.0000      -0.514709       -14.0059 
 189   2.0000      -0.512782       -13.9535 
 190   2.0000      -0.509176       -13.8554 
 191   2.0000      -0.507204       -13.8017 
 192   2.0000      -0.505232       -13.7481 
 193   2.0000      -0.503741       -13.7075 
 194   2.0000      -0.501729       -13.6527 
 195   2.0000      -0.500082       -13.6079 
 196   2.0000      -0.496897       -13.5212 
 197   2.0000      -0.496348       -13.5063 
 198   2.0000      -0.494123       -13.4458 
 199   2.0000      -0.493913       -13.4401 
 200   2.0000      -0.491542       -13.3755 
 201   2.0000      -0.488878       -13.3030 
 202   2.0000      -0.485602       -13.2139 
 203   2.0000      -0.483558       -13.1583 
 204   2.0000      -0.478439       -13.0190 
 205   2.0000      -0.475802       -12.9472 
 206   2.0000      -0.474064       -12.8999 
 207   2.0000      -0.473686       -12.8897 
 208   2.0000      -0.468272       -12.7423 
 209   2.0000      -0.466419       -12.6919 
 210   2.0000      -0.466046       -12.6817 
 211   2.0000      -0.464811       -12.6482 
 212   2.0000      -0.461676       -12.5628 
 213   2.0000      -0.461060       -12.5461 
 214   2.0000      -0.458780       -12.4840 
 215   2.0000      -0.457384       -12.4460 
 216   2.0000      -0.454981       -12.3807 
 217   2.0000      -0.452900       -12.3240 
 218   2.0000      -0.450879       -12.2690 
 219   2.0000      -0.448989       -12.2176 
 220   2.0000      -0.447176       -12.1683 
 221   2.0000      -0.444734       -12.1018 
 222   2.0000      -0.442585       -12.0434 
 223   2.0000      -0.439829       -11.9684 
 224   2.0000      -0.436180       -11.8691 
 225   2.0000      -0.435176       -11.8417 
 226   2.0000      -0.434267       -11.8170 
 227   2.0000      -0.429829       -11.6962 
 228   2.0000      -0.427546       -11.6341 
 229   2.0000      -0.424441       -11.5496 
 230   2.0000      -0.422808       -11.5052 
 231   2.0000      -0.417574       -11.3628 
 232   2.0000      -0.417203       -11.3527 
 233   2.0000      -0.414186       -11.2706 
 234   2.0000      -0.413010       -11.2386 
 235   2.0000      -0.411528       -11.1982 
 236   2.0000      -0.407275       -11.0825 
 237   2.0000      -0.406302       -11.0560 
 238   2.0000      -0.403877       -10.9900 
 239   2.0000      -0.390621       -10.6293 
 240   2.0000      -0.385375       -10.4866 
[...]
  93      -0.870      21.1
  94      -0.422      13.8
  95       0.236      21.8
  96       0.352      16.6
  97       0.717      18.9
  98       0.726      21.5
  99       0.886      12.9
 100       1.117      13.2
 101       1.341      27.2

           eV        nm       excitation i->a                     eV 
   0      1.90     652.3    90 ->  91      gap,J,K:    3.165     2.316     0.526
   1      2.57     482.4    89 ->  91      gap,J,K:    3.400     0.831     0.000
   2      2.99     414.6    88 ->  91      gap,J,K:    4.409     2.128     0.354
   3      3.14     395.1    89 ->  92      gap,J,K:    4.392     2.735     0.740
   4      3.19     389.0    90 ->  93      gap,J,K:    4.702     2.262     0.373
   5      3.30     375.8    90 ->  92      gap,J,K:    4.157     0.859     0.000
   6      3.44     360.0    90 ->  94      gap,J,K:    5.150     2.073     0.183
   7      3.50     354.4    86 ->  91      gap,J,K:    4.956     1.695     0.119
   8      3.80     326.7    87 ->  91      gap,J,K:    4.887     1.119     0.014
   9      4.02     308.1    84 ->  91      gap,J,K:    5.631     1.989     0.192
  10      4.09     303.5    89 ->  93      gap,J,K:    4.937     0.853     0.000
  11      4.10     302.3    87 ->  92      gap,J,K:    5.879     2.127     0.175
  12      4.14     299.6    83 ->  91      gap,J,K:    5.850     2.017     0.153
  13      4.22     293.7    82 ->  91      gap,J,K:    5.947     2.255     0.265
  14      4.23     293.0    90 ->  95      gap,J,K:    5.808     2.075     0.249
  15      4.30     288.0    90 ->  97      gap,J,K:    6.289     2.012     0.013
  16      4.40     282.1    88 ->  93      gap,J,K:    5.946     2.103     0.276
  17      4.41     281.1    89 ->  94      gap,J,K:    5.385     0.979     0.003
  18      4.42     280.6    88 ->  92      gap,J,K:    5.401     0.983     0.001
  19      4.45     278.4    75 ->  91      gap,J,K:    6.578     2.395     0.135
  20      4.46     278.2    89 ->  96      gap,J,K:    6.159     2.525     0.411
  21      4.49     276.2    90 ->  98      gap,J,K:    6.298     1.839     0.015
  22      4.56     271.7    85 ->  91      gap,J,K:    5.496     0.938     0.003
  23      4.65     266.9    86 ->  92      gap,J,K:    5.948     1.337     0.018
  24      4.68     264.8    80 ->  91      gap,J,K:    6.342     1.883     0.112

average / max PT2 energy lowering (eV):       0.042       0.123

CSF included by PT:                   294 
total number of CSF included:         328 
 
sTD-DFT procedure...
setting up A+B and A-B matrices...  done
estimated time (min):    0.001
calculating (A-B)^0.5 ... done
calculating (A+B)*(A-B)^0.5 ... done
calculating (A-B)^0.5 *(A+B)*(A-B)^0.5 ... done
diagonalizing ...using LAPACKE_ssyevr ...done

   37 roots found, lowest/highest eigenvalue :     1.518     4.957

excitation energies, transition moments and amplitudes

molecular weight: 1029.288
state   eV        nm        fL         fV        Rl        RV
   0   1.518     816.6   0.882380   1.638057  109.547164  93.129733     0.99 (  90->  91)    0.01 (  88->  93)    0.00 (  90->  93)
   1   2.517     492.6   0.144791   0.164943  -23.389931  -22.568170     0.65 (  88->  91)    0.29 (  90->  93)    0.02 (  86->  91)
   2   2.556     485.1   0.024131   0.028868  -5.774953  -6.318615     0.97 (  89->  91)    0.01 (  89->  92)    0.00 (  87->  91)
   3   2.621     473.0   1.534297   1.816799  -165.110161  -186.188574     0.96 (  89->  92)    0.01 (  89->  91)    0.01 (  76->  92)
   4   2.989     414.7   0.732081   0.805697  -2.564046   2.952869     0.60 (  90->  93)    0.28 (  88->  91)    0.06 (  90->  94)
   5   3.250     381.4   0.546303   0.557723  -21.456075  -19.553815     0.60 (  90->  94)    0.30 (  90->  92)    0.03 (  88->  91)
   6   3.288     377.1   0.158111   0.160279  -15.351215  -17.849912     0.66 (  90->  92)    0.25 (  90->  94)    0.03 (  86->  91)
   7   3.316     373.9   0.153058   0.163470  -14.271822  -11.422881     0.77 (  86->  91)    0.10 (  87->  91)    0.05 (  90->  93)
   8   3.644     340.2   0.049282   0.046671  -1.640831  -1.313774     0.46 (  84->  91)    0.27 (  90->  95)    0.17 (  83->  91)
   9   3.720     333.3   0.000214   0.000190   0.016081   0.029345     0.56 (  90->  97)    0.41 (  90->  98)    0.01 (  90-> 102)
  10   3.778     328.2   0.017201   0.014887  37.372175  35.429464     0.58 (  87->  92)    0.15 (  89->  96)    0.12 (  87->  91)
  11   3.800     326.3   0.001353   0.001362   3.691494   2.541573     0.66 (  87->  91)    0.08 (  86->  91)    0.07 (  87->  92)
  12   3.852     321.9   0.063168   0.055288  -7.701062  -7.091088     0.47 (  82->  91)    0.20 (  90->  95)    0.18 (  75->  91)
  13   3.912     316.9   0.016799   0.016838  29.205377  32.462360     0.40 (  89->  96)    0.15 (  87->  92)    0.11 (  85->  92)
  14   3.917     316.5   0.183769   0.164368  10.547115  14.013781     0.53 (  83->  91)    0.29 (  84->  91)    0.02 (  90->  95)
  15   4.045     306.5   0.001760   0.001565   7.509184   5.969941     0.76 (  89->  93)    0.08 (  89->  96)    0.07 (  89->  94)
  16   4.121     300.9   0.045150   0.036534   0.715930   1.065169     0.37 (  82->  91)    0.27 (  90->  95)    0.11 (  83->  91)
  17   4.169     297.4   0.058825   0.062525  -5.145715  -3.684599     0.76 (  88->  93)    0.04 (  80->  91)    0.03 (  84->  91)
  18   4.195     295.5   0.000014   0.000029   0.734031   0.816680     0.65 (  78->  91)    0.19 (  78->  94)    0.14 (  78->  93)
  19   4.232     293.0   0.017904   0.013495  -0.726852  -1.638509     0.42 (  75->  91)    0.18 (  80->  91)    0.08 (  82->  91)
  20   4.257     291.2   0.004346   0.003997  -11.901911  -12.225119     0.68 (  88->  92)    0.23 (  86->  92)    0.02 (  87->  92)
  21   4.333     286.2   0.084912   0.075597  63.100573  48.341539     0.27 (  81->  92)    0.23 (  85->  92)    0.08 (  89->  94)
  22   4.346     285.3   0.059822   0.059495  -7.335437  -2.612914     0.24 (  90->  99)    0.22 (  80->  91)    0.17 (  75->  91)
  23   4.351     285.0   0.080249   0.066834  -20.692097  -29.909629     0.24 (  89->  94)    0.22 (  85->  92)    0.14 (  89-> 104)
  24   4.416     280.8   0.003528   0.003452   1.339366   0.787092     0.39 (  89->  94)    0.34 (  89-> 104)    0.08 (  89-> 101)
  25   4.480     276.7   0.059187   0.054894  25.094333  22.947494     0.33 (  88->  94)    0.12 (  86->  93)    0.09 (  86->  94)
  26   4.557     272.1   0.001887   0.001576  -2.194825  -1.809834     0.90 (  85->  91)    0.02 (  84->  91)    0.02 (  81->  91)
  27   4.567     271.5   0.114479   0.094628  -27.178084  -27.660334     0.25 (  74->  91)    0.23 (  73->  91)    0.18 (  72->  91)
  28   4.613     268.7   0.036759   0.035044  -13.646012  -9.249188     0.41 (  88->  94)    0.08 (  90->  98)    0.06 (  86->  94)
  29   4.633     267.6   0.061476   0.057798  25.553394   1.571962     0.33 (  81->  92)    0.11 (  89-> 104)    0.10 (  89->  98)
  30   4.669     265.5   0.071649   0.066753  -0.539955  -0.762078     0.37 (  90->  99)    0.20 (  80->  91)    0.07 (  88->  94)
  31   4.722     262.5   0.101946   0.083469  -24.676944   3.784951     0.20 (  89-> 104)    0.17 (  85->  92)    0.15 (  89->  98)
  32   4.744     261.4   0.013681   0.011902  -15.519894  -14.405274     0.56 (  86->  92)    0.26 (  88->  92)    0.05 (  87->  92)
  33   4.830     256.7   0.014373   0.013543   6.733895   7.342103     0.32 (  86->  93)    0.13 (  90->  98)    0.09 (  90->  97)
  34   4.882     253.9   0.007502   0.007242  15.775100  13.364899     0.18 (  90->  96)    0.16 (  90-> 100)    0.10 (  86->  93)
  35   4.886     253.8   0.000093   0.000151   2.202984   2.522551     0.26 (  90-> 102)    0.18 (  90-> 105)    0.11 (  90-> 106)
  36   4.957     250.1   0.047515   0.039800   5.227009   5.223024     0.36 (  90->  96)    0.28 (  79->  91)    0.08 (  80->  91)

-----------------------------------------------------------------------------
         ABSORPTION SPECTRUM VIA TRANSITION ELECTRIC DIPOLE MOMENTS
-----------------------------------------------------------------------------
State   Energy  Wavelength   fosc         T2         TX        TY        TZ  
        (cm-1)    (nm)                  (au**2)     (au)      (au)      (au) 
-----------------------------------------------------------------------------
   0   12245.4    816.6   0.882379874  23.72243   1.38252  -4.07911  -2.27418
   1   20300.3    492.6   0.144791211   2.34809  -0.99894   0.83854  -0.80440
   2   20616.3    485.1   0.024130691   0.38533  -0.45271   0.32872  -0.26895
   3   21139.9    473.0   1.534297050  23.89366   3.48641  -2.64363   2.17942
   4   24111.1    414.7   0.732080669   9.99579  -1.96354   1.29148  -2.11480
   5   26216.1    381.4   0.546303216   6.86027   1.70811  -1.17336   1.60183
   6   26521.5    377.1   0.158111264   1.96264   0.94220  -0.66517   0.79527
   7   26743.7    373.9   0.153058298   1.88413  -0.78911   0.34777  -1.06794
   8   29390.9    340.2   0.049282206   0.55202  -0.24756   0.60044   0.36083
   9   30002.6    333.3   0.000214444   0.00235  -0.04091  -0.01984   0.01690
  10   30471.2    328.2   0.017200832   0.18584  -0.35946  -0.23796   0.00053
  11   30645.8    326.3   0.001352553   0.01453   0.03045  -0.09426   0.06868
  12   31065.6    321.9   0.063167824   0.66941  -0.50768   0.64002  -0.04523
  13   31551.5    316.9   0.016799480   0.17529   0.25034   0.32160  -0.09585
  14   31592.7    316.5   0.183768945   1.91496   0.91314  -0.88764   0.54150
  15   32624.1    306.5   0.001760016   0.01776   0.08705   0.06083   0.08052
  16   33238.3    300.9   0.045150453   0.44720   0.41682  -0.34480   0.39316
  17   33627.6    297.4   0.058824863   0.57589   0.31014  -0.58823  -0.36563
  18   33838.7    295.5   0.000014120   0.00014   0.01034  -0.00437  -0.00339
  19   34132.3    293.0   0.017904272   0.17269  -0.26937   0.27820  -0.15077
  20   34338.1    291.2   0.004346497   0.04167   0.15424  -0.02086  -0.13208
  21   34946.3    286.2   0.084912095   0.79991   0.80095   0.28852  -0.27414
  22   35056.2    285.3   0.059822259   0.56179  -0.35079  -0.08396  -0.65703
  23   35093.0    285.0   0.080248943   0.75283   0.23549   0.24208  -0.79923
  24   35617.0    280.8   0.003527781   0.03261  -0.16265   0.01732  -0.07650
  25   36136.4    276.7   0.059187088   0.53921   0.33281   0.18728   0.62720
  26   36755.0    272.1   0.001886507   0.01690  -0.10252   0.04261  -0.06761
  27   36835.6    271.5   0.114479178   1.02314  -0.66191   0.62365  -0.44281
  28   37209.3    268.7   0.036759001   0.32523  -0.44863   0.11809  -0.33169
  29   37366.7    267.6   0.061475968   0.54162  -0.67939  -0.10917   0.26101
  30   37659.4    265.5   0.071649363   0.62635  -0.28301   0.63633   0.37594
  31   38089.2    262.5   0.101945561   0.88113  -0.58970  -0.22582   0.69454
  32   38259.2    261.4   0.013680511   0.11772  -0.29808   0.00975   0.16962
  33   38953.8    256.7   0.014373197   0.12147   0.23585  -0.23908  -0.09322
  34   39378.6    253.9   0.007502242   0.06272  -0.15396   0.12372   0.15398
  35   39408.5    253.8   0.000093481   0.00078   0.00396   0.02127  -0.01769
  36   39981.8    250.1   0.047514872   0.39124  -0.28293   0.54289   0.12829

-----------------------------------------------------------------------------
         ABSORPTION SPECTRUM VIA TRANSITION VELOCITY DIPOLE MOMENTS
-----------------------------------------------------------------------------
State   Energy  Wavelength   fosc         P2         PX        PY        PZ  
        (cm-1)    (nm)                  (au**2)     (au)      (au)      (au) 
-----------------------------------------------------------------------------
   0   12245.4    816.6   1.638057242   0.13709   0.10846  -0.31053  -0.17000
   1   20300.3    492.6   0.164942660   0.02288  -0.09877   0.08511  -0.07672
   2   20616.3    485.1   0.028867695   0.00407  -0.04652   0.03378  -0.02761
   3   21139.9    473.0   1.816798589   0.26249   0.36679  -0.27733   0.22593
   4   24111.1    414.7   0.805696820   0.13277  -0.22605   0.14873  -0.24403
   5   26216.1    381.4   0.557722570   0.09993   0.20636  -0.14350   0.19170
   6   26521.5    377.1   0.160278960   0.02905   0.11500  -0.08227   0.09518
   7   26743.7    373.9   0.163469847   0.02988  -0.09764   0.04020  -0.13686
   8   29390.9    340.2   0.046670681   0.00937  -0.03077   0.07787   0.04862
   9   30002.6    333.3   0.000189929   0.00004  -0.00532  -0.00257   0.00200
  10   30471.2    328.2   0.014886529   0.00310  -0.04634  -0.03086  -0.00015
  11   30645.8    326.3   0.001362047   0.00029   0.00518  -0.01232   0.01033
  12   31065.6    321.9   0.055288457   0.01174  -0.06681   0.08515  -0.00489
  13   31551.5    316.9   0.016838469   0.00363   0.03651   0.04623  -0.01269
  14   31592.7    316.5   0.164367756   0.03549   0.12384  -0.12238   0.07194
  15   32624.1    306.5   0.001565166   0.00035   0.01316   0.00954   0.00921
  16   33238.3    300.9   0.036533824   0.00830   0.05559  -0.04080   0.05954
  17   33627.6    297.4   0.062525456   0.01437   0.05042  -0.09389  -0.05489
  18   33838.7    295.5   0.000028629   0.00001   0.00232  -0.00021  -0.00110
  19   34132.3    293.0   0.013494912   0.00315  -0.03628   0.03951  -0.01647
  20   34338.1    291.2   0.003997057   0.00094   0.02228  -0.00232  -0.02089
  21   34946.3    286.2   0.075596841   0.01806   0.11805   0.04637  -0.04438
  22   35056.2    285.3   0.059494990   0.01425  -0.05359  -0.01547  -0.10556
  23   35093.0    285.0   0.066834038   0.01603   0.03289   0.03298  -0.11773
  24   35617.0    280.8   0.003451538   0.00084  -0.02583  -0.00120  -0.01310
  25   36136.4    276.7   0.054893916   0.01356   0.05513   0.02843   0.09853
  26   36755.0    272.1   0.001575662   0.00040  -0.01544   0.00616  -0.01092
  27   36835.6    271.5   0.094627686   0.02382  -0.10129   0.09423  -0.06844
  28   37209.3    268.7   0.035043644   0.00891  -0.07196   0.01566  -0.05906
  29   37366.7    267.6   0.057798368   0.01476  -0.10834  -0.01650   0.05244
  30   37659.4    265.5   0.066753334   0.01718  -0.04735   0.10543   0.06184
  31   38089.2    262.5   0.083469080   0.02173  -0.09795  -0.03819   0.10332
  32   38259.2    261.4   0.011902121   0.00311  -0.04852   0.00120   0.02751
  33   38953.8    256.7   0.013543144   0.00361   0.04086  -0.04176  -0.01386
  34   39378.6    253.9   0.007242179   0.00195  -0.02469   0.02223   0.02908
  35   39408.5    253.8   0.000151369   0.00004   0.00011   0.00410  -0.00489
  36   39981.8    250.1   0.039799609   0.01088  -0.04801   0.09060   0.01904

-------------------------------------------------------------------
                             CD SPECTRUM
-------------------------------------------------------------------
State   Energy Wavelength       R         MX        MY        MZ   
        (cm-1)   (nm)       (1e40*cgs)   (au)      (au)      (au)  
-------------------------------------------------------------------
   0   12245.4    816.6    109.54716   7.92066   4.96499  -3.88603
   1   20300.3    492.6    -23.38993  -3.32393  -2.38118   1.52219
   2   20616.3    485.1     -5.77495  -0.67043  -0.85333  -0.00556
   3   21139.9    473.0    -165.11016   4.87107   6.92464   0.92874
   4   24111.1    414.7     -2.56405  -8.14917  -5.37457   4.27898
   5   26216.1    381.4    -21.45608   5.90425   4.04029  -3.27958
   6   26521.5    377.1    -15.35121   3.13952   2.13536  -1.85165
   7   26743.7    373.9    -14.27182  -3.30171  -2.21121   1.66289
   8   29390.9    340.2     -1.64083  -0.56014  -0.41454   0.32482
   9   30002.6    333.3      0.01608   0.06995  -0.11033   0.03575
  10   30471.2    328.2     37.37218   0.15857   0.43021   1.57245
  11   30645.8    326.3      3.69149   0.37928   0.33476   0.06328
  12   31065.6    321.9     -7.70106  -1.37176  -0.97959   0.81347
  13   31551.5    316.9     29.20538  -0.37106  -0.58720  -1.64674
  14   31592.7    316.5     10.54711   3.33529   2.47810  -1.64480
  15   32624.1    306.5      7.50918  -0.02901  -0.01121  -0.35580
  16   33238.3    300.9      0.71593   1.73500   1.12423  -0.86117
  17   33627.6    297.4     -5.14572   0.48518   0.49356  -0.44221
  18   33838.7    295.5      0.73403  -0.03798   0.36265   0.33592
  19   34132.3    293.0     -0.72685  -0.91510  -0.60629   0.49578
  20   34338.1    291.2    -11.90191  -0.07801  -0.03490  -0.46786
  21   34946.3    286.2     63.10057  -0.89561  -0.83432  -2.51834
  22   35056.2    285.3     -7.33544  -2.10606  -1.30717   1.24411
  23   35093.0    285.0    -20.69210  -1.75090  -1.57213  -1.10192
  24   35617.0    280.8      1.33937  -0.18086  -0.19076   0.41559
  25   36136.4    276.7     25.09433   0.38280   0.39862  -0.49189
  26   36755.0    272.1     -2.19483  -0.39046  -0.30212   0.26392
  27   36835.6    271.5    -27.17808  -4.55158  -3.00182   2.31555
  28   37209.3    268.7    -13.64601  -1.08363  -0.91788   0.96434
  29   37366.7    267.6     25.55339   0.70782   0.13134   1.48203
  30   37659.4    265.5     -0.53995  -0.98143  -0.79783   0.61771
  31   38089.2    262.5    -24.67694   1.38537   0.91303   1.62385
  32   38259.2    261.4    -15.51989   0.17503  -0.01322   0.69649
  33   38953.8    256.7      6.73390   0.08902   0.28938  -0.21050
  34   39378.6    253.9     15.77510   0.61804   0.21554   0.01016
  35   39408.5    253.8      2.20298  -0.30101  -0.20603   0.21328
  36   39981.8    250.1      5.22701  -1.36239  -0.89199   0.59727

sTD-DFT done

Total run time:        3.266 sec

           *** ORCA-CIS/TD-DFT FINISHED WITHOUT ERROR ***

-------------------------   --------------------
FINAL SINGLE POINT ENERGY     -5458.533826554034
-------------------------   --------------------


                            ***************************************
                            *     ORCA property calculations      *
                            ***************************************

                                    ---------------------
                                    Active property flags
                                    ---------------------
   (+) Dipole Moment


------------------------------------------------------------------------------
                       ORCA ELECTRIC PROPERTIES CALCULATION
------------------------------------------------------------------------------

Dipole Moment Calculation                       ... on
Quadrupole Moment Calculation                   ... off
Polarizability Calculation                      ... off
GBWName                                         ... xtbopt.gbw
Electron density file                           ... xtbopt.scfp
The origin for moment calculation is the CENTER OF MASS  = ( 5.119125, -14.092248 -15.622685)

-------------
DIPOLE MOMENT
-------------
                                X             Y             Z
Electronic contribution:    -17.98059     -34.79451     -29.84584
Nuclear contribution   :     18.89374      33.30500      27.82276
                        -----------------------------------------
Total Dipole Moment    :      0.91315      -1.48951      -2.02308
                        -----------------------------------------
Magnitude (a.u.)       :      2.67308
Magnitude (Debye)      :      6.79442



--------------------
Rotational spectrum 
--------------------
 
Rotational constants in cm-1:     0.001030     0.000307     0.000245 
Rotational constants in MHz :    30.870442     9.209600     7.340988 

 Dipole components along the rotational axes: 
x,y,z [a.u.] :     0.482374     2.388568    -1.098817 
x,y,z [Debye]:     1.226097     6.071256    -2.792971 

 

Timings for individual modules:

Sum of individual times         ...      576.734 sec (=   9.612 min)
GTO integral calculation        ...        2.816 sec (=   0.047 min)   0.5 %
SCF iterations                  ...      569.920 sec (=   9.499 min)  98.8 %
CIS module                      ...        3.998 sec (=   0.067 min)   0.7 %
                             ****ORCA TERMINATED NORMALLY****
TOTAL RUN TIME: 0 days 0 hours 9 minutes 37 seconds 737 msec
