
                                 *****************
                                 * O   R   C   A *
                                 *****************

           --- An Ab Initio, DFT and Semiempirical electronic structure package ---

                  #######################################################
                  #                        -***-                        #
                  #          Department of theory and spectroscopy      #
                  #               Directorship: Frank Neese             #
                  #        Max Planck Institute fuer Kohlenforschung    #
                  #                Kaiser Wilhelm Platz 1               #
                  #                 D-45470 Muelheim/Ruhr               #
                  #                      Germany                        #
                  #                                                     #
                  #                  All rights reserved                #
                  #                        -***-                        #
                  #######################################################


                         Program Version 4.2.0 -  RELEASE  -


 With contributions from (in alphabetic order):
   Daniel Aravena         : Magnetic Suceptibility
   Michael Atanasov       : Ab Initio Ligand Field Theory (pilot matlab implementation)
   Alexander A. Auer      : GIAO ZORA, VPT2
   Ute Becker             : Parallelization
   Giovanni Bistoni       : ED, misc. LED, open-shell LED, HFLED
   Martin Brehm           : Molecular dynamics
   Dmytro Bykov           : SCF Hessian
   Vijay G. Chilkuri      : MRCI spin determinant printing, contributions to CSF-ICE
   Dipayan Datta          : RHF DLPNO-CCSD density
   Achintya Kumar Dutta   : EOM-CC, STEOM-CC
   Dmitry Ganyushin       : Spin-Orbit,Spin-Spin,Magnetic field MRCI
   Miquel Garcia          : C-PCM Hessian, Gaussian charge scheme
   Yang Guo               : DLPNO-NEVPT2, CIM, IAO-localization
   Andreas Hansen         : Spin unrestricted coupled pair/coupled cluster methods
   Benjamin Helmich-Paris : CASSCF linear response (MC-RPA)
   Lee Huntington         : MR-EOM, pCC
   Robert Izsak           : Overlap fitted RIJCOSX, COSX-SCS-MP3, EOM
   Christian Kollmar      : KDIIS, OOCD, Brueckner-CCSD(T), CCSD density
   Simone Kossmann        : Meta GGA functionals, TD-DFT gradient, OOMP2, MP2 Hessian
   Martin Krupicka        : AUTO-CI
   Lucas Lang             : DCDCAS
   Dagmar Lenk            : GEPOL surface, SMD
   Dimitrios Liakos       : Extrapolation schemes; Compound Job, initial MDCI parallelization
   Dimitrios Manganas     : Further ROCIS development; embedding schemes
   Dimitrios Pantazis     : SARC Basis sets
   Taras Petrenko         : DFT Hessian,TD-DFT gradient, ASA, ECA, R-Raman, ABS, FL, XAS/XES, NRVS
   Peter Pinski           : DLPNO-MP2, DLPNO-MP2 Gradient
   Christoph Reimann      : Effective Core Potentials
   Marius Retegan         : Local ZFS, SOC
   Christoph Riplinger    : Optimizer, TS searches, QM/MM, DLPNO-CCSD(T), (RO)-DLPNO pert. Triples
   Tobias Risthaus        : Range-separated hybrids, TD-DFT gradient, RPA, STAB
   Michael Roemelt        : Original ROCIS implementation
   Masaaki Saitow         : Open-shell DLPNO-CCSD energy and density
   Barbara Sandhoefer     : DKH picture change effects
   Avijit Sen             : IP-ROCIS
   Kantharuban Sivalingam : CASSCF convergence, NEVPT2, FIC-MRCI
   Bernardo de Souza      : ESD, SOC TD-DFT
   Georgi Stoychev        : AutoAux, RI-MP2 NMR
   Willem Van den Heuvel  : Paramagnetic NMR
   Boris Wezisla          : Elementary symmetry handling
   Frank Wennmohs         : Technical directorship


 We gratefully acknowledge several colleagues who have allowed us to
 interface, adapt or use parts of their codes:
   Stefan Grimme, W. Hujo, H. Kruse,             : VdW corrections, initial TS optimization,
                  C. Bannwarth                     DFT functionals, gCP, sTDA/sTD-DF
   Ed Valeev, F. Pavosevic, A. Kumar             : LibInt (2-el integral package), F12 methods
   Garnet Chan, S. Sharma, J. Yang, R. Olivares  : DMRG
   Ulf Ekstrom                                   : XCFun DFT Library
   Mihaly Kallay                                 : mrcc  (arbitrary order and MRCC methods)
   Andreas Klamt, Michael Diedenhofen            : otool_cosmo (COSMO solvation model)
   Jiri Pittner, Ondrej Demel                    : Mk-CCSD
   Frank Weinhold                                : gennbo (NPA and NBO analysis)
   Christopher J. Cramer and Donald G. Truhlar   : smd solvation model
   Lars Goerigk                                  : TD-DFT with DH, B97 family of functionals
   V. Asgeirsson, H. Jonsson                     : NEB implementation
   FAccTs GmbH                                   : IRC, NEB, NEB-TS, Multilevel, MM, QM/MM, CI optimization
   S Lehtola, MJT Oliveira, MAL Marques          : LibXC Library


 Your calculation uses the libint2 library for the computation of 2-el integrals
 For citations please refer to: http://libint.valeyev.net

 Your ORCA version has been built with support for libXC version: 4.2.3
 For citations please refer to: https://tddft.org/programs/libxc/

 This ORCA versions uses:
   CBLAS   interface :  Fast vector & matrix operations
   LAPACKE interface :  Fast linear algebra routines
   SCALAPACK package :  Parallel linear algebra routines


XCFun DFT library Copyright 2009-2010 Ulf Ekstrom and contributors.
See http://admol.org/xcfun for more information. This is free soft-
ware; see the source code for copying conditions. There is ABSOLUTELY
NO WARRANTY; not even for MERCHANTABILITY or FITNESS FOR A PARTICULAR
PURPOSE. For details see the documentation. Scientific users of this 
library should cite U. Ekstrom, L. Visscher, R. Bast, A. J. Thorvald-
sen and K. Ruud; J.Chem.Theor.Comp. 2010, DOI: 10.1021/ct100117s
XCFun Version 0.99 
----- Orbital basis set information -----
Your calculation utilizes the basis: def2-SVP
   F. Weigend and R. Ahlrichs, Phys. Chem. Chem. Phys. 7, 3297 (2005).

----- AuxJ basis set information -----
Your calculation utilizes the auxiliary basis: def2/J
   F. Weigend, Phys. Chem. Chem. Phys. 8, 1057 (2006).

================================================================================
                                        WARNINGS
                       Please study these warnings very carefully!
================================================================================

INFO   : Checking CIS options ...

WARNING: CIS/ROCIS methods need fully converged wavefunctions
  ===> : Setting SCFConvForced true
         You can overwrite this default with %scf ConvForced false 


INFO   : the flag for use of LIBINT has been found!

================================================================================
                                       INPUT FILE
================================================================================
NAME = xtbopt.inp
|  1> # ORCA input file
|  2> # SCF done       -145.363741665122          0.000177289030
|  3> ! CAM-B3LYP def2-SVP def2/J RIJCOSX Grid4 TightSCF
|  4> %maxcore 5000
|  5> %tddft
|  6>     Mode sTDDFT
|  7>     Ethresh 5.0
|  8>     maxcore 5000
|  9> end
| 10> 
| 11> %pal
| 12>   nprocs 6
| 13>   end
| 14> * xyz 0 1
| 15>    C       26.57926       -17.10007         9.65498
| 16>    C       26.04687       -16.01614         9.06488
| 17>    C       26.72774       -14.87909         8.53016
| 18>    C       25.90723       -13.94214         7.98708
| 19>    C       24.53290       -14.26385         8.05005
| 20>    S       24.30349       -15.80916         8.83503
| 21>    C       23.46838       -13.51637         7.56082
| 22>    C       23.51153       -12.28262         6.89656
| 23>    C       22.27537       -11.82385         6.50555
| 24>    C       21.21621       -12.66922         6.84550
| 25>    S       21.81552       -14.07427         7.69532
| 26>    C       19.86439       -12.48994         6.52927
| 27>    C       18.86061       -13.35609         6.86278
| 28>    C       17.52726       -13.23023         6.44350
| 29>    C       16.48018       -14.11070         6.69730
| 30>    C       15.29950       -13.77763         6.05774
| 31>    C       15.38918       -12.62198         5.29030
| 32>    S       16.98475       -11.93223         5.40556
| 33>    C       14.41959       -12.06950         4.43032
| 34>    C       13.20416       -12.63193         4.05340
| 35>    C       12.55402       -11.90909         3.07308
| 36>    C       13.22694       -10.75209         2.67899
| 37>    S       14.69798       -10.56621         3.59339
| 38>    C       12.83866        -9.93568         1.60572
| 39>    C       13.37305        -8.74302         1.20028
| 40>    S       12.88608        -8.05384        -0.35671
| 41>    C       13.87177        -6.60133        -0.16749
| 42>    C       14.51149        -6.68037         1.08461
| 43>    C       14.28034        -7.84796         1.82217
| 44>    N       14.92127        -7.90174         3.01318
| 45>    C       15.62589        -6.85487         3.21213
| 46>    S       15.58953        -5.64099         1.94275
| 47>    C       13.99192        -5.60423        -1.10232
| 48>    C       13.51926        -5.62961        -2.41930
| 49>    C       13.63774        -4.61320        -3.36721
| 50>    C       13.19422        -4.96563        -4.62768
| 51>    C       12.72549        -6.27325        -4.70365
| 52>    S       12.79818        -7.04466        -3.14220
| 53>    C       12.31867        -7.00058        -5.83821
| 54>    C       12.18058        -6.56694        -7.15168
| 55>    C       11.85881        -7.58060        -8.03737
| 56>    C       11.73993        -8.83406        -7.44441
| 57>    S       12.01041        -8.71181        -5.72224
| 58>    C       11.50583       -10.06524        -8.07646
| 59>    C       11.44728       -11.26304        -7.41894
| 60>    C       11.31016       -12.51741        -8.02318
| 61>    C       11.26378       -13.75288        -7.37124
| 62>    C       11.17367       -14.83359        -8.21596
| 63>    C       11.14864       -14.48472        -9.57384
| 64>    S       11.22622       -12.74562        -9.75407
| 65>    C       11.09213       -15.33405       -10.67197
| 66>    C       11.04232       -16.74635       -10.65936
| 67>    C       11.01370       -17.31741       -11.89161
| 68>    C       11.03926       -16.38239       -12.97221
| 69>    S       11.09632       -14.73875       -12.31587
| 70>    C       11.02747       -16.63959       -14.29130
| 71>    H       27.64417       -17.19064         9.77492
| 72>    H       25.96608       -17.90265        10.02092
| 73>    H       27.79995       -14.80815         8.57047
| 74>    H       26.25035       -13.02661         7.53866
| 75>    H       24.43280       -11.76067         6.71134
| 76>    H       22.11467       -10.90061         5.97683
| 77>    H       19.61946       -11.60663         5.95228
| 78>    H       19.09787       -14.22824         7.45921
| 79>    H       16.60183       -14.97700         7.32335
| 80>    H       14.39413       -14.35229         6.13377
| 81>    H       12.83485       -13.55430         4.46383
| 82>    H       11.61664       -12.19993         2.63229
| 83>    H       12.03493       -10.33053         0.99614
| 84>    H       16.21697        -6.69219         4.09066
| 85>    H       14.55512        -4.72770        -0.80633
| 86>    H       14.05377        -3.65176        -3.12237
| 87>    H       13.22941        -4.31197        -5.48056
| 88>    H       12.31994        -5.54029        -7.43911
| 89>    H       11.72290        -7.43428        -9.09444
| 90>    H       11.39815       -10.04788        -9.15354
| 91>    H       11.53536       -11.26393        -6.33909
| 92>    H       11.30224       -13.82747        -6.29855
| 93>    H       11.13231       -15.85489        -7.88333
| 94>    H       11.03100       -17.30043        -9.73747
| 95>    H       10.97710       -18.37585       -12.07790
| 96>    H       10.99425       -17.65257       -14.65106
| 97>    H       11.05172       -15.85164       -15.02106
| 98> *
| 99> 
|100>                          ****END OF INPUT****
================================================================================

                       ****************************
                       * Single Point Calculation *
                       ****************************

---------------------------------
CARTESIAN COORDINATES (ANGSTROEM)
---------------------------------
  C     26.579260  -17.100070    9.654980
  C     26.046870  -16.016140    9.064880
  C     26.727740  -14.879090    8.530160
  C     25.907230  -13.942140    7.987080
  C     24.532900  -14.263850    8.050050
  S     24.303490  -15.809160    8.835030
  C     23.468380  -13.516370    7.560820
  C     23.511530  -12.282620    6.896560
  C     22.275370  -11.823850    6.505550
  C     21.216210  -12.669220    6.845500
  S     21.815520  -14.074270    7.695320
  C     19.864390  -12.489940    6.529270
  C     18.860610  -13.356090    6.862780
  C     17.527260  -13.230230    6.443500
  C     16.480180  -14.110700    6.697300
  C     15.299500  -13.777630    6.057740
  C     15.389180  -12.621980    5.290300
  S     16.984750  -11.932230    5.405560
  C     14.419590  -12.069500    4.430320
  C     13.204160  -12.631930    4.053400
  C     12.554020  -11.909090    3.073080
  C     13.226940  -10.752090    2.678990
  S     14.697980  -10.566210    3.593390
  C     12.838660   -9.935680    1.605720
  C     13.373050   -8.743020    1.200280
  S     12.886080   -8.053840   -0.356710
  C     13.871770   -6.601330   -0.167490
  C     14.511490   -6.680370    1.084610
  C     14.280340   -7.847960    1.822170
  N     14.921270   -7.901740    3.013180
  C     15.625890   -6.854870    3.212130
  S     15.589530   -5.640990    1.942750
  C     13.991920   -5.604230   -1.102320
  C     13.519260   -5.629610   -2.419300
  C     13.637740   -4.613200   -3.367210
  C     13.194220   -4.965630   -4.627680
  C     12.725490   -6.273250   -4.703650
  S     12.798180   -7.044660   -3.142200
  C     12.318670   -7.000580   -5.838210
  C     12.180580   -6.566940   -7.151680
  C     11.858810   -7.580600   -8.037370
  C     11.739930   -8.834060   -7.444410
  S     12.010410   -8.711810   -5.722240
  C     11.505830  -10.065240   -8.076460
  C     11.447280  -11.263040   -7.418940
  C     11.310160  -12.517410   -8.023180
  C     11.263780  -13.752880   -7.371240
  C     11.173670  -14.833590   -8.215960
  C     11.148640  -14.484720   -9.573840
  S     11.226220  -12.745620   -9.754070
  C     11.092130  -15.334050  -10.671970
  C     11.042320  -16.746350  -10.659360
  C     11.013700  -17.317410  -11.891610
  C     11.039260  -16.382390  -12.972210
  S     11.096320  -14.738750  -12.315870
  C     11.027470  -16.639590  -14.291300
  H     27.644170  -17.190640    9.774920
  H     25.966080  -17.902650   10.020920
  H     27.799950  -14.808150    8.570470
  H     26.250350  -13.026610    7.538660
  H     24.432800  -11.760670    6.711340
  H     22.114670  -10.900610    5.976830
  H     19.619460  -11.606630    5.952280
  H     19.097870  -14.228240    7.459210
  H     16.601830  -14.977000    7.323350
  H     14.394130  -14.352290    6.133770
  H     12.834850  -13.554300    4.463830
  H     11.616640  -12.199930    2.632290
  H     12.034930  -10.330530    0.996140
  H     16.216970   -6.692190    4.090660
  H     14.555120   -4.727700   -0.806330
  H     14.053770   -3.651760   -3.122370
  H     13.229410   -4.311970   -5.480560
  H     12.319940   -5.540290   -7.439110
  H     11.722900   -7.434280   -9.094440
  H     11.398150  -10.047880   -9.153540
  H     11.535360  -11.263930   -6.339090
  H     11.302240  -13.827470   -6.298550
  H     11.132310  -15.854890   -7.883330
  H     11.031000  -17.300430   -9.737470
  H     10.977100  -18.375850  -12.077900
  H     10.994250  -17.652570  -14.651060
  H     11.051720  -15.851640  -15.021060

----------------------------
CARTESIAN COORDINATES (A.U.)
----------------------------
  NO LB      ZA    FRAG     MASS         X           Y           Z
   0 C     6.0000    0    12.011   50.227522  -32.314449   18.245268
   1 C     6.0000    0    12.011   49.221451  -30.266118   17.130141
   2 C     6.0000    0    12.011   50.508109  -28.117405   16.119666
   3 C     6.0000    0    12.011   48.957570  -26.346826   15.093394
   4 C     6.0000    0    12.011   46.360462  -26.954770   15.212390
   5 S    16.0000    0    32.060   45.926940  -29.874983   16.695787
   6 C     6.0000    0    12.011   44.348811  -25.542238   14.287879
   7 C     6.0000    0    12.011   44.430353  -23.210788   13.032610
   8 C     6.0000    0    12.011   42.094349  -22.343838   12.293708
   9 C     6.0000    0    12.011   40.092826  -23.941356   12.936120
  10 S    16.0000    0    32.060   41.225358  -26.596516   14.542047
  11 C     6.0000    0    12.011   37.538257  -23.602566   12.338532
  12 C     6.0000    0    12.011   35.641388  -25.239352   12.968775
  13 C     6.0000    0    12.011   33.121721  -25.001511   12.176450
  14 C     6.0000    0    12.011   31.143027  -26.665359   12.656063
  15 C     6.0000    0    12.011   28.911865  -26.035947   11.447470
  16 C     6.0000    0    12.011   29.081336  -23.852085    9.997218
  17 S    16.0000    0    32.060   32.096526  -22.548647   10.215028
  18 C     6.0000    0    12.011   27.249076  -22.808050    8.372091
  19 C     6.0000    0    12.011   24.952246  -23.870888    7.659816
  20 C     6.0000    0    12.011   23.723660  -22.504919    5.807280
  21 C     6.0000    0    12.011   24.995294  -20.318505    5.062557
  22 S    16.0000    0    32.060   27.775157  -19.967243    6.790523
  23 C     6.0000    0    12.011   24.261551  -18.775714    3.034371
  24 C     6.0000    0    12.011   25.271402  -16.521913    2.268200
  25 S    16.0000    0    32.060   24.351162  -15.219552   -0.674084
  26 C     6.0000    0    12.011   26.213846  -12.474706   -0.316510
  27 C     6.0000    0    12.011   27.422742  -12.624070    2.049616
  28 C     6.0000    0    12.011   26.985932  -14.830495    3.443402
  29 N     7.0000    0    14.007   28.197114  -14.932125    5.694085
  30 C     6.0000    0    12.011   29.528653  -12.953827    6.070046
  31 S    16.0000    0    32.060   29.459942  -10.659926    3.671265
  32 C     6.0000    0    12.011   26.440897  -10.590460   -2.083083
  33 C     6.0000    0    12.011   25.547699  -10.638421   -4.571814
  34 C     6.0000    0    12.011   25.771594   -8.717685   -6.363105
  35 C     6.0000    0    12.011   24.933462   -9.383681   -8.745048
  36 C     6.0000    0    12.011   24.047691  -11.854724   -8.888610
  37 S    16.0000    0    32.060   24.185055  -13.312478   -5.937897
  38 C     6.0000    0    12.011   23.278913  -13.229179  -11.032618
  39 C     6.0000    0    12.011   23.017960  -12.409718  -13.514717
  40 C     6.0000    0    12.011   22.409903  -14.325258  -15.188428
  41 C     6.0000    0    12.011   22.185253  -16.693954  -14.067896
  42 S    16.0000    0    32.060   22.696386  -16.462935  -10.813466
  43 C     6.0000    0    12.011   21.742868  -19.020547  -15.262298
  44 C     6.0000    0    12.011   21.632224  -21.284061  -14.019765
  45 C     6.0000    0    12.011   21.373105  -23.654477  -15.161613
  46 C     6.0000    0    12.011   21.285459  -25.989177  -13.929625
  47 C     6.0000    0    12.011   21.115176  -28.031423  -15.525914
  48 C     6.0000    0    12.011   21.067876  -27.372154  -18.091936
  49 S    16.0000    0    32.060   21.214481  -24.085731  -18.432521
  50 C     6.0000    0    12.011   20.961088  -28.977155  -20.167101
  51 C     6.0000    0    12.011   20.866961  -31.646015  -20.143271
  52 C     6.0000    0    12.011   20.812877  -32.725162  -22.471886
  53 C     6.0000    0    12.011   20.861178  -30.958231  -24.513924
  54 S    16.0000    0    32.060   20.969006  -27.852201  -23.273621
  55 C     6.0000    0    12.011   20.838898  -31.444268  -27.006643
  56 H     1.0000    0     1.008   52.239910  -32.485602   18.471922
  57 H     1.0000    0     1.008   49.068780  -33.831106   18.936794
  58 H     1.0000    0     1.008   52.534292  -27.983348   16.195841
  59 H     1.0000    0     1.008   49.605972  -24.616725   14.246003
  60 H     1.0000    0     1.008   46.171301  -22.224445   12.682595
  61 H     1.0000    0     1.008   41.790670  -20.599168   11.294572
  62 H     1.0000    0     1.008   37.075406  -21.933352   11.248179
  63 H     1.0000    0     1.008   36.089744  -26.887477   14.095864
  64 H     1.0000    0     1.008   31.372912  -28.302428   13.839126
  65 H     1.0000    0     1.008   27.200964  -27.121897   11.591145
  66 H     1.0000    0     1.008   24.254351  -25.613915    8.435416
  67 H     1.0000    0     1.008   21.952268  -23.054527    4.974307
  68 H     1.0000    0     1.008   22.742722  -19.521873    1.882432
  69 H     1.0000    0     1.008   30.645632  -12.646406    7.730227
  70 H     1.0000    0     1.008   27.505191   -8.934058   -1.523743
  71 H     1.0000    0     1.008   26.557776   -6.900826   -5.900424
  72 H     1.0000    0     1.008   24.999962   -8.148442  -10.356757
  73 H     1.0000    0     1.008   23.281313  -10.469631  -14.057881
  74 H     1.0000    0     1.008   22.153070  -14.048753  -17.186001
  75 H     1.0000    0     1.008   21.539382  -18.987741  -17.297684
  76 H     1.0000    0     1.008   21.798671  -21.285743  -11.979144
  77 H     1.0000    0     1.008   21.358138  -26.130131  -11.902535
  78 H     1.0000    0     1.008   21.037017  -29.961400  -14.897335
  79 H     1.0000    0     1.008   20.845569  -32.693075  -18.401152
  80 H     1.0000    0     1.008   20.743713  -34.725324  -22.823923
  81 H     1.0000    0     1.008   20.776122  -33.358523  -27.686491
  82 H     1.0000    0     1.008   20.884724  -29.955258  -28.385690

--------------------------------
INTERNAL COORDINATES (ANGSTROEM)
--------------------------------
 C      0   0   0     0.000000000000     0.00000000     0.00000000
 C      1   0   0     1.344083839275     0.00000000     0.00000000
 C      2   1   0     1.429122856090   128.11108370     0.00000000
 C      3   2   1     1.358693434517   114.23656781   179.65104632
 C      4   3   2     1.412885520451   114.36722963   359.97304193
 S      5   4   3     1.748372255728   110.41972091     0.22674830
 C      5   4   3     1.389703268220   127.36862970   181.16931253
 C      7   5   4     1.401871011399   128.06807073     0.07987470
 C      8   7   5     1.375300068567   113.61716430   178.22975831
 C      9   8   7     1.397152942594   114.22837939     0.12588823
 S     10   9   8     1.748008012281   110.16548318     0.47902575
 C     10   9   8     1.399842863932   126.84267986   182.87691027
 C     12  10   9     1.367120708277   124.94506179   178.80691246
 C     13  12  10     1.403374034426   124.60318297   185.83433038
 C     14  13  12     1.391408777930   127.13792417   176.70718184
 C     15  14  13     1.383465894375   113.92617533   185.18879020
 C     16  15  14     1.390155954740   113.59636791   359.69726617
 S     17  16  15     1.742091718309   110.59146736   358.92740797
 C     17  16  15     1.408866394979   128.21205009   174.17499883
 C     19  17  16     1.391282241747   127.44950656   352.89295482
 C     20  19  17     1.380654550422   113.08451303   187.31526667
 C     21  20  19     1.395269599217   114.05329056   358.71835933
 S     22  21  20     1.742021072203   110.33372097   358.93529317
 C     22  21  20     1.403280135753   124.40320965   172.89711242
 C     24  22  21     1.368353807062   128.72953864   175.09895736
 S     25  24  22     1.770967733585   119.49175268   169.15698878
 C     26  25  24     1.765552118914    94.15276674   178.14942629
 C     27  26  25     1.408276751921   107.62111399   358.74026081
 C     28  27  26     1.400246936865   116.11237231     2.55910031
 N     29  28  27     1.353583530263   114.73589110   179.23101140
 C     30  29  28     1.277500388963   111.44686451   359.51123561
 S     28  27  26     1.725944751607   133.78823063   180.86296179
 C     27  26  25     1.372061063291   125.01103890   177.62395665
 C     33  27  26     1.399459874523   126.75693764   350.75185879
 C     34  33  27     1.394869229211   126.69923209   179.74371552
 C     35  34  33     1.381919504240   114.00085121   173.89047642
 C     36  35  34     1.391168328492   113.43194591   359.51577010
 S     37  36  35     1.743124587257   110.67086726     1.99190585
 C     37  36  35     1.407742105252   128.83032778   186.41563015
 C     39  37  36     1.390077673585   128.98079472   354.30769202
 C     40  39  37     1.384012031956   113.53409958   175.17566137
 C     41  40  39     1.391724106136   114.00698467   359.82681857
 S     39  37  36     1.742636330793   120.32061419   170.09657727
 C     42  41  40     1.403600443467   127.76350560   184.19127698
 C     44  42  41     1.367656935383   123.97758113   177.69512710
 C     45  44  42     1.399053954964   125.57657192   184.76788853
 C     46  45  44     1.397699176826   126.46420660   179.21124905
 C     47  46  45     1.374629329892   114.23481462   182.32281954
 C     48  47  46     1.402203577303   113.61880650     0.13208438
 S     46  45  44     1.747886128957   123.32998195     1.40755851
 C     49  48  47     1.389404306133   127.88025018   178.50257058
 C     51  49  48     1.413234353602   127.24812073     0.24814390
 C     52  51  49     1.358443480790   114.37763392   180.98255422
 C     53  52  51     1.429199801987   114.23316770     0.00000000
 S     51  49  48     1.748372630791   122.33701249   181.12189929
 C     54  53  52     1.343982616033   128.07746892   179.65613450
 H      1   2   3     1.075463544989   120.60320043     0.06739899
 H      1   2   3     1.074260886563   121.73284241   180.13768792
 H      3   2   1     1.075310031479   120.89820957   359.79964545
 H      4   3   2     1.075642604074   124.12102937   180.15202133
 H      8   7   5     1.074931004204   122.36837595   358.67382405
 H      9   8   7     1.075983933895   124.06758006   180.53108768
 H     12  10   9     1.083118055015   116.30591320     0.62621051
 H     13  12  10     1.082897352014   118.93073588     3.27099282
 H     15  14  13     1.075738358059   122.04905822     4.16022113
 H     16  15  14     1.075039307839   123.87221353   179.33644366
 H     20  19  17     1.074992594347   122.92547224     5.22783003
 H     21  20  19     1.075901944463   124.03072206   178.12758347
 H     24  22  21     1.083271070324   115.06326510   352.20986701
 H     31  30  29     1.071286754189   123.81239825   180.19054793
 H     33  27  26     1.083101639275   116.58058416   174.15064061
 H     35  34  33     1.075822689898   121.96436693   354.74769186
 H     36  35  34     1.075134422340   123.91781638   181.21363203
 H     40  39  37     1.075196464373   122.51961188   355.57246184
 H     41  40  39     1.075768588220   123.95731002   180.66855858
 H     44  42  41     1.082588415973   116.77824064   359.64583550
 H     45  44  42     1.083436616051   118.45128596     3.28139448
 H     47  46  45     1.075967785670   121.67553221     2.00547794
 H     48  47  46     1.074898626150   124.01031850   179.73035201
 H     52  51  49     1.075645834325   121.51968591     0.86153855
 H     53  52  51     1.075331929081   124.86453133   179.86558698
 H     56  54  53     1.075480965150   120.58634017     0.06325447
 H     56  54  53     1.074245280464   121.74730176   180.13652702

---------------------------
INTERNAL COORDINATES (A.U.)
---------------------------
 C      0   0   0     0.000000000000     0.00000000     0.00000000
 C      1   0   0     2.539950357259     0.00000000     0.00000000
 C      2   1   0     2.700650809738   128.11108370     0.00000000
 C      3   2   1     2.567558491194   114.23656781   179.65104632
 C      4   3   2     2.669966692235   114.36722963   359.97304193
 S      5   4   3     3.303944743472   110.41972091     0.22674830
 C      5   4   3     2.626158584350   127.36862970   181.16931253
 C      7   5   4     2.649152286627   128.06807073     0.07987470
 C      8   7   5     2.598940481554   113.61716430   178.22975831
 C      9   8   7     2.640236428705   114.22837939     0.12588823
 S     10   9   8     3.303256423112   110.16548318     0.47902575
 C     10   9   8     2.645319643355   126.84267986   182.87691027
 C     12  10   9     2.583483730656   124.94506179   178.80691246
 C     13  12  10     2.651992588521   124.60318297   185.83433038
 C     14  13  12     2.629381530621   127.13792417   176.70718184
 C     15  14  13     2.614371655990   113.92617533   185.18879020
 C     16  15  14     2.627014037899   113.59636791   359.69726617
 S     17  16  15     3.292076247776   110.59146736   358.92740797
 C     17  16  15     2.662371645794   128.21205009   174.17499883
 C     19  17  16     2.629142411889   127.44950656   352.89295482
 C     20  19  17     2.609058985849   113.08451303   187.31526667
 C     21  20  19     2.636677425507   114.05329056   358.71835933
 S     22  21  20     3.291942745984   110.33372097   358.93529317
 C     22  21  20     2.651815145746   124.40320965   172.89711242
 C     24  22  21     2.585813949655   128.72953864   175.09895736
 S     25  24  22     3.346644008487   119.49175268   169.15698878
 C     26  25  24     3.336409979911    94.15276674   178.14942629
 C     27  26  25     2.661257381898   107.62111399   358.74026081
 C     28  27  26     2.646083230537   116.11237231     2.55910031
 N     29  28  27     2.557902171584   114.73589110   179.23101140
 C     30  29  28     2.414125871117   111.44686451   359.51123561
 S     28  27  26     3.261562902816   133.78823063   180.86296179
 C     27  26  25     2.592819648637   125.01103890   177.62395665
 C     33  27  26     2.644595898260   126.75693764   350.75185879
 C     34  33  27     2.635920835843   126.69923209   179.74371552
 C     35  34  33     2.611449402139   114.00085121   173.89047642
 C     36  35  34     2.628927147035   113.43194591   359.51577010
 S     37  36  35     3.294028087220   110.67086726     1.99190585
 C     37  36  35     2.660247046116   128.83032778   186.41563015
 C     39  37  36     2.626866107954   128.98079472   354.30769202
 C     40  39  37     2.615403706449   113.53409958   175.17566137
 C     41  40  39     2.629977414573   114.00698467   359.82681857
 S     39  37  36     3.293105416220   120.32061419   170.09657727
 C     42  41  40     2.652420439603   127.76350560   184.19127698
 C     44  42  41     2.584497053031   123.97758113   177.69512710
 C     45  44  42     2.643828821461   125.57657192   184.76788853
 C     46  45  44     2.641268661808   126.46420660   179.21124905
 C     47  46  45     2.597672969152   114.23481462   182.32281954
 C     48  47  46     2.649780745106   113.61880650     0.13208438
 S     46  45  44     3.303026097008   123.32998195     1.40755851
 C     49  48  47     2.625593627882   127.88025018   178.50257058
 C     51  49  48     2.670625891356   127.24812073     0.24814390
 C     52  51  49     2.567086147103   114.37763392   180.98255422
 C     53  52  51     2.700796216410   114.23316770     0.00000000
 S     51  49  48     3.303945452239   122.33701249   181.12189929
 C     54  53  52     2.539759073054   128.07746892   179.65613450
 H      1   2   3     2.032331567045   120.60320043     0.06739899
 H      1   2   3     2.030058871988   121.73284241   180.13768792
 H      3   2   1     2.032041468554   120.89820957   359.79964545
 H      4   3   2     2.032669939679   124.12102937   180.15202133
 H      8   7   5     2.031325210807   122.36837595   358.67382405
 H      9   8   7     2.033314959561   124.06758006   180.53108768
 H     12  10   9     2.046796494684   116.30591320     0.62621051
 H     13  12  10     2.046379426456   118.93073588     3.27099282
 H     15  14  13     2.032850888486   122.04905822     4.16022113
 H     16  15  14     2.031529875017   123.87221353   179.33644366
 H     20  19  17     2.031441599309   122.92547224     5.22783003
 H     21  20  19     2.033160021989   124.03072206   178.12758347
 H     24  22  21     2.047085651711   115.06326510   352.20986701
 H     31  30  29     2.024438576314   123.81239825   180.19054793
 H     33  27  26     2.046765473431   116.58058416   174.15064061
 H     35  34  33     2.033010252566   121.96436693   354.74769186
 H     36  35  34     2.031709615374   123.91781638   181.21363203
 H     40  39  37     2.031826857825   122.51961188   355.57246184
 H     41  40  39     2.032908015210   123.95731002   180.66855858
 H     44  42  41     2.045795621946   116.77824064   359.64583550
 H     45  44  42     2.047398487799   118.45128596     3.28139448
 H     47  46  45     2.033284443838   121.67553221     2.00547794
 H     48  47  46     2.031264025152   124.01031850   179.73035201
 H     52  51  49     2.032676043967   121.51968591     0.86153855
 H     53  52  51     2.032082849023   124.86453133   179.86558698
 H     56  54  53     2.032364486379   120.58634017     0.06325447
 H     56  54  53     2.030029380735   121.74730176   180.13652702

---------------------
BASIS SET INFORMATION
---------------------
There are 4 groups of distinct atoms

 Group   1 Type C   : 7s4p1d contracted to 3s2p1d pattern {511/31/1}
 Group   2 Type S   : 10s7p1d contracted to 4s3p1d pattern {5311/511/1}
 Group   3 Type N   : 7s4p1d contracted to 3s2p1d pattern {511/31/1}
 Group   4 Type H   : 4s1p contracted to 2s1p pattern {31/1}

Atom   0C    basis set group =>   1
Atom   1C    basis set group =>   1
Atom   2C    basis set group =>   1
Atom   3C    basis set group =>   1
Atom   4C    basis set group =>   1
Atom   5S    basis set group =>   2
Atom   6C    basis set group =>   1
Atom   7C    basis set group =>   1
Atom   8C    basis set group =>   1
Atom   9C    basis set group =>   1
Atom  10S    basis set group =>   2
Atom  11C    basis set group =>   1
Atom  12C    basis set group =>   1
Atom  13C    basis set group =>   1
Atom  14C    basis set group =>   1
Atom  15C    basis set group =>   1
Atom  16C    basis set group =>   1
Atom  17S    basis set group =>   2
Atom  18C    basis set group =>   1
Atom  19C    basis set group =>   1
Atom  20C    basis set group =>   1
Atom  21C    basis set group =>   1
Atom  22S    basis set group =>   2
Atom  23C    basis set group =>   1
Atom  24C    basis set group =>   1
Atom  25S    basis set group =>   2
Atom  26C    basis set group =>   1
Atom  27C    basis set group =>   1
Atom  28C    basis set group =>   1
Atom  29N    basis set group =>   3
Atom  30C    basis set group =>   1
Atom  31S    basis set group =>   2
Atom  32C    basis set group =>   1
Atom  33C    basis set group =>   1
Atom  34C    basis set group =>   1
Atom  35C    basis set group =>   1
Atom  36C    basis set group =>   1
Atom  37S    basis set group =>   2
Atom  38C    basis set group =>   1
Atom  39C    basis set group =>   1
Atom  40C    basis set group =>   1
Atom  41C    basis set group =>   1
Atom  42S    basis set group =>   2
Atom  43C    basis set group =>   1
Atom  44C    basis set group =>   1
Atom  45C    basis set group =>   1
Atom  46C    basis set group =>   1
Atom  47C    basis set group =>   1
Atom  48C    basis set group =>   1
Atom  49S    basis set group =>   2
Atom  50C    basis set group =>   1
Atom  51C    basis set group =>   1
Atom  52C    basis set group =>   1
Atom  53C    basis set group =>   1
Atom  54S    basis set group =>   2
Atom  55C    basis set group =>   1
Atom  56H    basis set group =>   4
Atom  57H    basis set group =>   4
Atom  58H    basis set group =>   4
Atom  59H    basis set group =>   4
Atom  60H    basis set group =>   4
Atom  61H    basis set group =>   4
Atom  62H    basis set group =>   4
Atom  63H    basis set group =>   4
Atom  64H    basis set group =>   4
Atom  65H    basis set group =>   4
Atom  66H    basis set group =>   4
Atom  67H    basis set group =>   4
Atom  68H    basis set group =>   4
Atom  69H    basis set group =>   4
Atom  70H    basis set group =>   4
Atom  71H    basis set group =>   4
Atom  72H    basis set group =>   4
Atom  73H    basis set group =>   4
Atom  74H    basis set group =>   4
Atom  75H    basis set group =>   4
Atom  76H    basis set group =>   4
Atom  77H    basis set group =>   4
Atom  78H    basis set group =>   4
Atom  79H    basis set group =>   4
Atom  80H    basis set group =>   4
Atom  81H    basis set group =>   4
Atom  82H    basis set group =>   4
---------------------------------
AUXILIARY/J BASIS SET INFORMATION
---------------------------------
There are 4 groups of distinct atoms

 Group   1 Type C   : 12s5p4d2f1g contracted to 6s4p3d1f1g pattern {711111/2111/211/2/1}
 Group   2 Type S   : 14s5p5d2f1g contracted to 8s4p3d1f1g pattern {71111111/2111/311/2/1}
 Group   3 Type N   : 12s5p4d2f1g contracted to 6s4p3d1f1g pattern {711111/2111/211/2/1}
 Group   4 Type H   : 5s2p1d contracted to 3s1p1d pattern {311/2/1}

Atom   0C    basis set group =>   1
Atom   1C    basis set group =>   1
Atom   2C    basis set group =>   1
Atom   3C    basis set group =>   1
Atom   4C    basis set group =>   1
Atom   5S    basis set group =>   2
Atom   6C    basis set group =>   1
Atom   7C    basis set group =>   1
Atom   8C    basis set group =>   1
Atom   9C    basis set group =>   1
Atom  10S    basis set group =>   2
Atom  11C    basis set group =>   1
Atom  12C    basis set group =>   1
Atom  13C    basis set group =>   1
Atom  14C    basis set group =>   1
Atom  15C    basis set group =>   1
Atom  16C    basis set group =>   1
Atom  17S    basis set group =>   2
Atom  18C    basis set group =>   1
Atom  19C    basis set group =>   1
Atom  20C    basis set group =>   1
Atom  21C    basis set group =>   1
Atom  22S    basis set group =>   2
Atom  23C    basis set group =>   1
Atom  24C    basis set group =>   1
Atom  25S    basis set group =>   2
Atom  26C    basis set group =>   1
Atom  27C    basis set group =>   1
Atom  28C    basis set group =>   1
Atom  29N    basis set group =>   3
Atom  30C    basis set group =>   1
Atom  31S    basis set group =>   2
Atom  32C    basis set group =>   1
Atom  33C    basis set group =>   1
Atom  34C    basis set group =>   1
Atom  35C    basis set group =>   1
Atom  36C    basis set group =>   1
Atom  37S    basis set group =>   2
Atom  38C    basis set group =>   1
Atom  39C    basis set group =>   1
Atom  40C    basis set group =>   1
Atom  41C    basis set group =>   1
Atom  42S    basis set group =>   2
Atom  43C    basis set group =>   1
Atom  44C    basis set group =>   1
Atom  45C    basis set group =>   1
Atom  46C    basis set group =>   1
Atom  47C    basis set group =>   1
Atom  48C    basis set group =>   1
Atom  49S    basis set group =>   2
Atom  50C    basis set group =>   1
Atom  51C    basis set group =>   1
Atom  52C    basis set group =>   1
Atom  53C    basis set group =>   1
Atom  54S    basis set group =>   2
Atom  55C    basis set group =>   1
Atom  56H    basis set group =>   4
Atom  57H    basis set group =>   4
Atom  58H    basis set group =>   4
Atom  59H    basis set group =>   4
Atom  60H    basis set group =>   4
Atom  61H    basis set group =>   4
Atom  62H    basis set group =>   4
Atom  63H    basis set group =>   4
Atom  64H    basis set group =>   4
Atom  65H    basis set group =>   4
Atom  66H    basis set group =>   4
Atom  67H    basis set group =>   4
Atom  68H    basis set group =>   4
Atom  69H    basis set group =>   4
Atom  70H    basis set group =>   4
Atom  71H    basis set group =>   4
Atom  72H    basis set group =>   4
Atom  73H    basis set group =>   4
Atom  74H    basis set group =>   4
Atom  75H    basis set group =>   4
Atom  76H    basis set group =>   4
Atom  77H    basis set group =>   4
Atom  78H    basis set group =>   4
Atom  79H    basis set group =>   4
Atom  80H    basis set group =>   4
Atom  81H    basis set group =>   4
Atom  82H    basis set group =>   4


           ************************************************************
           *        Program running with 6 parallel MPI-processes     *
           *              working on a common directory               *
           ************************************************************
------------------------------------------------------------------------------
                           ORCA GTO INTEGRAL CALCULATION
                           -- RI-GTO INTEGRALS CHOSEN --
------------------------------------------------------------------------------

                         BASIS SET STATISTICS AND STARTUP INFO

Gaussian basis set:
 # of primitive gaussian shells          ...  867
 # of primitive gaussian functions       ... 1653
 # of contracted shells                  ...  437
 # of contracted basis functions         ...  959
 Highest angular momentum                ...    2
 Maximum contraction depth               ...    5
Auxiliary gaussian basis set:
 # of primitive gaussian shells          ... 1590
 # of primitive gaussian functions       ... 4422
 # of contracted shells                  ...  995
 # of contracted aux-basis functions     ... 3061
 Highest angular momentum                ...    4
 Maximum contraction depth               ...    7
Ratio of auxiliary to basis functions    ...  3.19
Integral package used                  ... LIBINT
 One Electron integrals                  ... done
 Ordering auxiliary basis shells         ... done
 Integral threshhold             Thresh  ...  2.500e-11
 Primitive cut-off               TCut    ...  2.500e-12
 Pre-screening matrix                    ... done
 Shell pair data                         ... 
 Ordering of the shell pairs             ... done (   0.004 sec) 27270 of 95703 pairs
 Determination of significant pairs      ... done (   0.000 sec)
 Creation of shell pair data             ... done (   0.004 sec)
 Storage of shell pair data              ... done (   0.009 sec)
 Shell pair data done in (   0.017 sec)
 Computing two index integrals           ... done
 Cholesky decomposition of the V-matrix  ... done


Timings:
 Total evaluation time                   ...   1.524 sec (  0.025 min)
 One electron matrix time                ...   0.331 sec (  0.006 min) = 21.7%
 Schwartz matrix evaluation time         ...   0.480 sec (  0.008 min) = 31.5%
 Two index repulsion integral time       ...   0.254 sec (  0.004 min) = 16.7%
 Cholesky decomposition of V             ...   0.427 sec (  0.007 min) = 28.0%
 Three index repulsion integral time     ...   0.000 sec (  0.000 min) =  0.0%



           ************************************************************
           *        Program running with 6 parallel MPI-processes     *
           *              working on a common directory               *
           ************************************************************
-------------------------------------------------------------------------------
                                 ORCA SCF
-------------------------------------------------------------------------------

------------
SCF SETTINGS
------------
Hamiltonian:
 Density Functional     Method          .... DFT(GTOs)
 Exchange Functional    Exchange        .... WB88
 Correlation Functional Correlation     .... LYP
 LDA part of GGA corr.  LDAOpt          .... VWN-5
 Gradients option       PostSCFGGA      .... off
 Hybrid DFT is turned on
   Fraction HF Exchange ScalHFX         ....  0.190000
   Scaling of DF-GGA-X  ScalDFX         ....  0.350000
   Scaling of DF-GGA-C  ScalDFC         ....  0.810000
   Scaling of DF-LDA-C  ScalLDAC        ....  1.000000
   Perturbative correction              ....  0.000000
   Density functional embedding theory  .... OFF
 Long-range corrected/Screened/Range-Separated Hybrid DFT is turned on
   Amount of maximum screened exact exchange              ....  0.460000
   Range separation parameter mu (erf(mu*r12)/r12)        ....  0.330000
 RI-approximation to the Coulomb term is turned on
   Number of auxiliary basis functions  .... 3061
   RIJ-COSX (HFX calculated with COS-X)).... on


General Settings:
 Integral files         IntName         .... xtbopt
 Hartree-Fock type      HFTyp           .... RHF
 Total Charge           Charge          ....    0
 Multiplicity           Mult            ....    1
 Number of Electrons    NEL             ....  464
 Basis Dimension        Dim             ....  959
 Nuclear Repulsion      ENuc            ....   7987.9121578038 Eh

Convergence Acceleration:
 DIIS                   CNVDIIS         .... on
   Start iteration      DIISMaxIt       ....    12
   Startup error        DIISStart       ....  0.200000
   # of expansion vecs  DIISMaxEq       ....     5
   Bias factor          DIISBfac        ....   1.050
   Max. coefficient     DIISMaxC        ....  10.000
 Newton-Raphson         CNVNR           .... off
 SOSCF                  CNVSOSCF        .... on
   Start iteration      SOSCFMaxIt      ....   150
   Startup grad/error   SOSCFStart      ....  0.003300
 Level Shifting         CNVShift        .... on
   Level shift para.    LevelShift      ....    0.2500
   Turn off err/grad.   ShiftErr        ....    0.0010
 Zerner damping         CNVZerner       .... off
 Static damping         CNVDamp         .... on
   Fraction old density DampFac         ....    0.7000
   Max. Damping (<1)    DampMax         ....    0.9800
   Min. Damping (>=0)   DampMin         ....    0.0000
   Turn off err/grad.   DampErr         ....    0.1000
 Fernandez-Rico         CNVRico         .... off

SCF Procedure:
 Maximum # iterations   MaxIter         ....   125
 SCF integral mode      SCFMode         .... Direct
   Integral package                     .... LIBINT
 Reset frequency        DirectResetFreq ....    20
 Integral Threshold     Thresh          ....  2.500e-11 Eh
 Primitive CutOff       TCut            ....  2.500e-12 Eh

Convergence Tolerance:
 Convergence Check Mode ConvCheckMode   .... Total+1el-Energy
 Convergence forced     ConvForced      .... 1
 Energy Change          TolE            ....  1.000e-08 Eh
 1-El. energy change                    ....  1.000e-05 Eh
 Orbital Gradient       TolG            ....  1.000e-05
 Orbital Rotation angle TolX            ....  1.000e-05
 DIIS Error             TolErr          ....  5.000e-07


Diagonalization of the overlap matrix:
Smallest eigenvalue                        ... 3.370e-04
Time for diagonalization                   ...    0.162 sec
Threshold for overlap eigenvalues          ... 1.000e-08
Number of eigenvalues below threshold      ... 0
Time for construction of square roots      ...    0.101 sec
Total time needed                          ...    0.266 sec

-------------------
DFT GRID GENERATION
-------------------

General Integration Accuracy     IntAcc      ...  4.670
Radial Grid Type                 RadialGrid  ... Gauss-Chebyshev
Angular Grid (max. acc.)         AngularGrid ... Lebedev-302
Angular grid pruning method      GridPruning ... 3 (G Style)
Weight generation scheme         WeightScheme... Becke
Basis function cutoff            BFCut       ...    1.0000e-11
Integration weight cutoff        WCut        ...    1.0000e-14
Grids for H and He will be reduced by one unit

# of grid points (after initial pruning)     ... 445850 (   0.0 sec)
# of grid points (after weights+screening)   ... 393978 (   3.4 sec)
nearest neighbour list constructed           ...    0.0 sec
Grid point re-assignment to atoms done       ...    0.1 sec
Grid point division into batches done        ...    1.2 sec
Reduced shell lists constructed in    1.8 sec

Total number of grid points                  ...   393978
Total number of batches                      ...     6200
Average number of points per batch           ...       63
Average number of grid points per atom       ...     4747
Average number of shells per batch           ...    72.08 (16.49%)
Average number of basis functions per batch  ...   152.48 (15.90%)
Average number of large shells per batch     ...    49.97 (69.33%)
Average number of large basis fcns per batch ...   107.65 (70.60%)
Maximum spatial batch extension              ...  11.43, 18.60, 19.97 au
Average spatial batch extension              ...   0.26,  0.31,  0.35 au

Time for grid setup =    5.500 sec

------------------------------
INITIAL GUESS: MODEL POTENTIAL
------------------------------
Loading Hartree-Fock densities                     ... done
Calculating cut-offs                               ... done
Setting up the integral package                    ... done
Initializing the effective Hamiltonian             ... done
Starting the Coulomb interaction                   ... done (   0.6 sec)
Reading the grid                                   ... done
Mapping shells                                     ... done
Starting the XC term evaluation                    ... done (   0.8 sec)
  promolecular density results
     # of electrons  =    463.986202280
     EX              =   -494.023464430
     EC              =    -16.549047928
     EX+EC           =   -510.572512358
Transforming the Hamiltonian                       ... done (   0.1 sec)
Diagonalizing the Hamiltonian                      ... done (   0.2 sec)
Back transforming the eigenvectors                 ... done (   0.0 sec)
Now organizing SCF variables                       ... done
                      ------------------
                      INITIAL GUESS DONE (   7.4 sec)
                      ------------------
--------------------
COSX GRID GENERATION
--------------------

General Integration Accuracy     IntAcc      ...  3.340
Radial Grid Type                 RadialGrid  ... Gauss-Chebyshev
Angular Grid (max. acc.)         AngularGrid ... Lebedev-50
Angular grid pruning method      GridPruning ... 3 (G Style)
Weight generation scheme         WeightScheme... Becke
Basis function cutoff            BFCut       ...    1.0000e-11
Integration weight cutoff        WCut        ...    1.0000e-14
Grids for H and He will be reduced by one unit

# of grid points (after initial pruning)     ...  42366 (   0.0 sec)
# of grid points (after weights+screening)   ...  38815 (   0.3 sec)
nearest neighbour list constructed           ...    0.0 sec
Grid point re-assignment to atoms done       ...    0.0 sec
Grid point division into batches done        ...    0.0 sec
Reduced shell lists constructed in    0.1 sec

Total number of grid points                  ...    38815
Total number of batches                      ...      645
Average number of points per batch           ...       60
Average number of grid points per atom       ...      468
Average number of shells per batch           ...    82.53 (18.89%)
Average number of basis functions per batch  ...   175.71 (18.32%)
Average number of large shells per batch     ...    57.03 (69.10%)
Average number of large basis fcns per batch ...   124.17 (70.67%)
Maximum spatial batch extension              ...   9.46, 13.01, 20.24 au
Average spatial batch extension              ...   0.45,  0.67,  0.86 au

Overlap Fitting                  UseSFitting ... on
Constructing numerical overlap ... done (      0.0 sec)
Inverting numerical overlap    ... done (      0.0 sec)
Obtaining analytic overlap     ... done (      0.0 sec)
Final contraction and storage  ... done (      0.0 sec)


General Integration Accuracy     IntAcc      ...  3.670
Radial Grid Type                 RadialGrid  ... Gauss-Chebyshev
Angular Grid (max. acc.)         AngularGrid ... Lebedev-50
Angular grid pruning method      GridPruning ... 3 (G Style)
Weight generation scheme         WeightScheme... Becke
Basis function cutoff            BFCut       ...    1.0000e-11
Integration weight cutoff        WCut        ...    1.0000e-14
Grids for H and He will be reduced by one unit

# of grid points (after initial pruning)     ...  52948 (   0.0 sec)
# of grid points (after weights+screening)   ...  48348 (   0.4 sec)
nearest neighbour list constructed           ...    0.0 sec
Grid point re-assignment to atoms done       ...    0.0 sec
Grid point division into batches done        ...    0.0 sec
Reduced shell lists constructed in    0.1 sec

Total number of grid points                  ...    48348
Total number of batches                      ...      795
Average number of points per batch           ...       60
Average number of grid points per atom       ...      583
Average number of shells per batch           ...    81.70 (18.70%)
Average number of basis functions per batch  ...   173.61 (18.10%)
Average number of large shells per batch     ...    56.26 (68.86%)
Average number of large basis fcns per batch ...   122.41 (70.51%)
Maximum spatial batch extension              ...  11.37, 16.75, 16.26 au
Average spatial batch extension              ...   0.44,  0.61,  0.75 au

Overlap Fitting                  UseSFitting ... on
Constructing numerical overlap ... done (      0.0 sec)
Inverting numerical overlap    ... done (      0.0 sec)
Obtaining analytic overlap     ... done (      0.0 sec)
Final contraction and storage  ... done (      0.0 sec)


General Integration Accuracy     IntAcc      ...  4.010
Radial Grid Type                 RadialGrid  ... Gauss-Chebyshev
Angular Grid (max. acc.)         AngularGrid ... Lebedev-110
Angular grid pruning method      GridPruning ... 3 (G Style)
Weight generation scheme         WeightScheme... Becke
Basis function cutoff            BFCut       ...    1.0000e-11
Integration weight cutoff        WCut        ...    1.0000e-14
Grids for H and He will be reduced by one unit

# of grid points (after initial pruning)     ... 101884 (   0.0 sec)
# of grid points (after weights+screening)   ...  92176 (   0.8 sec)
nearest neighbour list constructed           ...    0.0 sec
Grid point re-assignment to atoms done       ...    0.0 sec
Grid point division into batches done        ...    0.1 sec
Reduced shell lists constructed in    0.2 sec

Total number of grid points                  ...    92176
Total number of batches                      ...     1482
Average number of points per batch           ...       62
Average number of grid points per atom       ...     1111
Average number of shells per batch           ...    78.57 (17.98%)
Average number of basis functions per batch  ...   166.84 (17.40%)
Average number of large shells per batch     ...    54.64 (69.54%)
Average number of large basis fcns per batch ...   118.77 (71.19%)
Maximum spatial batch extension              ...  11.21, 14.69, 25.45 au
Average spatial batch extension              ...   0.39,  0.52,  0.63 au

Overlap Fitting                  UseSFitting ... on
Constructing numerical overlap ... done (      0.1 sec)
Inverting numerical overlap    ... done (      0.0 sec)
Obtaining analytic overlap     ... done (      0.0 sec)
Final contraction and storage  ... done (      0.0 sec)

Time for X-Grid setup             =    2.539 sec
--------------
SCF ITERATIONS
--------------
ITER       Energy         Delta-E        Max-DP      RMS-DP      [F,P]     Damp
               ***  Starting incremental Fock matrix formation  ***
  0  -5762.7620192299   0.000000000000 0.07096116  0.00099001  0.1599322 0.7000
  1  -5763.3109874975  -0.548968267614 0.04191824  0.00071288  0.0895162 0.7000
                               ***Turning on DIIS***
  2  -5763.5536945267  -0.242707029200 0.10233938  0.00131598  0.0404179 0.0000
  3  -5763.8918853832  -0.338190856466 0.04323435  0.00057143  0.0486869 0.0000
  4  -5763.9910739095  -0.099188526331 0.01130408  0.00015940  0.0126197 0.0000
  5  -5763.9964828703  -0.005408960766 0.00702426  0.00007126  0.0079143 0.0000
                      *** Initiating the SOSCF procedure ***
                           *** Shutting down DIIS ***
                      *** Re-Reading the Fockian *** 
                      *** Removing any level shift *** 
ITER      Energy       Delta-E        Grad      Rot      Max-DP    RMS-DP
  6  -5763.99761562  -0.0011327542  0.002458  0.002458  0.002516  0.000039
               *** Restarting incremental Fock matrix formation ***
  7  -5763.99796941  -0.0003537887  0.002033  0.026604  0.005472  0.000082
  8  -5763.99859796  -0.0006285482  0.001388  0.069860  0.013183  0.000225
  9  -5763.99875062  -0.0001526568  0.004222  0.032306  0.006648  0.000072
 10  -5763.99922537  -0.0004747529  0.002091  0.012839  0.003581  0.000063
 11  -5763.99927692  -0.0000515502  0.000857  0.013001  0.002197  0.000040
 12  -5763.99947830  -0.0002013755  0.000390  0.017484  0.002190  0.000049
 13  -5763.99951607  -0.0000377719  0.000373  0.010329  0.001751  0.000030
 14  -5763.99955805  -0.0000419778  0.000173  0.005150  0.001081  0.000018
 15  -5763.99956390  -0.0000058507  0.000155  0.002319  0.000407  0.000006
 16  -5763.99956628  -0.0000023826  0.000118  0.000780  0.000309  0.000004
 17  -5763.99956670  -0.0000004159  0.000042  0.000427  0.000195  0.000002
 18  -5763.99956695  -0.0000002525  0.000016  0.000181  0.000047  0.000001
 19  -5763.99956706  -0.0000001080  0.000009  0.000071  0.000054  0.000000
 20  -5763.99956705   0.0000000088  0.000003  0.000028  0.000013  0.000000
                  ***Gradient check signals convergence***
              ***Rediagonalizing the Fockian in SOSCF/NRSCF***

               *****************************************************
               *                     SUCCESS                       *
               *           SCF CONVERGED AFTER  21 CYCLES          *
               *****************************************************

Setting up the final grid:

General Integration Accuracy     IntAcc      ...  5.010
Radial Grid Type                 RadialGrid  ... Gauss-Chebyshev
Angular Grid (max. acc.)         AngularGrid ... Lebedev-434
Angular grid pruning method      GridPruning ... 3 (G Style)
Weight generation scheme         WeightScheme... Becke
Basis function cutoff            BFCut       ...    1.0000e-11
Integration weight cutoff        WCut        ...    1.0000e-14
Grids for H and He will be reduced by one unit

# of grid points (after initial pruning)     ... 790084 (   0.0 sec)
# of grid points (after weights+screening)   ... 696488 (   5.7 sec)
nearest neighbour list constructed           ...    0.0 sec
Grid point re-assignment to atoms done       ...    0.1 sec
Grid point division into batches done        ...    3.9 sec
Reduced shell lists constructed in    5.0 sec

Total number of grid points                  ...   696488
Total number of batches                      ...    10926
Average number of points per batch           ...       63
Average number of grid points per atom       ...     8391
Average number of shells per batch           ...    70.13 (16.05%)
Average number of basis functions per batch  ...   148.21 (15.46%)
Average number of large shells per batch     ...    48.45 (69.08%)
Average number of large basis fcns per batch ...   104.11 (70.24%)
Maximum spatial batch extension              ...  11.30, 21.30, 21.01 au
Average spatial batch extension              ...   0.21,  0.25,  0.27 au

Final grid set up in   11.2 sec
Final integration                            ... done (   1.7 sec)
Change in XC energy                          ...    -0.000092590
Integrated number of electrons               ...   464.000028030
Previous integrated no of electrons          ...   463.999813353
Old exchange energy                            =   -131.364860549 Eh
New exchange energy                            =   -131.360744574 Eh
Exchange energy change after final integration =      0.004115975 Eh
Total energy after final integration           =  -5763.995543649 Eh
Final COS-X integration done in                =    31.941 sec

----------------
TOTAL SCF ENERGY
----------------

Total Energy       :        -5763.99554365 Eh         -156846.29265 eV

Components:
Nuclear Repulsion  :         7987.91215780 Eh          217362.14029 eV
Electronic Energy  :       -13751.90770145 Eh         -374208.43295 eV
One Electron Energy:       -23827.80081219 Eh         -648387.42348 eV
Two Electron Energy:        10075.89311074 Eh          274178.99053 eV

Virial components:
Potential Energy   :       -11501.60423502 Eh         -312974.56255 eV
Kinetic Energy     :         5737.60869137 Eh          156128.26990 eV
Virial Ratio       :            2.00459893


DFT components:
N(Alpha)           :      232.000014014961 electrons
N(Beta)            :      232.000014014961 electrons
N(Total)           :      464.000028029921 electrons
E(XC)              :     -385.881159240855 Eh       
DFET-embed. en.    :        0.000000000000 Eh       

---------------
SCF CONVERGENCE
---------------

  Last Energy change         ...    1.2949e-08  Tolerance :   1.0000e-08
  Last MAX-Density change    ...    8.4377e-15  Tolerance :   1.0000e-07
  Last RMS-Density change    ...    4.3327e-17  Tolerance :   5.0000e-09
  Last Orbital Gradient      ...    2.1014e-06  Tolerance :   1.0000e-05
  Last Orbital Rotation      ...    1.7197e-05  Tolerance :   1.0000e-05

             **** THE GBW FILE WAS UPDATED (xtbopt.gbw) ****
             **** DENSITY FILE WAS UPDATED (xtbopt.scfp) ****
             **** ENERGY FILE WAS UPDATED (xtbopt.en.tmp) ****
             **** THE GBW FILE WAS UPDATED (xtbopt.gbw) ****
             **** DENSITY FILE WAS UPDATED (xtbopt.scfp) ****
----------------
ORBITAL ENERGIES
----------------

  NO   OCC          E(Eh)            E(eV) 
   0   2.0000     -88.965131     -2420.8643 
   1   2.0000     -88.945962     -2420.3427 
   2   2.0000     -88.945694     -2420.3354 
   3   2.0000     -88.942169     -2420.2395 
   4   2.0000     -88.941799     -2420.2294 
   5   2.0000     -88.940426     -2420.1920 
   6   2.0000     -88.940398     -2420.1913 
   7   2.0000     -88.938216     -2420.1319 
   8   2.0000     -88.934724     -2420.0369 
   9   2.0000     -88.934406     -2420.0282 
  10   2.0000     -14.414600      -392.2412 
  11   2.0000     -10.334403      -281.2134 
  12   2.0000     -10.308986      -280.5218 
  13   2.0000     -10.306048      -280.4418 
  14   2.0000     -10.303873      -280.3826 
  15   2.0000     -10.303089      -280.3613 
  16   2.0000     -10.303035      -280.3598 
  17   2.0000     -10.302772      -280.3527 
  18   2.0000     -10.302291      -280.3396 
  19   2.0000     -10.302086      -280.3340 
  20   2.0000     -10.301407      -280.3155 
  21   2.0000     -10.300420      -280.2887 
  22   2.0000     -10.300268      -280.2845 
  23   2.0000     -10.300264      -280.2844 
  24   2.0000     -10.300025      -280.2779 
  25   2.0000     -10.298500      -280.2364 
  26   2.0000     -10.297153      -280.1998 
  27   2.0000     -10.296931      -280.1937 
  28   2.0000     -10.295790      -280.1627 
  29   2.0000     -10.295319      -280.1499 
  30   2.0000     -10.295099      -280.1439 
  31   2.0000     -10.294345      -280.1234 
  32   2.0000     -10.282348      -279.7969 
  33   2.0000     -10.281697      -279.7792 
  34   2.0000     -10.281309      -279.7686 
  35   2.0000     -10.280871      -279.7567 
  36   2.0000     -10.275974      -279.6235 
  37   2.0000     -10.275660      -279.6149 
  38   2.0000     -10.275648      -279.6146 
  39   2.0000     -10.275250      -279.6038 
  40   2.0000     -10.274009      -279.5700 
  41   2.0000     -10.273774      -279.5636 
  42   2.0000     -10.273697      -279.5615 
  43   2.0000     -10.273560      -279.5578 
  44   2.0000     -10.273107      -279.5455 
  45   2.0000     -10.273082      -279.5448 
  46   2.0000     -10.272959      -279.5414 
  47   2.0000     -10.272727      -279.5351 
  48   2.0000     -10.271923      -279.5132 
  49   2.0000     -10.271768      -279.5090 
  50   2.0000     -10.271140      -279.4919 
  51   2.0000     -10.270486      -279.4741 
  52   2.0000     -10.268700      -279.4255 
  53   2.0000     -10.268273      -279.4139 
  54   2.0000     -10.264225      -279.3038 
  55   2.0000     -10.263980      -279.2971 
  56   2.0000      -8.060992      -219.3507 
  57   2.0000      -8.041527      -218.8211 
  58   2.0000      -8.041207      -218.8124 
  59   2.0000      -8.038300      -218.7333 
  60   2.0000      -8.037920      -218.7229 
  61   2.0000      -8.036575      -218.6863 
  62   2.0000      -8.036528      -218.6850 
  63   2.0000      -8.033310      -218.5975 
  64   2.0000      -8.031391      -218.5453 
  65   2.0000      -8.031113      -218.5377 
  66   2.0000      -6.030234      -164.0910 
  67   2.0000      -6.026195      -163.9811 
  68   2.0000      -6.023042      -163.8953 
  69   2.0000      -6.011003      -163.5677 
  70   2.0000      -6.010968      -163.5668 
  71   2.0000      -6.007724      -163.4785 
  72   2.0000      -6.007341      -163.4681 
  73   2.0000      -6.006963      -163.4578 
  74   2.0000      -6.006839      -163.4544 
  75   2.0000      -6.006122      -163.4349 
  76   2.0000      -6.006072      -163.4335 
  77   2.0000      -6.003735      -163.3699 
  78   2.0000      -6.003322      -163.3587 
  79   2.0000      -6.003166      -163.3545 
  80   2.0000      -6.002796      -163.3444 
  81   2.0000      -6.002173      -163.3274 
  82   2.0000      -6.002132      -163.3263 
  83   2.0000      -6.002122      -163.3260 
  84   2.0000      -6.001096      -163.2981 
  85   2.0000      -6.000841      -163.2912 
  86   2.0000      -5.999878      -163.2650 
  87   2.0000      -5.999529      -163.2555 
  88   2.0000      -5.998489      -163.2272 
  89   2.0000      -5.997847      -163.2097 
  90   2.0000      -5.997818      -163.2089 
  91   2.0000      -5.997212      -163.1924 
  92   2.0000      -5.996928      -163.1847 
  93   2.0000      -5.995013      -163.1326 
  94   2.0000      -5.992149      -163.0547 
  95   2.0000      -5.991840      -163.0463 
  96   2.0000      -1.069694       -29.1079 
  97   2.0000      -0.989510       -26.9259 
  98   2.0000      -0.986665       -26.8485 
  99   2.0000      -0.985616       -26.8200 
 100   2.0000      -0.984681       -26.7945 
 101   2.0000      -0.973410       -26.4878 
 102   2.0000      -0.965791       -26.2805 
 103   2.0000      -0.963339       -26.2138 
 104   2.0000      -0.962083       -26.1796 
 105   2.0000      -0.959229       -26.1020 
 106   2.0000      -0.909208       -24.7408 
 107   2.0000      -0.896785       -24.4028 
 108   2.0000      -0.895320       -24.3629 
 109   2.0000      -0.879627       -23.9359 
 110   2.0000      -0.870048       -23.6752 
 111   2.0000      -0.863752       -23.5039 
 112   2.0000      -0.857111       -23.3232 
 113   2.0000      -0.843036       -22.9402 
 114   2.0000      -0.836766       -22.7696 
 115   2.0000      -0.836280       -22.7563 
 116   2.0000      -0.834622       -22.7112 
 117   2.0000      -0.829397       -22.5690 
 118   2.0000      -0.827731       -22.5237 
 119   2.0000      -0.819225       -22.2923 
 120   2.0000      -0.814020       -22.1506 
 121   2.0000      -0.812005       -22.0958 
 122   2.0000      -0.811162       -22.0728 
 123   2.0000      -0.809334       -22.0231 
 124   2.0000      -0.803615       -21.8675 
 125   2.0000      -0.792109       -21.5544 
 126   2.0000      -0.777080       -21.1454 
 127   2.0000      -0.762711       -20.7544 
 128   2.0000      -0.744577       -20.2610 
 129   2.0000      -0.734088       -19.9755 
 130   2.0000      -0.717976       -19.5371 
 131   2.0000      -0.701125       -19.0786 
 132   2.0000      -0.698594       -19.0097 
 133   2.0000      -0.689049       -18.7500 
 134   2.0000      -0.678107       -18.4522 
 135   2.0000      -0.673178       -18.3181 
 136   2.0000      -0.666004       -18.1229 
 137   2.0000      -0.664987       -18.0952 
 138   2.0000      -0.649045       -17.6614 
 139   2.0000      -0.645077       -17.5534 
 140   2.0000      -0.630694       -17.1620 
 141   2.0000      -0.629703       -17.1351 
 142   2.0000      -0.621948       -16.9241 
 143   2.0000      -0.620618       -16.8879 
 144   2.0000      -0.615540       -16.7497 
 145   2.0000      -0.614588       -16.7238 
 146   2.0000      -0.611764       -16.6469 
 147   2.0000      -0.608325       -16.5534 
 148   2.0000      -0.599956       -16.3256 
 149   2.0000      -0.598830       -16.2950 
 150   2.0000      -0.591036       -16.0829 
 151   2.0000      -0.590611       -16.0713 
 152   2.0000      -0.589122       -16.0308 
 153   2.0000      -0.586466       -15.9586 
 154   2.0000      -0.584513       -15.9054 
 155   2.0000      -0.583685       -15.8829 
 156   2.0000      -0.561177       -15.2704 
 157   2.0000      -0.550550       -14.9812 
 158   2.0000      -0.549880       -14.9630 
 159   2.0000      -0.543633       -14.7930 
 160   2.0000      -0.538524       -14.6540 
 161   2.0000      -0.523096       -14.2342 
 162   2.0000      -0.522490       -14.2177 
 163   2.0000      -0.519266       -14.1299 
 164   2.0000      -0.514797       -14.0083 
 165   2.0000      -0.510657       -13.8957 
 166   2.0000      -0.510339       -13.8870 
 167   2.0000      -0.508377       -13.8336 
 168   2.0000      -0.501548       -13.6478 
 169   2.0000      -0.497718       -13.5436 
 170   2.0000      -0.491305       -13.3691 
 171   2.0000      -0.489902       -13.3309 
 172   2.0000      -0.488721       -13.2988 
 173   2.0000      -0.488155       -13.2834 
 174   2.0000      -0.487184       -13.2569 
 175   2.0000      -0.486235       -13.2311 
 176   2.0000      -0.485730       -13.2174 
 177   2.0000      -0.485307       -13.2059 
 178   2.0000      -0.482211       -13.1216 
 179   2.0000      -0.478763       -13.0278 
 180   2.0000      -0.474242       -12.9048 
 181   2.0000      -0.473885       -12.8951 
 182   2.0000      -0.465580       -12.6691 
 183   2.0000      -0.462681       -12.5902 
 184   2.0000      -0.459892       -12.5143 
 185   2.0000      -0.457512       -12.4495 
 186   2.0000      -0.456093       -12.4109 
 187   2.0000      -0.453804       -12.3486 
 188   2.0000      -0.453635       -12.3440 
 189   2.0000      -0.452335       -12.3087 
 190   2.0000      -0.449933       -12.2433 
 191   2.0000      -0.448176       -12.1955 
 192   2.0000      -0.448044       -12.1919 
 193   2.0000      -0.437381       -11.9018 
 194   2.0000      -0.436947       -11.8899 
 195   2.0000      -0.432941       -11.7809 
 196   2.0000      -0.428175       -11.6512 
 197   2.0000      -0.425322       -11.5736 
 198   2.0000      -0.424676       -11.5560 
 199   2.0000      -0.419679       -11.4200 
 200   2.0000      -0.418111       -11.3774 
 201   2.0000      -0.415208       -11.2984 
 202   2.0000      -0.413505       -11.2520 
 203   2.0000      -0.410767       -11.1775 
 204   2.0000      -0.404035       -10.9943 
 205   2.0000      -0.399250       -10.8641 
 206   2.0000      -0.397783       -10.8242 
 207   2.0000      -0.392122       -10.6702 
 208   2.0000      -0.391237       -10.6461 
 209   2.0000      -0.389506       -10.5990 
 210   2.0000      -0.381744       -10.3878 
 211   2.0000      -0.368980       -10.0405 
 212   2.0000      -0.364882        -9.9290 
 213   2.0000      -0.347767        -9.4632 
 214   2.0000      -0.340824        -9.2743 
 215   2.0000      -0.337738        -9.1903 
 216   2.0000      -0.328945        -8.9511 
 217   2.0000      -0.328685        -8.9440 
 218   2.0000      -0.327348        -8.9076 
 219   2.0000      -0.321525        -8.7491 
 220   2.0000      -0.319761        -8.7012 
 221   2.0000      -0.316751        -8.6192 
 222   2.0000      -0.315421        -8.5830 
 223   2.0000      -0.309851        -8.4315 
 224   2.0000      -0.307954        -8.3799 
 225   2.0000      -0.305048        -8.3008 
 226   2.0000      -0.295229        -8.0336 
 227   2.0000      -0.273952        -7.4546 
 228   2.0000      -0.248890        -6.7726 
 229   2.0000      -0.228033        -6.2051 
 230   2.0000      -0.198101        -5.3906 
 231   2.0000      -0.151469        -4.1217 
 232   0.0000      -0.118654        -3.2287 
 233   0.0000      -0.074350        -2.0232 
 234   0.0000      -0.042263        -1.1500 
 235   0.0000      -0.026190        -0.7127 
 236   0.0000      -0.001533        -0.0417 
 237   0.0000       0.010774         0.2932 
 238   0.0000       0.025109         0.6832 
 239   0.0000       0.034923         0.9503 
 240   0.0000       0.041208         1.1213 
 241   0.0000       0.049108         1.3363 
 242   0.0000       0.052210         1.4207 
 243   0.0000       0.052697         1.4340 
 244   0.0000       0.060299         1.6408 
 245   0.0000       0.066002         1.7960 
 246   0.0000       0.068747         1.8707 
 247   0.0000       0.074487         2.0269 
 248   0.0000       0.088459         2.4071 
 249   0.0000       0.093650         2.5484 
 250   0.0000       0.099592         2.7100 
 251   0.0000       0.099844         2.7169 
 252   0.0000       0.102646         2.7931 
 253   0.0000       0.105033         2.8581 
 254   0.0000       0.105857         2.8805 
 255   0.0000       0.109680         2.9845 
 256   0.0000       0.110731         3.0131 
 257   0.0000       0.113604         3.0913 
 258   0.0000       0.114549         3.1170 
 259   0.0000       0.121123         3.2959 
 260   0.0000       0.123309         3.3554 
 261   0.0000       0.123841         3.3699 
 262   0.0000       0.125614         3.4181 
 263   0.0000       0.125776         3.4226 
 264   0.0000       0.127674         3.4742 
 265   0.0000       0.129477         3.5233 
 266   0.0000       0.132684         3.6105 
 267   0.0000       0.137097         3.7306 
 268   0.0000       0.138816         3.7774 
 269   0.0000       0.140219         3.8156 
 270   0.0000       0.142055         3.8655 
 271   0.0000       0.143083         3.8935 
 272   0.0000       0.143572         3.9068 
 273   0.0000       0.154516         4.2046 
 274   0.0000       0.155755         4.2383 
 275   0.0000       0.155948         4.2436 
 276   0.0000       0.156351         4.2545 
 277   0.0000       0.157875         4.2960 
 278   0.0000       0.160079         4.3560 
 279   0.0000       0.162897         4.4327 
 280   0.0000       0.164942         4.4883 
 281   0.0000       0.165909         4.5146 
 282   0.0000       0.168289         4.5794 
 283   0.0000       0.171135         4.6568 
 284   0.0000       0.171943         4.6788 
 285   0.0000       0.177554         4.8315 
 286   0.0000       0.178587         4.8596 
 287   0.0000       0.182643         4.9700 
 288   0.0000       0.188324         5.1246 
 289   0.0000       0.189785         5.1643 
 290   0.0000       0.197917         5.3856 
 291   0.0000       0.204431         5.5629 
 292   0.0000       0.212702         5.7879 
 293   0.0000       0.218184         5.9371 
 294   0.0000       0.220493         5.9999 
 295   0.0000       0.221880         6.0377 
 296   0.0000       0.222327         6.0498 
 297   0.0000       0.225463         6.1352 
 298   0.0000       0.241489         6.5713 
 299   0.0000       0.250699         6.8219 
 300   0.0000       0.251752         6.8505 
 301   0.0000       0.267183         7.2704 
 302   0.0000       0.268047         7.2939 
 303   0.0000       0.276918         7.5353 
 304   0.0000       0.277112         7.5406 
 305   0.0000       0.282643         7.6911 
 306   0.0000       0.287700         7.8287 
 307   0.0000       0.290052         7.8927 
 308   0.0000       0.292330         7.9547 
 309   0.0000       0.296581         8.0704 
 310   0.0000       0.302300         8.2260 
 311   0.0000       0.302969         8.2442 
 312   0.0000       0.321745         8.7551 
 313   0.0000       0.324965         8.8428 
 314   0.0000       0.325986         8.8705 
 315   0.0000       0.330545         8.9946 
 316   0.0000       0.334402         9.0995 
 317   0.0000       0.335754         9.1363 
 318   0.0000       0.337901         9.1947 
 319   0.0000       0.340331         9.2609 
 320   0.0000       0.345105         9.3908 
 321   0.0000       0.347369         9.4524 
 322   0.0000       0.350537         9.5386 
 323   0.0000       0.355390         9.6707 
 324   0.0000       0.358853         9.7649 
 325   0.0000       0.360064         9.7978 
 326   0.0000       0.362344         9.8599 
 327   0.0000       0.366052         9.9608 
 328   0.0000       0.368105        10.0166 
 329   0.0000       0.370807        10.0902 
 330   0.0000       0.375704        10.2234 
 331   0.0000       0.379706        10.3323 
 332   0.0000       0.383265        10.4292 
 333   0.0000       0.384856        10.4725 
 334   0.0000       0.387862        10.5543 
 335   0.0000       0.396964        10.8019 
 336   0.0000       0.400971        10.9110 
 337   0.0000       0.402644        10.9565 
 338   0.0000       0.403268        10.9735 
 339   0.0000       0.404597        11.0096 
 340   0.0000       0.405615        11.0373 
 341   0.0000       0.406810        11.0699 
 342   0.0000       0.412428        11.2227 
 343   0.0000       0.413877        11.2622 
 344   0.0000       0.417671        11.3654 
 345   0.0000       0.425229        11.5711 
 346   0.0000       0.427738        11.6393 
 347   0.0000       0.430742        11.7211 
 348   0.0000       0.434908        11.8345 
 349   0.0000       0.436657        11.8820 
 350   0.0000       0.439402        11.9567 
 351   0.0000       0.441613        12.0169 
 352   0.0000       0.442804        12.0493 
 353   0.0000       0.443675        12.0730 
 354   0.0000       0.447886        12.1876 
 355   0.0000       0.450407        12.2562 
 356   0.0000       0.455817        12.4034 
 357   0.0000       0.456492        12.4218 
 358   0.0000       0.457454        12.4480 
 359   0.0000       0.459455        12.5024 
 360   0.0000       0.459713        12.5094 
 361   0.0000       0.464443        12.6381 
 362   0.0000       0.466917        12.7055 
 363   0.0000       0.467672        12.7260 
 364   0.0000       0.470013        12.7897 
 365   0.0000       0.471506        12.8303 
 366   0.0000       0.473006        12.8711 
 367   0.0000       0.475379        12.9357 
 368   0.0000       0.479082        13.0365 
 369   0.0000       0.483566        13.1585 
 370   0.0000       0.487474        13.2648 
 371   0.0000       0.488735        13.2992 
 372   0.0000       0.492609        13.4046 
 373   0.0000       0.494788        13.4639 
 374   0.0000       0.501980        13.6596 
 375   0.0000       0.506158        13.7732 
 376   0.0000       0.506987        13.7958 
 377   0.0000       0.509296        13.8586 
 378   0.0000       0.512142        13.9361 
 379   0.0000       0.512300        13.9404 
 380   0.0000       0.512646        13.9498 
 381   0.0000       0.514035        13.9876 
 382   0.0000       0.515669        14.0321 
 383   0.0000       0.516506        14.0548 
 384   0.0000       0.518420        14.1069 
 385   0.0000       0.519410        14.1339 
 386   0.0000       0.521179        14.1820 
 387   0.0000       0.522766        14.2252 
 388   0.0000       0.525791        14.3075 
 389   0.0000       0.526426        14.3248 
 390   0.0000       0.528867        14.3912 
 391   0.0000       0.531315        14.4578 
 392   0.0000       0.532299        14.4846 
 393   0.0000       0.532534        14.4910 
 394   0.0000       0.533221        14.5097 
 395   0.0000       0.536464        14.5979 
 396   0.0000       0.539737        14.6870 
 397   0.0000       0.547322        14.8934 
 398   0.0000       0.548270        14.9192 
 399   0.0000       0.550608        14.9828 
 400   0.0000       0.556550        15.1445 
 401   0.0000       0.559266        15.2184 
 402   0.0000       0.560538        15.2530 
 403   0.0000       0.563222        15.3261 
 404   0.0000       0.565874        15.3982 
 405   0.0000       0.569198        15.4887 
 406   0.0000       0.570271        15.5179 
 407   0.0000       0.574914        15.6442 
 408   0.0000       0.575229        15.6528 
 409   0.0000       0.577271        15.7083 
 410   0.0000       0.581171        15.8145 
 411   0.0000       0.585276        15.9262 
 412   0.0000       0.586755        15.9664 
[...]
      px      :     0.012838
      py      :     0.032978
 64 H s       :     0.898653  s :     0.898653
      pz      :     0.024899  p :     0.070230
      px      :     0.011856
      py      :     0.033474
 65 H s       :     0.900167  s :     0.900167
      pz      :     0.014297  p :     0.070261
      px      :     0.034011
      py      :     0.021953
 66 H s       :     0.902295  s :     0.902295
      pz      :     0.018318  p :     0.070367
      px      :     0.016387
      py      :     0.035661
 67 H s       :     0.900679  s :     0.900679
      pz      :     0.018436  p :     0.070008
      px      :     0.036553
      py      :     0.015018
 68 H s       :     0.894962  s :     0.894962
      pz      :     0.022329  p :     0.069462
      px      :     0.030691
      py      :     0.016442
 69 H s       :     0.906371  s :     0.906371
      pz      :     0.038805  p :     0.073517
      px      :     0.024238
      py      :     0.010475
 70 H s       :     0.894091  s :     0.894091
      pz      :     0.013550  p :     0.069588
      px      :     0.023594
      py      :     0.032444
 71 H s       :     0.899812  s :     0.899812
      pz      :     0.012949  p :     0.070109
      px      :     0.019814
      py      :     0.037346
 72 H s       :     0.900115  s :     0.900115
      pz      :     0.031210  p :     0.070279
      px      :     0.015240
      py      :     0.023829
 73 H s       :     0.900387  s :     0.900387
      pz      :     0.014021  p :     0.070192
      px      :     0.015959
      py      :     0.040211
 74 H s       :     0.898541  s :     0.898541
      pz      :     0.042135  p :     0.070226
      px      :     0.016086
      py      :     0.012005
 75 H s       :     0.901714  s :     0.901714
      pz      :     0.042593  p :     0.069624
      px      :     0.015863
      py      :     0.011168
 76 H s       :     0.903437  s :     0.903437
      pz      :     0.042661  p :     0.069441
      px      :     0.015575
      py      :     0.011205
 77 H s       :     0.897743  s :     0.897743
      pz      :     0.043088  p :     0.069883
      px      :     0.015337
      py      :     0.011458
 78 H s       :     0.900294  s :     0.900294
      pz      :     0.014926  p :     0.070712
      px      :     0.016033
      py      :     0.039753
 79 H s       :     0.898512  s :     0.898512
      pz      :     0.034437  p :     0.069710
      px      :     0.014654
      py      :     0.020620
 80 H s       :     0.897444  s :     0.897444
      pz      :     0.011875  p :     0.070689
      px      :     0.016037
      py      :     0.042778
 81 H s       :     0.900383  s :     0.900383
      pz      :     0.014335  p :     0.071856
      px      :     0.017826
      py      :     0.039695
 82 H s       :     0.902918  s :     0.902918
      pz      :     0.025370  p :     0.072091
      px      :     0.017681
      py      :     0.029040


                      *****************************
                      * MAYER POPULATION ANALYSIS *
                      *****************************

  NA   - Mulliken gross atomic population
  ZA   - Total nuclear charge
  QA   - Mulliken gross atomic charge
  VA   - Mayer's total valence
  BVA  - Mayer's bonded valence
  FA   - Mayer's free valence

  ATOM       NA         ZA         QA         VA         BVA        FA
  0 C      6.0293     6.0000    -0.0293     3.9488     3.9488    -0.0000
  1 C      6.0681     6.0000    -0.0681     4.0587     4.0587     0.0000
  2 C      5.9547     6.0000     0.0453     3.8460     3.8460    -0.0000
  3 C      5.9748     6.0000     0.0252     3.9152     3.9152     0.0000
  4 C      6.0653     6.0000    -0.0653     3.9197     3.9197    -0.0000
  5 S     15.9167    16.0000     0.0833     2.2906     2.2906     0.0000
  6 C      6.0392     6.0000    -0.0392     3.9264     3.9264     0.0000
  7 C      5.9929     6.0000     0.0071     3.8942     3.8942     0.0000
  8 C      5.9739     6.0000     0.0261     3.8735     3.8735     0.0000
  9 C      6.0332     6.0000    -0.0332     3.9097     3.9097    -0.0000
 10 S     15.9132    16.0000     0.0868     2.3717     2.3717    -0.0000
 11 C      6.0041     6.0000    -0.0041     3.8803     3.8803     0.0000
 12 C      6.0013     6.0000    -0.0013     3.8753     3.8753    -0.0000
 13 C      6.0343     6.0000    -0.0343     3.9074     3.9074     0.0000
 14 C      5.9824     6.0000     0.0176     3.8675     3.8675     0.0000
 15 C      5.9899     6.0000     0.0101     3.8983     3.8983     0.0000
 16 C      6.0451     6.0000    -0.0451     3.9049     3.9049     0.0000
 17 S     15.9063    16.0000     0.0937     2.4098     2.4098     0.0000
 18 C      6.0397     6.0000    -0.0397     3.8819     3.8819    -0.0000
 19 C      5.9841     6.0000     0.0159     3.8895     3.8895     0.0000
 20 C      5.9817     6.0000     0.0183     3.8853     3.8853     0.0000
 21 C      6.0456     6.0000    -0.0456     3.8796     3.8796    -0.0000
 22 S     15.8558    16.0000     0.1442     2.4727     2.4727     0.0000
 23 C      6.0026     6.0000    -0.0026     3.9309     3.9309     0.0000
 24 C      6.1213     6.0000    -0.1213     3.8998     3.8998     0.0000
 25 S     15.9129    16.0000     0.0871     2.3525     2.3525     0.0000
 26 C      6.1159     6.0000    -0.1159     4.0220     4.0220     0.0000
 27 C      6.0389     6.0000    -0.0389     3.9036     3.9036    -0.0000
 28 C      5.9066     6.0000     0.0934     4.0911     4.0911    -0.0000
 29 N      7.0559     7.0000    -0.0559     3.2002     3.2002     0.0000
 30 C      5.9899     6.0000     0.0101     3.9734     3.9734     0.0000
 31 S     15.8933    16.0000     0.1067     2.4310     2.4310    -0.0000
 32 C      6.0127     6.0000    -0.0127     3.9353     3.9353     0.0000
 33 C      6.0519     6.0000    -0.0519     3.9044     3.9044     0.0000
 34 C      5.9817     6.0000     0.0183     3.8826     3.8826    -0.0000
 35 C      5.9882     6.0000     0.0118     3.8960     3.8960     0.0000
 36 C      6.0309     6.0000    -0.0309     3.8962     3.8962     0.0000
 37 S     15.9130    16.0000     0.0870     2.4407     2.4407     0.0000
 38 C      6.0393     6.0000    -0.0393     3.9050     3.9050    -0.0000
 39 C      5.9913     6.0000     0.0087     3.8999     3.8999    -0.0000
 40 C      5.9806     6.0000     0.0194     3.8677     3.8677    -0.0000
 41 C      6.0350     6.0000    -0.0350     3.9150     3.9150    -0.0000
 42 S     15.9135    16.0000     0.0865     2.4111     2.4111    -0.0000
 43 C      5.9989     6.0000     0.0011     3.8716     3.8716    -0.0000
 44 C      6.0068     6.0000    -0.0068     3.8850     3.8850     0.0000
 45 C      6.0307     6.0000    -0.0307     3.9080     3.9080     0.0000
 46 C      5.9782     6.0000     0.0218     3.8748     3.8748    -0.0000
 47 C      5.9889     6.0000     0.0111     3.8950     3.8950    -0.0000
 48 C      6.0418     6.0000    -0.0418     3.9284     3.9284    -0.0000
 49 S     15.9115    16.0000     0.0885     2.3696     2.3696     0.0000
 50 C      6.0673     6.0000    -0.0673     3.9192     3.9192     0.0000
 51 C      5.9736     6.0000     0.0264     3.9143     3.9143     0.0000
 52 C      5.9559     6.0000     0.0441     3.8452     3.8452     0.0000
 53 C      6.0655     6.0000    -0.0655     4.0524     4.0524     0.0000
 54 S     15.9164    16.0000     0.0836     2.2905     2.2905    -0.0000
 55 C      6.0307     6.0000    -0.0307     3.9492     3.9492     0.0000
 56 H      0.9810     1.0000     0.0190     0.9853     0.9853     0.0000
 57 H      0.9800     1.0000     0.0200     0.9842     0.9842    -0.0000
 58 H      1.0138     1.0000    -0.0138     0.9916     0.9916    -0.0000
 59 H      1.0148     1.0000    -0.0148     0.9884     0.9884     0.0000
 60 H      1.0189     1.0000    -0.0189     0.9884     0.9884    -0.0000
 61 H      1.0180     1.0000    -0.0180     0.9908     0.9908    -0.0000
 62 H      1.0092     1.0000    -0.0092     0.9975     0.9975     0.0000
 63 H      1.0071     1.0000    -0.0071     0.9977     0.9977    -0.0000
 64 H      1.0173     1.0000    -0.0173     0.9912     0.9912     0.0000
 65 H      1.0188     1.0000    -0.0188     0.9888     0.9888    -0.0000
 66 H      1.0226     1.0000    -0.0226     0.9884     0.9884     0.0000
 67 H      1.0203     1.0000    -0.0203     0.9894     0.9894     0.0000
 68 H      1.0178     1.0000    -0.0178     0.9930     0.9930    -0.0000
 69 H      0.9574     1.0000     0.0426     0.9927     0.9927    -0.0000
 70 H      1.0164     1.0000    -0.0164     0.9938     0.9938    -0.0000
 71 H      1.0196     1.0000    -0.0196     0.9902     0.9902     0.0000
 72 H      1.0188     1.0000    -0.0188     0.9890     0.9890    -0.0000
 73 H      1.0198     1.0000    -0.0198     0.9892     0.9892    -0.0000
 74 H      1.0170     1.0000    -0.0170     0.9914     0.9914     0.0000
 75 H      1.0082     1.0000    -0.0082     0.9976     0.9976    -0.0000
 76 H      1.0068     1.0000    -0.0068     0.9977     0.9977    -0.0000
 77 H      1.0150     1.0000    -0.0150     0.9911     0.9911     0.0000
 78 H      1.0192     1.0000    -0.0192     0.9887     0.9887    -0.0000
 79 H      1.0139     1.0000    -0.0139     0.9882     0.9882    -0.0000
 80 H      1.0139     1.0000    -0.0139     0.9914     0.9914    -0.0000
 81 H      0.9815     1.0000     0.0185     0.9855     0.9855     0.0000
 82 H      0.9796     1.0000     0.0204     0.9842     0.9842     0.0000

  Mayer bond orders larger than 0.100000
B(  0-C ,  1-C ) :   1.8285 B(  0-C , 56-H ) :   0.9506 B(  0-C , 57-H ) :   0.9415 
B(  1-C ,  2-C ) :   1.1037 B(  1-C ,  5-S ) :   1.0135 B(  2-C ,  3-C ) :   1.6014 
B(  2-C , 58-H ) :   0.9941 B(  3-C ,  4-C ) :   1.2102 B(  3-C , 59-H ) :   0.9923 
B(  4-C ,  5-S ) :   1.0585 B(  4-C ,  6-C ) :   1.4267 B(  6-C ,  7-C ) :   1.2695 
B(  6-C , 10-S ) :   1.0607 B(  7-C ,  8-C ) :   1.4617 B(  7-C , 60-H ) :   0.9948 
B(  8-C ,  9-C ) :   1.2728 B(  8-C , 61-H ) :   0.9996 B(  9-C , 10-S ) :   1.0652 
B(  9-C , 11-C ) :   1.3638 B( 11-C , 12-C ) :   1.3918 B( 11-C , 62-H ) :   0.9711 
B( 12-C , 13-C ) :   1.3300 B( 12-C , 63-H ) :   0.9731 B( 13-C , 14-C ) :   1.3253 
B( 13-C , 17-S ) :   1.0753 B( 14-C , 15-C ) :   1.3813 B( 14-C , 64-H ) :   1.0009 
B( 15-C , 16-C ) :   1.3800 B( 15-C , 65-H ) :   0.9960 B( 16-C , 17-S ) :   1.0922 
B( 16-C , 18-C ) :   1.2469 B( 18-C , 19-C ) :   1.3640 B( 18-C , 22-S ) :   1.0936 
B( 19-C , 20-C ) :   1.3919 B( 19-C , 66-H ) :   0.9950 B( 20-C , 21-C ) :   1.3256 
B( 20-C , 67-H ) :   1.0004 B( 21-C , 22-S ) :   1.1008 B( 21-C , 23-C ) :   1.3043 
B( 23-C , 24-C ) :   1.4841 B( 23-C , 68-H ) :   0.9413 B( 24-C , 25-S ) :   1.0502 
B( 24-C , 28-C ) :   1.1760 B( 25-S , 26-C ) :   1.0438 B( 26-C , 27-C ) :   1.2844 
B( 26-C , 32-C ) :   1.4624 B( 27-C , 28-C ) :   1.4037 B( 27-C , 31-S ) :   1.0877 
B( 28-C , 29-N ) :   1.3223 B( 29-N , 30-C ) :   1.7395 B( 29-N , 31-S ) :   0.1008 
B( 30-C , 31-S ) :   1.1133 B( 30-C , 69-H ) :   0.9641 B( 32-C , 33-C ) :   1.3023 
B( 32-C , 70-H ) :   0.9667 B( 33-C , 34-C ) :   1.3270 B( 33-C , 37-S ) :   1.0816 
B( 34-C , 35-C ) :   1.3922 B( 34-C , 71-H ) :   0.9998 B( 35-C , 36-C ) :   1.3704 
B( 35-C , 72-H ) :   0.9953 B( 36-C , 37-S ) :   1.0903 B( 36-C , 38-C ) :   1.2532 
B( 38-C , 39-C ) :   1.3797 B( 38-C , 42-S ) :   1.0899 B( 39-C , 40-C ) :   1.3828 
B( 39-C , 73-H ) :   0.9962 B( 40-C , 41-C ) :   1.3260 B( 40-C , 74-H ) :   1.0002 
B( 41-C , 42-S ) :   1.0756 B( 41-C , 43-C ) :   1.3314 B( 43-C , 44-C ) :   1.3879 
B( 43-C , 75-H ) :   0.9749 B( 44-C , 45-C ) :   1.3690 B( 44-C , 76-H ) :   0.9694 
B( 45-C , 46-C ) :   1.2691 B( 45-C , 49-S ) :   1.0634 B( 46-C , 47-C ) :   1.4632 
B( 46-C , 77-H ) :   1.0003 B( 47-C , 48-C ) :   1.2685 B( 47-C , 78-H ) :   0.9950 
B( 48-C , 49-S ) :   1.0605 B( 48-C , 50-C ) :   1.4286 B( 50-C , 51-C ) :   1.2077 
B( 50-C , 54-S ) :   1.0585 B( 51-C , 52-C ) :   1.6022 B( 51-C , 79-H ) :   0.9932 
B( 52-C , 53-C ) :   1.1024 B( 52-C , 80-H ) :   0.9941 B( 53-C , 54-S ) :   1.0129 
B( 53-C , 55-C ) :   1.8271 B( 55-C , 81-H ) :   0.9511 B( 55-C , 82-H ) :   0.9427 


-------
TIMINGS
-------

Total SCF time: 0 days 0 hours 6 min 54 sec 

Total time                  ....     414.892 sec
Sum of individual times     ....     413.131 sec  ( 99.6%)

Fock matrix formation       ....     385.316 sec  ( 92.9%)
  Split-RI-J                ....      39.089 sec  ( 10.1% of F)
  Chain of spheres X        ....     324.869 sec  ( 84.3% of F)
  COS-X 1 center corr.      ....       0.000 sec  (  0.0% of F)
  XC integration            ....      20.290 sec  (  5.3% of F)
    Basis function eval.    ....       6.744 sec  ( 33.2% of XC)
    Density eval.           ....       3.550 sec  ( 17.5% of XC)
    XC-Functional eval.     ....       4.901 sec  ( 24.2% of XC)
    XC-Potential eval.      ....       3.777 sec  ( 18.6% of XC)
Diagonalization             ....       1.986 sec  (  0.5%)
Density matrix formation    ....       0.316 sec  (  0.1%)
Population analysis         ....       0.217 sec  (  0.1%)
Initial guess               ....       1.853 sec  (  0.4%)
Orbital Transformation      ....       0.000 sec  (  0.0%)
Orbital Orthonormalization  ....       0.000 sec  (  0.0%)
DIIS solution               ....       0.871 sec  (  0.2%)
SOSCF solution              ....       3.313 sec  (  0.8%)
Grid generation             ....      19.259 sec  (  4.6%)


           ************************************************************
           *        Program running with 6 parallel MPI-processes     *
           *              working on a common directory               *
           ************************************************************

---------------------------------------------------------------------------------

                       ORCA sTD-DFT CALCULATION

                       please cite in your paper           
 orginal sTDA method:  S. Grimme, J. Chem. Phys. 138, 244104 (2013)           
 range-separated sTDA: T. Risthaus, A. Hansen, S. Grimme, Phys. Chem. Chem. Phys.
                       16, 14408-14419 (2014) 
 sTD-DFT approach:     C. Bannwarth, S. Grimme, Comp. Theor. Chem. 
                       1040-1041, 45-53 (2014)

---------------------------------------------------------------------------------


spectral range up to (eV)      ...    5.000000
occ. MO cut-off (eV)           ...   -16.268731
virt. MO cut-off (eV)          ...    8.918330
perturbation threshold         ...   1.000e-04 
MOs in sTD-DFT                 ...         165 
occ. MOs in sTD-DFT            ...          82 
virt. in sTD-DFT               ...          83 
calculate triplets           ...   no  

Calculating the dipole lengths integrals ... 
Transforming integrals ... 
Calculating the dipole velocity integrals ... 
Transforming integrals ... 
Calculating magnetic dipole integrals ... 
Transforming integrals ... 














































SCF atom population (using active MOs):

   2.957   2.297   2.315   2.409   2.266   3.960   2.237   2.379   2.359   2.270
   3.864   2.372   2.384   2.286   2.373   2.406   2.232   3.858   2.267   2.356
   2.355   2.279   3.854   2.501   2.286   3.974   2.314   2.312   2.025   3.239
   2.347   3.961   2.521   2.262   2.336   2.347   2.241   3.840   2.230   2.404
   2.376   2.283   3.855   2.382   2.379   2.275   2.361   2.381   2.242   3.870
   2.269   2.411   2.320   2.300   3.965   2.960   0.686   0.656   0.536   0.621
   0.580   0.571   0.540   0.548   0.569   0.597   0.555   0.547   0.677   0.537
   0.668   0.537   0.557   0.596   0.572   0.544   0.544   0.572   0.580   0.622
   0.541   0.688   0.656

Number of electrons in sTDA:  164.000

ax(DF)   :  0.3800
s^k      :  2.0000
beta  (J):  1.8600
alpha (K):  0.9000

hardness table read
setting up gammas ...
computing q(ij,n)
memory needed for q data:             6.5 MB 
memory available for q data:       2487.0 MB 

CSF included by energy:           51 
CSF considered in PT2:          6755 

ordered frontier orbitals
           eV         # centers 
  71      -8.619      16.1
  72      -8.583      14.1
  73      -8.431      20.6
  74      -8.380       9.9
  75      -8.301      10.4
  76      -8.034      32.8
  77      -7.455      31.3
  78      -6.773      35.5
  79      -6.205      35.3
  80      -5.391      33.5
  81      -4.122      30.0

  82      -3.229      29.5
  83      -2.023      33.7
  84      -1.150      38.8
  85      -0.713      37.9
  86      -0.042      33.7
  87       0.293      26.0
  88       0.683      20.7
  89       0.950      14.5
  90       1.121      30.1
  91       1.336      18.8
  92       1.421      24.1

           eV        nm       excitation i->a                     eV 
   0      1.05    1177.6    81 ->  82      gap,J,K:    0.893     1.557     0.859
   1      1.28     966.3    81 ->  83      gap,J,K:    2.099     1.516     0.350
   2      1.34     925.1    80 ->  82      gap,J,K:    2.162     1.516     0.347
   3      2.00     618.8    81 ->  84      gap,J,K:    2.972     1.555     0.293
   4      2.03     611.7    79 ->  82      gap,J,K:    2.976     1.549     0.300
   5      2.32     533.5    80 ->  83      gap,J,K:    3.367     1.752     0.354
   6      2.40     516.9    81 ->  85      gap,J,K:    3.409     1.536     0.263
   7      2.53     489.3    78 ->  82      gap,J,K:    3.544     1.547     0.269
   8      2.95     419.8    81 ->  86      gap,J,K:    4.080     1.528     0.201
   9      3.02     411.1    79 ->  83      gap,J,K:    4.182     1.614     0.224
  10      3.07     404.4    80 ->  84      gap,J,K:    4.241     1.611     0.218
  11      3.17     391.2    77 ->  82      gap,J,K:    4.226     1.533     0.238
  12      3.25     381.1    81 ->  87      gap,J,K:    4.415     1.503     0.171
  13      3.51     353.0    80 ->  85      gap,J,K:    4.678     1.607     0.221
  14      3.57     347.1    81 ->  88      gap,J,K:    4.805     1.516     0.142
  15      3.59     345.5    78 ->  83      gap,J,K:    4.749     1.618     0.229
  16      3.64     340.6    81 ->  89      gap,J,K:    5.072     1.514     0.041
  17      3.67     337.8    76 ->  82      gap,J,K:    4.805     1.542     0.204
  18      3.73     332.3    75 ->  82      gap,J,K:    5.072     1.469     0.064
  19      3.76     329.9    74 ->  82      gap,J,K:    5.151     1.502     0.055
  20      3.91     317.3    73 ->  82      gap,J,K:    5.203     1.544     0.124
  21      3.94     314.5    79 ->  84      gap,J,K:    5.055     1.603     0.245
  22      3.99     310.9    72 ->  82      gap,J,K:    5.354     1.552     0.093
  23      3.99     310.6    81 ->  90      gap,J,K:    5.243     1.528     0.138
  24      3.99     310.5    81 ->  91      gap,J,K:    5.458     1.568     0.052

average / max PT2 energy lowering (eV):       0.042       0.066

CSF included by PT:                   302 
total number of CSF included:         353 
 
sTD-DFT procedure...
setting up A+B and A-B matrices...  done
estimated time (min):    0.002
calculating (A-B)^0.5 ...[file orca_cis/cis_stda.cpp, line 1998, Process 4]: Non-real instability encountered...

[file orca_cis/cis_stda.cpp, line 1998, Process 5]: Non-real instability encountered...

[file orca_cis/cis_stda.cpp, line 1998, Process 1]: Non-real instability encountered...

[file orca_cis/cis_stda.cpp, line 1998, Process 2]: Non-real instability encountered...

[file orca_cis/cis_stda.cpp, line 1998, Process 3]: Non-real instability encountered...


Error (STDDFT): (A-B) is not positive definite!
                The ground-state wave function is non-real unstable.
                Check your ground-state and/or resort to sTDA.
[file orca_cis/cis_stda.cpp, line 1998, Process 0]: Non-real instability encountered...


ORCA finished by error termination in CIS
Calling Command: mpirun -np 6  /ihome/crc/build/orca/orca_4_2_0_linux_x86-64_openmpi314/orca_cis_mpi xtbopt.cisinp.tmp xtbopt 
[file orca_tools/qcmsg.cpp, line 458]: 
  .... aborting the run

