
                                 *****************
                                 * O   R   C   A *
                                 *****************

           --- An Ab Initio, DFT and Semiempirical electronic structure package ---

                  #######################################################
                  #                        -***-                        #
                  #          Department of theory and spectroscopy      #
                  #               Directorship: Frank Neese             #
                  #        Max Planck Institute fuer Kohlenforschung    #
                  #                Kaiser Wilhelm Platz 1               #
                  #                 D-45470 Muelheim/Ruhr               #
                  #                      Germany                        #
                  #                                                     #
                  #                  All rights reserved                #
                  #                        -***-                        #
                  #######################################################


                         Program Version 4.2.0 -  RELEASE  -


 With contributions from (in alphabetic order):
   Daniel Aravena         : Magnetic Suceptibility
   Michael Atanasov       : Ab Initio Ligand Field Theory (pilot matlab implementation)
   Alexander A. Auer      : GIAO ZORA, VPT2
   Ute Becker             : Parallelization
   Giovanni Bistoni       : ED, misc. LED, open-shell LED, HFLED
   Martin Brehm           : Molecular dynamics
   Dmytro Bykov           : SCF Hessian
   Vijay G. Chilkuri      : MRCI spin determinant printing, contributions to CSF-ICE
   Dipayan Datta          : RHF DLPNO-CCSD density
   Achintya Kumar Dutta   : EOM-CC, STEOM-CC
   Dmitry Ganyushin       : Spin-Orbit,Spin-Spin,Magnetic field MRCI
   Miquel Garcia          : C-PCM Hessian, Gaussian charge scheme
   Yang Guo               : DLPNO-NEVPT2, CIM, IAO-localization
   Andreas Hansen         : Spin unrestricted coupled pair/coupled cluster methods
   Benjamin Helmich-Paris : CASSCF linear response (MC-RPA)
   Lee Huntington         : MR-EOM, pCC
   Robert Izsak           : Overlap fitted RIJCOSX, COSX-SCS-MP3, EOM
   Christian Kollmar      : KDIIS, OOCD, Brueckner-CCSD(T), CCSD density
   Simone Kossmann        : Meta GGA functionals, TD-DFT gradient, OOMP2, MP2 Hessian
   Martin Krupicka        : AUTO-CI
   Lucas Lang             : DCDCAS
   Dagmar Lenk            : GEPOL surface, SMD
   Dimitrios Liakos       : Extrapolation schemes; Compound Job, initial MDCI parallelization
   Dimitrios Manganas     : Further ROCIS development; embedding schemes
   Dimitrios Pantazis     : SARC Basis sets
   Taras Petrenko         : DFT Hessian,TD-DFT gradient, ASA, ECA, R-Raman, ABS, FL, XAS/XES, NRVS
   Peter Pinski           : DLPNO-MP2, DLPNO-MP2 Gradient
   Christoph Reimann      : Effective Core Potentials
   Marius Retegan         : Local ZFS, SOC
   Christoph Riplinger    : Optimizer, TS searches, QM/MM, DLPNO-CCSD(T), (RO)-DLPNO pert. Triples
   Tobias Risthaus        : Range-separated hybrids, TD-DFT gradient, RPA, STAB
   Michael Roemelt        : Original ROCIS implementation
   Masaaki Saitow         : Open-shell DLPNO-CCSD energy and density
   Barbara Sandhoefer     : DKH picture change effects
   Avijit Sen             : IP-ROCIS
   Kantharuban Sivalingam : CASSCF convergence, NEVPT2, FIC-MRCI
   Bernardo de Souza      : ESD, SOC TD-DFT
   Georgi Stoychev        : AutoAux, RI-MP2 NMR
   Willem Van den Heuvel  : Paramagnetic NMR
   Boris Wezisla          : Elementary symmetry handling
   Frank Wennmohs         : Technical directorship


 We gratefully acknowledge several colleagues who have allowed us to
 interface, adapt or use parts of their codes:
   Stefan Grimme, W. Hujo, H. Kruse,             : VdW corrections, initial TS optimization,
                  C. Bannwarth                     DFT functionals, gCP, sTDA/sTD-DF
   Ed Valeev, F. Pavosevic, A. Kumar             : LibInt (2-el integral package), F12 methods
   Garnet Chan, S. Sharma, J. Yang, R. Olivares  : DMRG
   Ulf Ekstrom                                   : XCFun DFT Library
   Mihaly Kallay                                 : mrcc  (arbitrary order and MRCC methods)
   Andreas Klamt, Michael Diedenhofen            : otool_cosmo (COSMO solvation model)
   Jiri Pittner, Ondrej Demel                    : Mk-CCSD
   Frank Weinhold                                : gennbo (NPA and NBO analysis)
   Christopher J. Cramer and Donald G. Truhlar   : smd solvation model
   Lars Goerigk                                  : TD-DFT with DH, B97 family of functionals
   V. Asgeirsson, H. Jonsson                     : NEB implementation
   FAccTs GmbH                                   : IRC, NEB, NEB-TS, Multilevel, MM, QM/MM, CI optimization
   S Lehtola, MJT Oliveira, MAL Marques          : LibXC Library


 Your calculation uses the libint2 library for the computation of 2-el integrals
 For citations please refer to: http://libint.valeyev.net

 Your ORCA version has been built with support for libXC version: 4.2.3
 For citations please refer to: https://tddft.org/programs/libxc/

 This ORCA versions uses:
   CBLAS   interface :  Fast vector & matrix operations
   LAPACKE interface :  Fast linear algebra routines
   SCALAPACK package :  Parallel linear algebra routines


XCFun DFT library Copyright 2009-2010 Ulf Ekstrom and contributors.
See http://admol.org/xcfun for more information. This is free soft-
ware; see the source code for copying conditions. There is ABSOLUTELY
NO WARRANTY; not even for MERCHANTABILITY or FITNESS FOR A PARTICULAR
PURPOSE. For details see the documentation. Scientific users of this 
library should cite U. Ekstrom, L. Visscher, R. Bast, A. J. Thorvald-
sen and K. Ruud; J.Chem.Theor.Comp. 2010, DOI: 10.1021/ct100117s
XCFun Version 0.99 
----- Orbital basis set information -----
Your calculation utilizes the basis: def2-SVP
   F. Weigend and R. Ahlrichs, Phys. Chem. Chem. Phys. 7, 3297 (2005).

----- AuxJ basis set information -----
Your calculation utilizes the auxiliary basis: def2/J
   F. Weigend, Phys. Chem. Chem. Phys. 8, 1057 (2006).

================================================================================
                                        WARNINGS
                       Please study these warnings very carefully!
================================================================================

INFO   : Checking CIS options ...

WARNING: CIS/ROCIS methods need fully converged wavefunctions
  ===> : Setting SCFConvForced true
         You can overwrite this default with %scf ConvForced false 


INFO   : the flag for use of LIBINT has been found!

================================================================================
                                       INPUT FILE
================================================================================
NAME = xtbopt.inp
|  1> # ORCA input file
|  2> # SCF done       -202.882936625244          0.000684396339
|  3> ! CAM-B3LYP def2-SVP def2/J RIJCOSX Grid4 TightSCF
|  4> %maxcore 5000
|  5> %tddft
|  6>     Mode sTDDFT
|  7>     Ethresh 5.0
|  8>     maxcore 5000
|  9> end
| 10> 
| 11> %pal
| 12>   nprocs 6
| 13>   end
| 14> * xyz 0 1
| 15>    C       12.71632        -9.83304       -12.11585
| 16>    C       12.21767        -9.31334       -10.98591
| 17>    C       12.70440        -8.17813       -10.25434
| 18>    C       11.99442        -7.88564        -9.14304
| 19>    C       10.89509        -8.75799        -8.90002
| 20>    S       10.79879        -9.97469       -10.15570
| 21>    C        9.99967        -8.70222        -7.85935
| 22>    C        9.97994        -7.78004        -6.78015
| 23>    C        8.94800        -7.97683        -5.92349
| 24>    C        8.10014        -9.07378        -6.25757
| 25>    S        8.68365        -9.85150        -7.70233
| 26>    C        6.94566        -9.36413        -5.57450
| 27>    C        5.99430       -10.38214        -5.75453
| 28>    O        4.77687       -10.14041        -5.20151
| 29>    C        3.95732       -11.18082        -5.49246
| 30>    C        4.64912       -12.11845        -6.23339
| 31>    C        5.96437       -11.63735        -6.39729
| 32>    C        7.08593       -12.39009        -6.93406
| 33>    O        8.24428       -12.09831        -6.69061
| 34>    C        6.73027       -13.59278        -7.77543
| 35>    C        2.61649       -11.19924        -5.03782
| 36>    C        2.05766       -10.21767        -4.28182
| 37>    C        0.73691       -10.22990        -3.79981
| 38>    S       -0.39909       -11.51010        -4.12855
| 39>    C       -1.67156       -10.78645        -3.18644
| 40>    C       -1.21809        -9.57671        -2.63874
| 41>    C        0.12853        -9.26266        -2.99103
| 42>    N        0.70908        -8.12667        -2.56162
| 43>    C       -0.01042        -7.32321        -1.81467
| 44>    C        0.62254        -6.04715        -1.35175
| 45>    C        1.96135        -5.76333        -2.04271
| 46>    O        2.94451        -6.71850        -1.75244
| 47>    C       -1.35116        -7.65766        -1.44262
| 48>    C       -2.16174        -6.77142        -0.53878
| 49>    N       -1.48530        -6.61045         0.74364
| 50>    N       -1.93407        -8.75894        -1.84666
| 51>    C       -2.93922       -11.36627        -3.01425
| 52>    C       -3.34994       -12.50630        -3.64005
| 53>    C       -4.59327       -13.16166        -3.48214
| 54>    C       -5.53796       -12.87564        -2.54418
| 55>    C       -6.75256       -13.58776        -2.42137
| 56>    O       -7.59437       -13.30219        -1.38966
| 57>    C       -8.67558       -14.12001        -1.47082
| 58>    C       -8.53359       -14.94245        -2.58192
| 59>    C       -7.30948       -14.61108        -3.18830
| 60>    O       -6.78789       -15.18065        -4.29900
| 61>    O       -9.36850       -15.91083        -3.05707
| 62>    C       -9.71667       -14.08263        -0.50596
| 63>    C       -9.74099       -13.27540         0.57980
| 64>    C      -10.79796       -13.29833         1.53393
| 65>    C      -10.80432       -12.50928         2.62348
| 66>    N      -11.77864       -12.48375         3.60417
| 67>    C      -12.87266       -13.32093         3.68433
| 68>    O      -13.17838       -14.17313         2.88175
| 69>    C      -13.61140       -13.01438         4.98502
| 70>    C      -12.83293       -11.87050         5.54242
| 71>    C      -11.74622       -11.61414         4.70329
| 72>    C      -10.84068       -10.61630         5.00060
| 73>    C      -11.02468        -9.86645         6.16078
| 74>    C      -12.10852       -10.12706         6.98796
| 75>    C      -13.01813       -11.13158         6.68816
| 76>    C      -10.03609        -8.79361         6.50349
| 77>    C      -13.55117       -14.27046         5.88503
| 78>    C      -12.11936       -14.82127         5.87131
| 79>    O      -11.11068       -14.24950         6.21047
| 80>    N      -12.18115       -16.08729         5.37306
| 81>    C      -13.47606       -16.46458         5.04333
| 82>    C      -14.34927       -15.41772         5.34931
| 83>    C      -15.69832       -15.56194         5.11793
| 84>    C      -16.15748       -16.75932         4.58584
| 85>    C      -15.29064       -17.80151         4.27991
| 86>    C      -15.81419       -19.06992         3.67749
| 87>    C      -13.92505       -17.65473         4.51321
| 88>    H       13.58175        -9.39952       -12.58532
| 89>    H       12.27333       -10.69142       -12.58634
| 90>    H       13.56631        -7.63323       -10.59686
| 91>    H       12.21687        -7.06992        -8.47815
| 92>    H       10.72231        -7.00984        -6.67074
| 93>    H        8.75740        -7.37729        -5.05050
| 94>    H        6.66611        -8.65434        -4.80422
| 95>    H        4.25366       -13.05064        -6.58051
| 96>    H        5.98883       -13.32864        -8.52505
| 97>    H        6.31891       -14.37381        -7.13857
| 98>    H        7.62804       -13.96985        -8.25803
| 99>    H        2.03275       -12.06407        -5.32001
|100>    H        2.64935        -9.35587        -4.00521
|101>    H        0.76496        -6.11205        -0.27018
|102>    H       -0.06182        -5.21698        -1.53669
|103>    H        2.35554        -4.80463        -1.69528
|104>    H        1.79690        -5.70152        -3.12930
|105>    H        2.58109        -7.56924        -2.04451
|106>    H       -3.16645        -7.21475        -0.45895
|107>    H       -2.25862        -5.77800        -0.99006
|108>    H       -1.40051        -7.51160         1.20298
|109>    H       -2.02833        -6.00545         1.34968
|110>    H       -3.59448       -10.82570        -2.34655
|111>    H       -2.65866       -12.95956        -4.34092
|112>    H       -4.79147       -13.98382        -4.15411
|113>    H       -5.38554       -12.09323        -1.81561
|114>    H       -7.41374       -15.85061        -4.60529
|115>    H      -10.14765       -15.96433        -2.49379
|116>    H      -10.53542       -14.77299        -0.66703
|117>    H       -8.92119       -12.58915         0.73883
|118>    H      -11.60986       -13.98749         1.36197
|119>    H       -9.99108       -11.82004         2.80012
|120>    H      -14.65906       -12.77362         4.78536
|121>    H       -9.99352       -10.40498         4.36656
|122>    H      -12.24282        -9.54139         7.88512
|123>    H      -13.85401       -11.32668         7.34340
|124>    H       -9.88399        -8.12678         5.65627
|125>    H       -9.07401        -9.23972         6.75373
|126>    H      -10.37477        -8.20793         7.35377
|127>    H      -13.83958       -13.98757         6.90113
|128>    H      -11.36445       -16.65417         5.20814
|129>    H      -16.39046       -14.76436         5.34416
|130>    H      -17.21396       -16.88374         4.39962
|131>    H      -16.83724       -19.25756         3.99432
|132>    H      -15.19515       -19.91872         3.95854
|133>    H      -15.80679       -18.99248         2.58986
|134>    H      -13.23831       -18.45407         4.27806
|135> *
|136> 
|137>                          ****END OF INPUT****
================================================================================

                       ****************************
                       * Single Point Calculation *
                       ****************************

---------------------------------
CARTESIAN COORDINATES (ANGSTROEM)
---------------------------------
  C     12.716320   -9.833040  -12.115850
  C     12.217670   -9.313340  -10.985910
  C     12.704400   -8.178130  -10.254340
  C     11.994420   -7.885640   -9.143040
  C     10.895090   -8.757990   -8.900020
  S     10.798790   -9.974690  -10.155700
  C      9.999670   -8.702220   -7.859350
  C      9.979940   -7.780040   -6.780150
  C      8.948000   -7.976830   -5.923490
  C      8.100140   -9.073780   -6.257570
  S      8.683650   -9.851500   -7.702330
  C      6.945660   -9.364130   -5.574500
  C      5.994300  -10.382140   -5.754530
  O      4.776870  -10.140410   -5.201510
  C      3.957320  -11.180820   -5.492460
  C      4.649120  -12.118450   -6.233390
  C      5.964370  -11.637350   -6.397290
  C      7.085930  -12.390090   -6.934060
  O      8.244280  -12.098310   -6.690610
  C      6.730270  -13.592780   -7.775430
  C      2.616490  -11.199240   -5.037820
  C      2.057660  -10.217670   -4.281820
  C      0.736910  -10.229900   -3.799810
  S     -0.399090  -11.510100   -4.128550
  C     -1.671560  -10.786450   -3.186440
  C     -1.218090   -9.576710   -2.638740
  C      0.128530   -9.262660   -2.991030
  N      0.709080   -8.126670   -2.561620
  C     -0.010420   -7.323210   -1.814670
  C      0.622540   -6.047150   -1.351750
  C      1.961350   -5.763330   -2.042710
  O      2.944510   -6.718500   -1.752440
  C     -1.351160   -7.657660   -1.442620
  C     -2.161740   -6.771420   -0.538780
  N     -1.485300   -6.610450    0.743640
  N     -1.934070   -8.758940   -1.846660
  C     -2.939220  -11.366270   -3.014250
  C     -3.349940  -12.506300   -3.640050
  C     -4.593270  -13.161660   -3.482140
  C     -5.537960  -12.875640   -2.544180
  C     -6.752560  -13.587760   -2.421370
  O     -7.594370  -13.302190   -1.389660
  C     -8.675580  -14.120010   -1.470820
  C     -8.533590  -14.942450   -2.581920
  C     -7.309480  -14.611080   -3.188300
  O     -6.787890  -15.180650   -4.299000
  O     -9.368500  -15.910830   -3.057070
  C     -9.716670  -14.082630   -0.505960
  C     -9.740990  -13.275400    0.579800
  C    -10.797960  -13.298330    1.533930
  C    -10.804320  -12.509280    2.623480
  N    -11.778640  -12.483750    3.604170
  C    -12.872660  -13.320930    3.684330
  O    -13.178380  -14.173130    2.881750
  C    -13.611400  -13.014380    4.985020
  C    -12.832930  -11.870500    5.542420
  C    -11.746220  -11.614140    4.703290
  C    -10.840680  -10.616300    5.000600
  C    -11.024680   -9.866450    6.160780
  C    -12.108520  -10.127060    6.987960
  C    -13.018130  -11.131580    6.688160
  C    -10.036090   -8.793610    6.503490
  C    -13.551170  -14.270460    5.885030
  C    -12.119360  -14.821270    5.871310
  O    -11.110680  -14.249500    6.210470
  N    -12.181150  -16.087290    5.373060
  C    -13.476060  -16.464580    5.043330
  C    -14.349270  -15.417720    5.349310
  C    -15.698320  -15.561940    5.117930
  C    -16.157480  -16.759320    4.585840
  C    -15.290640  -17.801510    4.279910
  C    -15.814190  -19.069920    3.677490
  C    -13.925050  -17.654730    4.513210
  H     13.581750   -9.399520  -12.585320
  H     12.273330  -10.691420  -12.586340
  H     13.566310   -7.633230  -10.596860
  H     12.216870   -7.069920   -8.478150
  H     10.722310   -7.009840   -6.670740
  H      8.757400   -7.377290   -5.050500
  H      6.666110   -8.654340   -4.804220
  H      4.253660  -13.050640   -6.580510
  H      5.988830  -13.328640   -8.525050
  H      6.318910  -14.373810   -7.138570
  H      7.628040  -13.969850   -8.258030
  H      2.032750  -12.064070   -5.320010
  H      2.649350   -9.355870   -4.005210
  H      0.764960   -6.112050   -0.270180
  H     -0.061820   -5.216980   -1.536690
  H      2.355540   -4.804630   -1.695280
  H      1.796900   -5.701520   -3.129300
  H      2.581090   -7.569240   -2.044510
  H     -3.166450   -7.214750   -0.458950
  H     -2.258620   -5.778000   -0.990060
  H     -1.400510   -7.511600    1.202980
  H     -2.028330   -6.005450    1.349680
  H     -3.594480  -10.825700   -2.346550
  H     -2.658660  -12.959560   -4.340920
  H     -4.791470  -13.983820   -4.154110
  H     -5.385540  -12.093230   -1.815610
  H     -7.413740  -15.850610   -4.605290
  H    -10.147650  -15.964330   -2.493790
  H    -10.535420  -14.772990   -0.667030
  H     -8.921190  -12.589150    0.738830
  H    -11.609860  -13.987490    1.361970
  H     -9.991080  -11.820040    2.800120
  H    -14.659060  -12.773620    4.785360
  H     -9.993520  -10.404980    4.366560
  H    -12.242820   -9.541390    7.885120
  H    -13.854010  -11.326680    7.343400
  H     -9.883990   -8.126780    5.656270
  H     -9.074010   -9.239720    6.753730
  H    -10.374770   -8.207930    7.353770
  H    -13.839580  -13.987570    6.901130
  H    -11.364450  -16.654170    5.208140
  H    -16.390460  -14.764360    5.344160
  H    -17.213960  -16.883740    4.399620
  H    -16.837240  -19.257560    3.994320
  H    -15.195150  -19.918720    3.958540
  H    -15.806790  -18.992480    2.589860
  H    -13.238310  -18.454070    4.278060

----------------------------
CARTESIAN COORDINATES (A.U.)
----------------------------
  NO LB      ZA    FRAG     MASS         X           Y           Z
   0 C     6.0000    0    12.011   24.030362  -18.581753  -22.895638
   1 C     6.0000    0    12.011   23.088050  -17.599662  -20.760361
   2 C     6.0000    0    12.011   24.007837  -15.454426  -19.377894
   3 C     6.0000    0    12.011   22.666169  -14.901700  -17.277842
   4 C     6.0000    0    12.011   20.588736  -16.550203  -16.818600
   5 S    16.0000    0    32.060   20.406756  -18.849432  -19.191492
   6 C     6.0000    0    12.011   18.896638  -16.444813  -14.852019
   7 C     6.0000    0    12.011   18.859353  -14.702145  -12.812627
   8 C     6.0000    0    12.011   16.909269  -15.074024  -11.193774
   9 C     6.0000    0    12.011   15.307046  -17.146959  -11.825094
  10 S    16.0000    0    32.060   16.409720  -18.616637  -14.555294
  11 C     6.0000    0    12.011   13.125395  -17.695641  -10.534278
  12 C     6.0000    0    12.011   11.327585  -19.619401  -10.874486
  13 O     8.0000    0    15.999    9.026976  -19.162598   -9.829429
  14 C     6.0000    0    12.011    7.478251  -21.128688  -10.379245
  15 C     6.0000    0    12.011    8.785564  -22.900552  -11.779400
  16 C     6.0000    0    12.011   11.271026  -21.991404  -12.089126
  17 C     6.0000    0    12.011   13.390467  -23.413877  -13.103474
  18 O     8.0000    0    15.999   15.579431  -22.862493  -12.643421
  19 C     6.0000    0    12.011   12.718367  -25.686632  -14.693433
  20 C     6.0000    0    12.011    4.944450  -21.163497   -9.520100
  21 C     6.0000    0    12.011    3.888414  -19.308598   -8.091467
  22 C     6.0000    0    12.011    1.392558  -19.331709   -7.180600
  23 S    16.0000    0    32.060   -0.754171  -21.750937   -7.801829
  24 C     6.0000    0    12.011   -3.158791  -20.383436   -6.021499
  25 C     6.0000    0    12.011   -2.301857  -18.097359   -4.986496
  26 C     6.0000    0    12.011    0.242886  -17.503891   -5.652228
  27 N     7.0000    0    14.007    1.339967  -15.357181   -4.840760
  28 C     6.0000    0    12.011   -0.019691  -13.838861   -3.429229
  29 C     6.0000    0    12.011    1.176430  -11.427457   -2.554437
  30 C     6.0000    0    12.011    3.706414  -10.891115   -3.860162
  31 O     8.0000    0    15.999    5.564317  -12.696125   -3.311632
  32 C     6.0000    0    12.011   -2.553322  -14.470880   -2.726157
  33 C     6.0000    0    12.011   -4.085097  -12.796129   -1.018147
  34 N     7.0000    0    14.007   -2.806810  -12.491940    1.405276
  35 N     7.0000    0    14.007   -3.654863  -16.551998   -3.489682
  36 C     6.0000    0    12.011   -5.554321  -21.479137   -5.696107
  37 C     6.0000    0    12.011   -6.330469  -23.633482   -6.878698
  38 C     6.0000    0    12.011   -8.680022  -24.871933   -6.580291
  39 C     6.0000    0    12.011  -10.465228  -24.331433   -4.807803
  40 C     6.0000    0    12.011  -12.760489  -25.677145   -4.575726
  41 O     8.0000    0    15.999  -14.351279  -25.137496   -2.626077
  42 C     6.0000    0    12.011  -16.394470  -26.682952   -2.779447
  43 C     6.0000    0    12.011  -16.126148  -28.237138   -4.879122
  44 C     6.0000    0    12.011  -13.812915  -27.610940   -6.025014
  45 O     8.0000    0    15.999  -12.827253  -28.687271   -8.123933
  46 O     8.0000    0    15.999  -17.703899  -30.067111   -5.777025
  47 C     6.0000    0    12.011  -18.361845  -26.612314   -0.956126
  48 C     6.0000    0    12.011  -18.407803  -25.086870    1.095663
  49 C     6.0000    0    12.011  -20.405187  -25.130202    2.898708
  50 C     6.0000    0    12.011  -20.417206  -23.639113    4.957659
  51 N     7.0000    0    14.007  -22.258404  -23.590869    6.810894
  52 C     6.0000    0    12.011  -24.325802  -25.172910    6.962375
  53 O     8.0000    0    15.999  -24.903529  -26.783334    5.445718
  54 C     6.0000    0    12.011  -25.721818  -24.593614    9.420323
  55 C     6.0000    0    12.011  -24.250723  -22.431994   10.473656
  56 C     6.0000    0    12.011  -22.197139  -21.947544    8.887930
  57 C     6.0000    0    12.011  -20.485916  -20.061900    9.449765
  58 C     6.0000    0    12.011  -20.833626  -18.644888   11.642187
  59 C     6.0000    0    12.011  -22.881787  -19.137370   13.205331
  60 C     6.0000    0    12.011  -24.600700  -21.035638   12.638791
  61 C     6.0000    0    12.011  -18.965462  -16.617515   12.289815
  62 C     6.0000    0    12.011  -25.608000  -26.967261   11.121095
  63 C     6.0000    0    12.011  -22.902271  -28.008141   11.095168
  64 O     8.0000    0    15.999  -20.996142  -26.927653   11.736087
  65 N     7.0000    0    14.007  -23.019037  -30.400572   10.153612
  66 C     6.0000    0    12.011  -25.466063  -31.113547    9.530513
  67 C     6.0000    0    12.011  -27.116191  -29.135268   10.108731
  68 C     6.0000    0    12.011  -29.665526  -29.407805    9.671486
  69 C     6.0000    0    12.011  -30.533212  -31.670525    8.665982
  70 C     6.0000    0    12.011  -28.895122  -33.639979    8.087858
  71 C     6.0000    0    12.011  -29.884488  -36.036926    6.949449
  72 C     6.0000    0    12.011  -26.314531  -33.362605    8.528731
  73 H     1.0000    0     1.008   25.665788  -17.762519  -23.782808
  74 H     1.0000    0     1.008   23.193232  -20.203856  -23.784736
  75 H     1.0000    0     1.008   25.636611  -14.424714  -20.025163
  76 H     1.0000    0     1.008   23.086539  -13.360213  -16.021382
  77 H     1.0000    0     1.008   20.262229  -13.246678  -12.605872
  78 H     1.0000    0     1.008   16.549088  -13.941058   -9.544062
  79 H     1.0000    0     1.008   12.597122  -16.354332   -9.078660
  80 H     1.0000    0     1.008    8.038252  -24.662135  -12.435362
  81 H     1.0000    0     1.008   11.317249  -25.187479  -16.110010
  82 H     1.0000    0     1.008   11.941009  -27.162564  -13.489942
  83 H     1.0000    0     1.008   14.414907  -26.399191  -15.605415
  84 H     1.0000    0     1.008    3.841341  -22.797788  -10.053362
  85 H     1.0000    0     1.008    5.006546  -17.680032   -7.568750
  86 H     1.0000    0     1.008    1.445565  -11.550101   -0.510566
  87 H     1.0000    0     1.008   -0.116823   -9.858663   -2.903923
  88 H     1.0000    0     1.008    4.451325   -9.079435   -3.203615
  89 H     1.0000    0     1.008    3.395649  -10.774311   -5.913520
  90 H     1.0000    0     1.008    4.877553  -14.303791   -3.863564
  91 H     1.0000    0     1.008   -5.983723  -13.633902   -0.867290
  92 H     1.0000    0     1.008   -4.268173  -10.918838   -1.870942
  93 H     1.0000    0     1.008   -2.646580  -14.194867    2.273303
  94 H     1.0000    0     1.008   -3.832988  -11.348656    2.550526
  95 H     1.0000    0     1.008   -6.792583  -20.457608   -4.434337
  96 H     1.0000    0     1.008   -5.024139  -24.490019   -8.203150
  97 H     1.0000    0     1.008   -9.054566  -26.425590   -7.850130
  98 H     1.0000    0     1.008  -10.177196  -22.852893   -3.431006
  99 H     1.0000    0     1.008  -14.009938  -29.953312   -8.702737
 100 H     1.0000    0     1.008  -19.176279  -30.168212   -4.712580
 101 H     1.0000    0     1.008  -19.909059  -27.916905   -1.260504
 102 H     1.0000    0     1.008  -16.858606  -23.790046    1.396186
 103 H     1.0000    0     1.008  -21.939456  -26.432525    2.573750
 104 H     1.0000    0     1.008  -18.880405  -22.336638    5.291460
 105 H     1.0000    0     1.008  -27.701609  -24.138644    9.043020
 106 H     1.0000    0     1.008  -18.885016  -19.662563    8.251603
 107 H     1.0000    0     1.008  -23.135577  -18.030614   14.900717
 108 H     1.0000    0     1.008  -26.180285  -21.404323   13.877015
 109 H     1.0000    0     1.008  -18.678034  -15.357389   10.688801
 110 H     1.0000    0     1.008  -17.147394  -17.460540   12.762700
 111 H     1.0000    0     1.008  -19.605474  -15.510740   13.896611
 112 H     1.0000    0     1.008  -26.153016  -26.432677   13.041246
 113 H     1.0000    0     1.008  -21.475698  -31.471820    9.841958
 114 H     1.0000    0     1.008  -30.973481  -27.900597   10.098999
 115 H     1.0000    0     1.008  -32.529670  -31.905645    8.314077
 116 H     1.0000    0     1.008  -31.817772  -36.391514    7.548171
 117 H     1.0000    0     1.008  -28.714672  -37.640926    7.480556
 118 H     1.0000    0     1.008  -29.870504  -35.890586    4.894126
 119 H     1.0000    0     1.008  -25.016780  -34.873138    8.084362

--------------------------------
INTERNAL COORDINATES (ANGSTROEM)
--------------------------------
 C      0   0   0     0.000000000000     0.00000000     0.00000000
 C      1   0   0     1.339964296577     0.00000000     0.00000000
 C      2   1   0     1.435549547003   127.60845022     0.00000000
 C      3   2   1     1.350781140859   114.34830809   180.05648900
 C      4   3   2     1.424282167199   114.42118823     0.09459994
 S      5   4   3     1.751103892520   110.22207759   359.89712516
 C      5   4   3     1.374001935297   127.40002171   180.33129833
 C      7   5   4     1.419675267552   127.67478544   358.79845778
 C      8   7   5     1.355541524004   113.37109878   178.93615831
 C      9   8   7     1.426104950030   114.59626934     0.85071854
 S     10   9   8     1.741454500152   109.79499837     0.50336604
 C     10   9   8     1.372483813311   123.10867327   185.41040926
 C     12  10   9     1.404934521819   131.23216670   179.78206211
 O     13  12  10     1.358823137204   115.19115378   200.35941870
 C     14  13  12     1.356011457584   108.52250012   177.99236313
 C     15  14  13     1.380838340212   109.47071167     0.53393368
 C     16  15  14     1.410036518144   107.33810077     0.53521536
 C     17  16  15     1.453491098734   125.87271879   170.00981348
 O     18  17  16     1.219089083455   122.37693174   202.78112171
 C     18  17  16     1.510251882502   115.87681754    20.61958872
 C     15  14  13     1.415931465467   120.89147854   179.90194706
 C     21  15  14     1.359156589139   123.95590962   359.16002033
 C     22  21  15     1.406009877455   124.79427271   181.26975189
 S     23  22  21     1.742836202172   123.64260620   358.91849630
 C     24  23  22     1.740810292795    93.95764277   178.72075018
 C     25  24  23     1.403239537107   109.47463105     0.27546101
 C     23  22  21     1.399930187688   126.88951910   178.19542156
 N     27  23  22     1.346070031871   125.44769917     1.73186885
 C     28  27  23     1.311930838154   117.51241052   179.56041653
 C     29  28  27     1.497752453378   117.77367247   180.95536236
 C     30  29  28     1.533098734622   112.79759393    10.22922240
 O     31  30  29     1.401145955067   113.15295170   296.07604441
 C     29  28  27     1.431035203131   121.24618393     1.52262232
 C     33  29  28     1.503126082403   121.58562307   177.32167146
 N     34  33  29     1.458795212119   110.09696548   300.96848901
 N     33  29  28     1.309904587403   122.22325625   358.57453101
 C     25  24  23     1.404564880701   123.67338498   180.93607291
 C     37  25  24     1.363812655499   124.09889801   355.01700475
 C     38  37  25     1.414320256024   126.93117863   178.03034206
 C     39  38  37     1.361622413924   126.12105972   350.55044944
 C     40  39  38     1.413311837671   123.38528134   181.32568434
 O     41  40  39     1.361844273440   119.43277161   174.92986431
 C     42  41  40     1.358098509719   108.69722775   180.82860961
 C     43  42  41     1.389644531418   108.83399848   359.55567515
 C     41  40  39     1.394820896639   131.68424280   355.65434680
 O     45  41  40     1.352819501264   127.32799699   359.27327657
 O     44  43  42     1.364038875912   129.50469793   180.18663773
 C     43  42  41     1.419936784544   121.81992245   178.27513948
 C     48  43  42     1.353176452980   125.03698789   358.77271433
 C     49  48  43     1.424105130494   122.77328776   181.40001787
 C     50  49  48     1.345273040910   122.45879275   178.81746362
 N     51  50  49     1.382643887413   126.05910081   180.98084349
 C     52  51  50     1.379918743405   126.06341439     4.41024628
 O     53  52  51     1.209894299020   126.09480015   356.92331594
 C     53  52  51     1.526926378775   108.13479723   175.27647054
 C     55  53  52     1.491700960414   102.69552712     3.17722145
 C     56  55  53     1.396709787536   108.80154450   356.94301966
 C     57  56  55     1.379884268082   120.92206992   181.29056526
 C     58  57  56     1.393609936424   118.80414552     0.24353685
 C     59  58  57     1.388111476107   119.87842048   359.67483951
 C     56  55  53     1.375871343549   130.74933537   178.64526804
 C     59  58  57     1.498581328390   119.24115571   179.11858322
 C     55  53  52     1.546409589792   108.29163157   243.82455042
 C     63  55  53     1.534164192842   108.83044248    45.26212509
 O     64  63  55     1.208050404950   127.35991264    59.27292089
 N     64  63  55     1.361938951275   107.13792922   240.50873811
 C     66  64  63     1.388474531671   112.44413008     0.14671785
 C     67  66  64     1.397152577244   109.10294558   358.98789195
 C     68  67  66     1.376325548444   119.81987031   180.48974422
 C     69  68  67     1.388404313628   118.61709080     0.24445931
 C     70  69  68     1.389663537192   121.65842908   359.70609795
 C     71  70  69     1.498625499249   120.35312389   181.39741724
 C     67  66  64     1.378069757668   129.04158246   179.69182275
 H      1   2   3     1.075783786920   120.73539588     0.00000000
 H      1   2   3     1.074438087839   121.71415045   179.99707876
 H      3   2   1     1.075697359158   120.66233858     0.04468525
 H      4   3   2     1.075621603074   124.33741421   180.04871283
 H      8   7   5     1.075310097135   122.20918794   358.79561841
 H      9   8   7     1.076052095254   124.51815706   180.52865646
 H     12  10   9     1.084103927214   115.59554274     4.85078453
 H     16  15  14     1.070448084729   125.46741601   178.50563005
 H     20  18  17     1.086937605201   110.56884146    49.16144692
 H     20  18  17     1.088492338099   109.53927435   289.42902409
 H     20  18  17     1.086772983562   109.21750248   170.30321407
 H     21  15  14     1.080885985014   115.97591474   179.67703064
 H     22  21  15     1.081346100099   119.52938543     0.58892711
 H     30  29  28     1.092835363310   108.08144204   248.29848244
 H     30  29  28     1.091665535821   109.30579156   132.02493354
 H     31  30  29     1.093251595471   109.51096360   177.82022838
 H     31  30  29     1.100700734396   108.95602137    59.21245789
 H     32  31  30     0.970122429851   105.81823383    58.59486107
 H     34  33  29     1.101070616219   107.35384983   176.57763092
 H     34  33  29     1.095409817922   109.55267096    59.16211655
 H     35  34  33     1.015014237437   109.79159004   297.84505675
 H     35  34  33     1.013997565332   110.05508742   179.46722124
 H     37  25  24     1.080465123222   114.61843988   176.02921488
 H     38  37  25     1.083758009382   117.01716432   357.46225198
 H     39  38  37     1.080173128022   116.39388970   172.46848518
 H     40  39  38     1.079912732308   121.26564640   359.40104474
 H     46  45  41     0.966616877672   107.59778729   180.67061275
 H     47  44  43     0.962923325556   109.32620510     0.70651795
 H     48  43  42     1.083001402123   115.87787696   179.68784182
 H     49  48  43     1.080880031918   118.89254135     0.80324650
 H     50  49  48     1.078746196841   117.52202656   359.35474181
 H     51  50  49     1.080561319315   120.19615906     0.36611616
 H     55  53  52     1.093353085147   110.62451562   124.66193551
 H     58  57  56     1.079047232330   122.02113078   179.82120227
 H     60  59  58     1.079787897923   119.36675251   179.96586730
 H     61  56  55     1.079860565999   120.82734897   358.35690048
 H     62  59  58     1.088842682530   110.64910615    51.44143307
 H     62  59  58     1.089601815389   109.99207646   292.41636870
 H     62  59  58     1.086600792932   111.05174976   172.38030456
 H     63  55  53     1.093465267030   108.68775795   165.44564144
 H     66  64  63     1.007745221174   123.09356262   176.27146498
 H     69  68  67     1.079986874411   121.03597426   180.19583115
 H     70  69  68     1.079957506201   119.27233227   180.02743977
 H     72  71  70     1.087300014255   110.95529613   330.64308076
 H     72  71  70     1.087502213377   110.96854625   209.30099704
 H     72  71  70     1.090408515420   109.78411621    89.96582423
 H     73  67  66     1.079746167254   121.05814387   358.98576538

---------------------------
INTERNAL COORDINATES (A.U.)
---------------------------
 C      0   0   0     0.000000000000     0.00000000     0.00000000
 C      1   0   0     2.532165549762     0.00000000     0.00000000
 C      2   1   0     2.712795495510   127.60845022     0.00000000
 C      3   2   1     2.552606423089   114.34830809   180.05648900
 C      4   3   2     2.691503233433   114.42118823     0.09459994
 S      5   4   3     3.309106788907   110.22207759   359.89712516
 C      5   4   3     2.596487365189   127.40002171   180.33129833
 C      7   5   4     2.682797454775   127.67478544   358.79845778
 C      8   7   5     2.561602243526   113.37109878   178.93615831
 C      9   8   7     2.694947793786   114.59626934     0.85071854
 S     10   9   8     3.290872079972   109.79499837     0.50336604
 C     10   9   8     2.593618530397   123.10867327   185.41040926
 C     12  10   9     2.654941482330   131.23216670   179.78206211
 O     13  12  10     2.567803593751   115.19115378   200.35941870
 C     14  13  12     2.562490289294   108.52250012   177.99236313
 C     15  14  13     2.609406298219   109.47071167     0.53393368
 C     16  15  14     2.664582858120   107.33810077     0.53521536
 C     17  16  15     2.746700114700   125.87271879   170.00981348
 O     18  17  16     2.303744500584   122.37693174   202.78112171
 C     18  17  16     2.853962451167   115.87681754    20.61958872
 C     15  14  13     2.675722694135   120.89147854   179.90194706
 C     21  15  14     2.568433726587   123.95590962   359.16002033
 C     22  21  15     2.656973609977   124.79427271   181.26975189
 S     23  22  21     3.293483118388   123.64260620   358.91849630
 C     24  23  22     3.289654704493    93.95764277   178.72075018
 C     25  24  23     2.651738425422   109.47463105     0.27546101
 C     23  22  21     2.645484661339   126.88951910   178.19542156
 N     27  23  22     2.543703717314   125.44769917     1.73186885
 C     28  27  23     2.479189990757   117.51241052   179.56041653
 C     29  28  27     2.830341953293   117.77367247   180.95536236
 C     30  29  28     2.897136744697   112.79759393    10.22922240
 O     31  30  29     2.647782128728   113.15295170   296.07604441
 C     29  28  27     2.704264621918   121.24618393     1.52262232
 C     33  29  28     2.840496640495   121.58562307   177.32167146
 N     34  33  29     2.756723436380   110.09696548   300.96848901
 N     33  29  28     2.475360931759   122.22325625   358.57453101
 C     25  24  23     2.654242961850   123.67338498   180.93607291
 C     37  25  24     2.577232416870   124.09889801   355.01700475
 C     38  37  25     2.672677949543   126.93117863   178.03034206
 C     39  38  37     2.573093460125   126.12105972   350.55044944
 C     40  39  38     2.670772315027   123.38528134   181.32568434
 O     41  40  39     2.573512713850   119.43277161   174.92986431
 C     42  41  40     2.566434246255   108.69722775   180.82860961
 C     43  42  41     2.626047587881   108.83399848   359.55567515
 C     41  40  39     2.635829500518   131.68424280   355.65434680
 O     45  41  40     2.556458366017   127.32799699   359.27327657
 O     44  43  42     2.577659911496   129.50469793   180.18663773
 C     43  42  41     2.683291650268   121.81992245   178.27513948
 C     48  43  42     2.557132907003   125.03698789   358.77271433
 C     49  48  43     2.691168682546   122.77328776   181.40001787
 C     50  49  48     2.542197622668   122.45879275   178.81746362
 N     51  50  49     2.612818287950   126.05910081   180.98084349
 C     52  51  50     2.607668512100   126.06341439     4.41024628
 O     53  52  51     2.286368876140   126.09480015   356.92331594
 C     53  52  51     2.885472682546   108.13479723   175.27647054
 C     55  53  52     2.818906288890   102.69552712     3.17722145
 C     56  55  53     2.639398987011   108.80154450   356.94301966
 C     57  56  55     2.607603363181   120.92206992   181.29056526
 C     58  57  56     2.633541117353   118.80414552     0.24353685
 C     59  58  57     2.623150533195   119.87842048   359.67483951
 C     56  55  53     2.600020034818   130.74933537   178.64526804
 C     59  58  57     2.831908300066   119.24115571   179.11858322
 C     55  53  52     2.922290615576   108.29163157   243.82455042
 C     63  55  53     2.899150168941   108.83044248    45.26212509
 O     64  63  55     2.282884421328   127.35991264    59.27292089
 N     64  63  55     2.573691629030   107.13792922   240.50873811
 C     66  64  63     2.623836608783   112.44413008     0.14671785
 C     67  66  64     2.640235738294   109.10294558   358.98789195
 C     68  67  66     2.600878357678   119.81987031   180.48974422
 C     69  68  67     2.623703915911   118.61709080     0.24445931
 C     70  69  68     2.626083503589   121.65842908   359.70609795
 C     71  70  69     2.831991770892   120.35312389   181.39741724
 C     67  66  64     2.604174435432   129.04158246   179.69182275
 H      1   2   3     2.032936736592   120.73539588     0.00000000
 H      1   2   3     2.030393733871   121.71415045   179.99707876
 H      3   2   1     2.032773411791   120.66233858     0.04468525
 H      4   3   2     2.032630253540   124.33741421   180.04871283
 H      8   7   5     2.032041592625   122.20918794   358.79561841
 H      9   8   7     2.033443765862   124.51815706   180.52865646
 H     12  10   9     2.048659523142   115.59554274     4.85078453
 H     16  15  14     2.022853720718   125.46741601   178.50563005
 H     20  18  17     2.054014398490   110.56884146    49.16144692
 H     20  18  17     2.056952417879   109.53927435   289.42902409
 H     20  18  17     2.053703308676   109.21750248   170.30321407
 H     21  15  14     2.042578493670   115.97591474   179.67703064
 H     22  21  15     2.043447985172   119.52938543     0.58892711
 H     30  29  28     2.065159546119   108.08144204   248.29848244
 H     30  29  28     2.062948892543   109.30579156   132.02493354
 H     31  30  29     2.065946110913   109.51096360   177.82022838
 H     31  30  29     2.080022943415   108.95602137    59.21245789
 H     32  31  30     1.833265708793   105.81823383    58.59486107
 H     34  33  29     2.080721918761   107.35384983   176.57763092
 H     34  33  29     2.070024560281   109.55267096    59.16211655
 H     35  34  33     1.918098930787   109.79159004   297.84505675
 H     35  34  33     1.916177698941   110.05508742   179.46722124
 H     37  25  24     2.041783180144   114.61843988   176.02921488
 H     38  37  25     2.048005833176   117.01716432   357.46225198
 H     39  38  37     2.041231389182   116.39388970   172.46848518
 H     40  39  38     2.040739312596   121.26564640   359.40104474
 H     46  45  41     1.826641175226   107.59778729   180.67061275
 H     47  44  43     1.819661373266   109.32620510     0.70651795
 H     48  43  42     2.046576052665   115.87787696   179.68784182
 H     49  48  43     2.042567243950   118.89254135     0.80324650
 H     50  49  48     2.038534880040   117.52202656   359.35474181
 H     51  50  49     2.041964964414   120.19615906     0.36611616
 H     55  53  52     2.066137898605   110.62451562   124.66193551
 H     58  57  56     2.039103754670   122.02113078   179.82120227
 H     60  59  58     2.040503409796   119.36675251   179.96586730
 H     61  56  55     2.040640732560   120.82734897   358.35690048
 H     62  59  58     2.057614472907   110.64910615    51.44143307
 H     62  59  58     2.059049026109   109.99207646   292.41636870
 H     62  59  58     2.053377915543   111.05174976   172.38030456
 H     63  55  53     2.066349891641   108.68775795   165.44564144
 H     66  64  63     1.904362480788   123.09356262   176.27146498
 H     69  68  67     2.040879420866   121.03597426   180.19583115
 H     70  69  68     2.040823922993   119.27233227   180.02743977
 H     72  71  70     2.054699252352   110.95529613   330.64308076
 H     72  71  70     2.055081353316   110.96854625   209.30099704
 H     72  71  70     2.060573468239   109.78411621    89.96582423
 H     73  67  66     2.040424550261   121.05814387   358.98576538

---------------------
BASIS SET INFORMATION
---------------------
There are 5 groups of distinct atoms

 Group   1 Type C   : 7s4p1d contracted to 3s2p1d pattern {511/31/1}
 Group   2 Type S   : 10s7p1d contracted to 4s3p1d pattern {5311/511/1}
 Group   3 Type O   : 7s4p1d contracted to 3s2p1d pattern {511/31/1}
 Group   4 Type N   : 7s4p1d contracted to 3s2p1d pattern {511/31/1}
 Group   5 Type H   : 4s1p contracted to 2s1p pattern {31/1}

Atom   0C    basis set group =>   1
Atom   1C    basis set group =>   1
Atom   2C    basis set group =>   1
Atom   3C    basis set group =>   1
Atom   4C    basis set group =>   1
Atom   5S    basis set group =>   2
Atom   6C    basis set group =>   1
Atom   7C    basis set group =>   1
Atom   8C    basis set group =>   1
Atom   9C    basis set group =>   1
Atom  10S    basis set group =>   2
Atom  11C    basis set group =>   1
Atom  12C    basis set group =>   1
Atom  13O    basis set group =>   3
Atom  14C    basis set group =>   1
Atom  15C    basis set group =>   1
Atom  16C    basis set group =>   1
Atom  17C    basis set group =>   1
Atom  18O    basis set group =>   3
Atom  19C    basis set group =>   1
Atom  20C    basis set group =>   1
Atom  21C    basis set group =>   1
Atom  22C    basis set group =>   1
Atom  23S    basis set group =>   2
Atom  24C    basis set group =>   1
Atom  25C    basis set group =>   1
Atom  26C    basis set group =>   1
Atom  27N    basis set group =>   4
Atom  28C    basis set group =>   1
Atom  29C    basis set group =>   1
Atom  30C    basis set group =>   1
Atom  31O    basis set group =>   3
Atom  32C    basis set group =>   1
Atom  33C    basis set group =>   1
Atom  34N    basis set group =>   4
Atom  35N    basis set group =>   4
Atom  36C    basis set group =>   1
Atom  37C    basis set group =>   1
Atom  38C    basis set group =>   1
Atom  39C    basis set group =>   1
Atom  40C    basis set group =>   1
Atom  41O    basis set group =>   3
Atom  42C    basis set group =>   1
Atom  43C    basis set group =>   1
Atom  44C    basis set group =>   1
Atom  45O    basis set group =>   3
Atom  46O    basis set group =>   3
Atom  47C    basis set group =>   1
Atom  48C    basis set group =>   1
Atom  49C    basis set group =>   1
Atom  50C    basis set group =>   1
Atom  51N    basis set group =>   4
Atom  52C    basis set group =>   1
Atom  53O    basis set group =>   3
Atom  54C    basis set group =>   1
Atom  55C    basis set group =>   1
Atom  56C    basis set group =>   1
Atom  57C    basis set group =>   1
Atom  58C    basis set group =>   1
Atom  59C    basis set group =>   1
Atom  60C    basis set group =>   1
Atom  61C    basis set group =>   1
Atom  62C    basis set group =>   1
Atom  63C    basis set group =>   1
Atom  64O    basis set group =>   3
Atom  65N    basis set group =>   4
Atom  66C    basis set group =>   1
Atom  67C    basis set group =>   1
Atom  68C    basis set group =>   1
Atom  69C    basis set group =>   1
Atom  70C    basis set group =>   1
Atom  71C    basis set group =>   1
Atom  72C    basis set group =>   1
Atom  73H    basis set group =>   5
Atom  74H    basis set group =>   5
Atom  75H    basis set group =>   5
Atom  76H    basis set group =>   5
Atom  77H    basis set group =>   5
Atom  78H    basis set group =>   5
Atom  79H    basis set group =>   5
Atom  80H    basis set group =>   5
Atom  81H    basis set group =>   5
Atom  82H    basis set group =>   5
Atom  83H    basis set group =>   5
Atom  84H    basis set group =>   5
Atom  85H    basis set group =>   5
Atom  86H    basis set group =>   5
Atom  87H    basis set group =>   5
Atom  88H    basis set group =>   5
Atom  89H    basis set group =>   5
Atom  90H    basis set group =>   5
Atom  91H    basis set group =>   5
Atom  92H    basis set group =>   5
Atom  93H    basis set group =>   5
Atom  94H    basis set group =>   5
Atom  95H    basis set group =>   5
Atom  96H    basis set group =>   5
Atom  97H    basis set group =>   5
Atom  98H    basis set group =>   5
Atom  99H    basis set group =>   5
Atom 100H    basis set group =>   5
Atom 101H    basis set group =>   5
Atom 102H    basis set group =>   5
Atom 103H    basis set group =>   5
Atom 104H    basis set group =>   5
Atom 105H    basis set group =>   5
Atom 106H    basis set group =>   5
Atom 107H    basis set group =>   5
Atom 108H    basis set group =>   5
Atom 109H    basis set group =>   5
Atom 110H    basis set group =>   5
Atom 111H    basis set group =>   5
Atom 112H    basis set group =>   5
Atom 113H    basis set group =>   5
Atom 114H    basis set group =>   5
Atom 115H    basis set group =>   5
Atom 116H    basis set group =>   5
Atom 117H    basis set group =>   5
Atom 118H    basis set group =>   5
Atom 119H    basis set group =>   5
---------------------------------
AUXILIARY/J BASIS SET INFORMATION
---------------------------------
There are 5 groups of distinct atoms

 Group   1 Type C   : 12s5p4d2f1g contracted to 6s4p3d1f1g pattern {711111/2111/211/2/1}
 Group   2 Type S   : 14s5p5d2f1g contracted to 8s4p3d1f1g pattern {71111111/2111/311/2/1}
 Group   3 Type O   : 12s5p4d2f1g contracted to 6s4p3d1f1g pattern {711111/2111/211/2/1}
 Group   4 Type N   : 12s5p4d2f1g contracted to 6s4p3d1f1g pattern {711111/2111/211/2/1}
 Group   5 Type H   : 5s2p1d contracted to 3s1p1d pattern {311/2/1}

Atom   0C    basis set group =>   1
Atom   1C    basis set group =>   1
Atom   2C    basis set group =>   1
Atom   3C    basis set group =>   1
Atom   4C    basis set group =>   1
Atom   5S    basis set group =>   2
Atom   6C    basis set group =>   1
Atom   7C    basis set group =>   1
Atom   8C    basis set group =>   1
Atom   9C    basis set group =>   1
Atom  10S    basis set group =>   2
Atom  11C    basis set group =>   1
Atom  12C    basis set group =>   1
Atom  13O    basis set group =>   3
Atom  14C    basis set group =>   1
Atom  15C    basis set group =>   1
Atom  16C    basis set group =>   1
Atom  17C    basis set group =>   1
Atom  18O    basis set group =>   3
Atom  19C    basis set group =>   1
Atom  20C    basis set group =>   1
Atom  21C    basis set group =>   1
Atom  22C    basis set group =>   1
Atom  23S    basis set group =>   2
Atom  24C    basis set group =>   1
Atom  25C    basis set group =>   1
Atom  26C    basis set group =>   1
Atom  27N    basis set group =>   4
Atom  28C    basis set group =>   1
Atom  29C    basis set group =>   1
Atom  30C    basis set group =>   1
Atom  31O    basis set group =>   3
Atom  32C    basis set group =>   1
Atom  33C    basis set group =>   1
Atom  34N    basis set group =>   4
Atom  35N    basis set group =>   4
Atom  36C    basis set group =>   1
Atom  37C    basis set group =>   1
Atom  38C    basis set group =>   1
Atom  39C    basis set group =>   1
Atom  40C    basis set group =>   1
Atom  41O    basis set group =>   3
Atom  42C    basis set group =>   1
Atom  43C    basis set group =>   1
Atom  44C    basis set group =>   1
Atom  45O    basis set group =>   3
Atom  46O    basis set group =>   3
Atom  47C    basis set group =>   1
Atom  48C    basis set group =>   1
Atom  49C    basis set group =>   1
Atom  50C    basis set group =>   1
Atom  51N    basis set group =>   4
Atom  52C    basis set group =>   1
Atom  53O    basis set group =>   3
Atom  54C    basis set group =>   1
Atom  55C    basis set group =>   1
Atom  56C    basis set group =>   1
Atom  57C    basis set group =>   1
Atom  58C    basis set group =>   1
Atom  59C    basis set group =>   1
Atom  60C    basis set group =>   1
Atom  61C    basis set group =>   1
Atom  62C    basis set group =>   1
Atom  63C    basis set group =>   1
Atom  64O    basis set group =>   3
Atom  65N    basis set group =>   4
Atom  66C    basis set group =>   1
Atom  67C    basis set group =>   1
Atom  68C    basis set group =>   1
Atom  69C    basis set group =>   1
Atom  70C    basis set group =>   1
Atom  71C    basis set group =>   1
Atom  72C    basis set group =>   1
Atom  73H    basis set group =>   5
Atom  74H    basis set group =>   5
Atom  75H    basis set group =>   5
Atom  76H    basis set group =>   5
Atom  77H    basis set group =>   5
Atom  78H    basis set group =>   5
Atom  79H    basis set group =>   5
Atom  80H    basis set group =>   5
Atom  81H    basis set group =>   5
Atom  82H    basis set group =>   5
Atom  83H    basis set group =>   5
Atom  84H    basis set group =>   5
Atom  85H    basis set group =>   5
Atom  86H    basis set group =>   5
Atom  87H    basis set group =>   5
Atom  88H    basis set group =>   5
Atom  89H    basis set group =>   5
Atom  90H    basis set group =>   5
Atom  91H    basis set group =>   5
Atom  92H    basis set group =>   5
Atom  93H    basis set group =>   5
Atom  94H    basis set group =>   5
Atom  95H    basis set group =>   5
Atom  96H    basis set group =>   5
Atom  97H    basis set group =>   5
Atom  98H    basis set group =>   5
Atom  99H    basis set group =>   5
Atom 100H    basis set group =>   5
Atom 101H    basis set group =>   5
Atom 102H    basis set group =>   5
Atom 103H    basis set group =>   5
Atom 104H    basis set group =>   5
Atom 105H    basis set group =>   5
Atom 106H    basis set group =>   5
Atom 107H    basis set group =>   5
Atom 108H    basis set group =>   5
Atom 109H    basis set group =>   5
Atom 110H    basis set group =>   5
Atom 111H    basis set group =>   5
Atom 112H    basis set group =>   5
Atom 113H    basis set group =>   5
Atom 114H    basis set group =>   5
Atom 115H    basis set group =>   5
Atom 116H    basis set group =>   5
Atom 117H    basis set group =>   5
Atom 118H    basis set group =>   5
Atom 119H    basis set group =>   5


           ************************************************************
           *        Program running with 6 parallel MPI-processes     *
           *              working on a common directory               *
           ************************************************************
------------------------------------------------------------------------------
                           ORCA GTO INTEGRAL CALCULATION
                           -- RI-GTO INTEGRALS CHOSEN --
------------------------------------------------------------------------------

                         BASIS SET STATISTICS AND STARTUP INFO

Gaussian basis set:
 # of primitive gaussian shells          ... 1129
 # of primitive gaussian functions       ... 2117
 # of contracted shells                  ...  585
 # of contracted basis functions         ... 1269
 Highest angular momentum                ...    2
 Maximum contraction depth               ...    5
Auxiliary gaussian basis set:
 # of primitive gaussian shells          ... 2137
 # of primitive gaussian functions       ... 5883
 # of contracted shells                  ... 1336
 # of contracted aux-basis functions     ... 4100
 Highest angular momentum                ...    4
 Maximum contraction depth               ...    7
Ratio of auxiliary to basis functions    ...  3.23
Integral package used                  ... LIBINT
 One Electron integrals                  ... done
 Ordering auxiliary basis shells         ... done
 Integral threshhold             Thresh  ...  2.500e-11
 Primitive cut-off               TCut    ...  2.500e-12
 Pre-screening matrix                    ... done
 Shell pair data                         ... 
 Ordering of the shell pairs             ... done (   0.009 sec) 44727 of 171405 pairs
 Determination of significant pairs      ... done (   0.000 sec)
 Creation of shell pair data             ... done (   0.006 sec)
 Storage of shell pair data              ... done (   0.028 sec)
 Shell pair data done in (   0.044 sec)
 Computing two index integrals           ... done
 Cholesky decomposition of the V-matrix  ... done


Timings:
 Total evaluation time                   ...   2.494 sec (  0.042 min)
 One electron matrix time                ...   0.644 sec (  0.011 min) = 25.8%
 Schwartz matrix evaluation time         ...   0.723 sec (  0.012 min) = 29.0%
 Two index repulsion integral time       ...   0.411 sec (  0.007 min) = 16.5%
 Cholesky decomposition of V             ...   0.655 sec (  0.011 min) = 26.3%
 Three index repulsion integral time     ...   0.000 sec (  0.000 min) =  0.0%



           ************************************************************
           *        Program running with 6 parallel MPI-processes     *
           *              working on a common directory               *
           ************************************************************
-------------------------------------------------------------------------------
                                 ORCA SCF
-------------------------------------------------------------------------------

------------
SCF SETTINGS
------------
Hamiltonian:
 Density Functional     Method          .... DFT(GTOs)
 Exchange Functional    Exchange        .... WB88
 Correlation Functional Correlation     .... LYP
 LDA part of GGA corr.  LDAOpt          .... VWN-5
 Gradients option       PostSCFGGA      .... off
 Hybrid DFT is turned on
   Fraction HF Exchange ScalHFX         ....  0.190000
   Scaling of DF-GGA-X  ScalDFX         ....  0.350000
   Scaling of DF-GGA-C  ScalDFC         ....  0.810000
   Scaling of DF-LDA-C  ScalLDAC        ....  1.000000
   Perturbative correction              ....  0.000000
   Density functional embedding theory  .... OFF
 Long-range corrected/Screened/Range-Separated Hybrid DFT is turned on
   Amount of maximum screened exact exchange              ....  0.460000
   Range separation parameter mu (erf(mu*r12)/r12)        ....  0.330000
 RI-approximation to the Coulomb term is turned on
   Number of auxiliary basis functions  .... 4100
   RIJ-COSX (HFX calculated with COS-X)).... on


General Settings:
 Integral files         IntName         .... xtbopt
 Hartree-Fock type      HFTyp           .... RHF
 Total Charge           Charge          ....    0
 Multiplicity           Mult            ....    1
 Number of Electrons    NEL             ....  536
 Basis Dimension        Dim             .... 1269
 Nuclear Repulsion      ENuc            ....   9975.4231885252 Eh

Convergence Acceleration:
 DIIS                   CNVDIIS         .... on
   Start iteration      DIISMaxIt       ....    12
   Startup error        DIISStart       ....  0.200000
   # of expansion vecs  DIISMaxEq       ....     5
   Bias factor          DIISBfac        ....   1.050
   Max. coefficient     DIISMaxC        ....  10.000
 Newton-Raphson         CNVNR           .... off
 SOSCF                  CNVSOSCF        .... on
   Start iteration      SOSCFMaxIt      ....   150
   Startup grad/error   SOSCFStart      ....  0.003300
 Level Shifting         CNVShift        .... on
   Level shift para.    LevelShift      ....    0.2500
   Turn off err/grad.   ShiftErr        ....    0.0010
 Zerner damping         CNVZerner       .... off
 Static damping         CNVDamp         .... on
   Fraction old density DampFac         ....    0.7000
   Max. Damping (<1)    DampMax         ....    0.9800
   Min. Damping (>=0)   DampMin         ....    0.0000
   Turn off err/grad.   DampErr         ....    0.1000
 Fernandez-Rico         CNVRico         .... off

SCF Procedure:
 Maximum # iterations   MaxIter         ....   125
 SCF integral mode      SCFMode         .... Direct
   Integral package                     .... LIBINT
 Reset frequency        DirectResetFreq ....    20
 Integral Threshold     Thresh          ....  2.500e-11 Eh
 Primitive CutOff       TCut            ....  2.500e-12 Eh

Convergence Tolerance:
 Convergence Check Mode ConvCheckMode   .... Total+1el-Energy
 Convergence forced     ConvForced      .... 1
 Energy Change          TolE            ....  1.000e-08 Eh
 1-El. energy change                    ....  1.000e-05 Eh
 Orbital Gradient       TolG            ....  1.000e-05
 Orbital Rotation angle TolX            ....  1.000e-05
 DIIS Error             TolErr          ....  5.000e-07


Diagonalization of the overlap matrix:
Smallest eigenvalue                        ... 2.068e-04
Time for diagonalization                   ...    0.246 sec
Threshold for overlap eigenvalues          ... 1.000e-08
Number of eigenvalues below threshold      ... 0
Time for construction of square roots      ...    0.192 sec
Total time needed                          ...    0.441 sec

-------------------
DFT GRID GENERATION
-------------------

General Integration Accuracy     IntAcc      ...  4.670
Radial Grid Type                 RadialGrid  ... Gauss-Chebyshev
Angular Grid (max. acc.)         AngularGrid ... Lebedev-302
Angular grid pruning method      GridPruning ... 3 (G Style)
Weight generation scheme         WeightScheme... Becke
Basis function cutoff            BFCut       ...    1.0000e-11
Integration weight cutoff        WCut        ...    1.0000e-14
Grids for H and He will be reduced by one unit

# of grid points (after initial pruning)     ... 614896 (   0.0 sec)
# of grid points (after weights+screening)   ... 531133 (   8.9 sec)
nearest neighbour list constructed           ...    0.0 sec
Grid point re-assignment to atoms done       ...    0.1 sec
Grid point division into batches done        ...    1.7 sec
Reduced shell lists constructed in    2.6 sec

Total number of grid points                  ...   531133
Total number of batches                      ...     8361
Average number of points per batch           ...       63
Average number of grid points per atom       ...     4426
Average number of shells per batch           ...    85.84 (14.67%)
Average number of basis functions per batch  ...   179.29 (14.13%)
Average number of large shells per batch     ...    55.64 (64.82%)
Average number of large basis fcns per batch ...   118.73 (66.22%)
Maximum spatial batch extension              ...  14.02, 15.98, 19.77 au
Average spatial batch extension              ...   0.28,  0.29,  0.31 au

Time for grid setup =   11.956 sec

------------------------------
INITIAL GUESS: MODEL POTENTIAL
------------------------------
Loading Hartree-Fock densities                     ... done
Calculating cut-offs                               ... done
Setting up the integral package                    ... done
Initializing the effective Hamiltonian             ... done
Starting the Coulomb interaction                   ... done (   1.4 sec)
Reading the grid                                   ... done
Mapping shells                                     ... done
Starting the XC term evaluation                    ... done (   1.5 sec)
  promolecular density results
     # of electrons  =    535.974837318
     EX              =   -478.537025471
     EC              =    -18.403319913
     EX+EC           =   -496.940345384
Transforming the Hamiltonian                       ... done (   0.1 sec)
Diagonalizing the Hamiltonian                      ... done (   0.2 sec)
Back transforming the eigenvectors                 ... done (   0.1 sec)
Now organizing SCF variables                       ... done
                      ------------------
                      INITIAL GUESS DONE (  15.4 sec)
                      ------------------
--------------------
COSX GRID GENERATION
--------------------

General Integration Accuracy     IntAcc      ...  3.340
Radial Grid Type                 RadialGrid  ... Gauss-Chebyshev
Angular Grid (max. acc.)         AngularGrid ... Lebedev-50
Angular grid pruning method      GridPruning ... 3 (G Style)
Weight generation scheme         WeightScheme... Becke
Basis function cutoff            BFCut       ...    1.0000e-11
Integration weight cutoff        WCut        ...    1.0000e-14
Grids for H and He will be reduced by one unit

# of grid points (after initial pruning)     ...  57688 (   0.0 sec)
# of grid points (after weights+screening)   ...  51838 (   0.8 sec)
nearest neighbour list constructed           ...    0.0 sec
Grid point re-assignment to atoms done       ...    0.0 sec
Grid point division into batches done        ...    0.0 sec
Reduced shell lists constructed in    0.1 sec

Total number of grid points                  ...    51838
Total number of batches                      ...      872
Average number of points per batch           ...       59
Average number of grid points per atom       ...      432
Average number of shells per batch           ...    99.55 (17.02%)
Average number of basis functions per batch  ...   208.84 (16.46%)
Average number of large shells per batch     ...    64.65 (64.94%)
Average number of large basis fcns per batch ...   139.74 (66.91%)
Maximum spatial batch extension              ...  20.68, 20.68, 21.95 au
Average spatial batch extension              ...   0.69,  0.73,  0.76 au

Overlap Fitting                  UseSFitting ... on
Constructing numerical overlap ... done (      0.1 sec)
Inverting numerical overlap    ... done (      0.1 sec)
Obtaining analytic overlap     ... done (      0.0 sec)
Final contraction and storage  ... done (      0.1 sec)


General Integration Accuracy     IntAcc      ...  3.670
Radial Grid Type                 RadialGrid  ... Gauss-Chebyshev
Angular Grid (max. acc.)         AngularGrid ... Lebedev-50
Angular grid pruning method      GridPruning ... 3 (G Style)
Weight generation scheme         WeightScheme... Becke
Basis function cutoff            BFCut       ...    1.0000e-11
Integration weight cutoff        WCut        ...    1.0000e-14
Grids for H and He will be reduced by one unit

# of grid points (after initial pruning)     ...  72714 (   0.0 sec)
# of grid points (after weights+screening)   ...  65071 (   1.0 sec)
nearest neighbour list constructed           ...    0.0 sec
Grid point re-assignment to atoms done       ...    0.0 sec
Grid point division into batches done        ...    0.0 sec
Reduced shell lists constructed in    0.2 sec

Total number of grid points                  ...    65071
Total number of batches                      ...     1072
Average number of points per batch           ...       60
Average number of grid points per atom       ...      542
Average number of shells per batch           ...    98.04 (16.76%)
Average number of basis functions per batch  ...   205.44 (16.19%)
Average number of large shells per batch     ...    63.33 (64.59%)
Average number of large basis fcns per batch ...   136.56 (66.47%)
Maximum spatial batch extension              ...  19.47, 21.64, 21.03 au
Average spatial batch extension              ...   0.64,  0.66,  0.73 au

Overlap Fitting                  UseSFitting ... on
Constructing numerical overlap ... done (      0.1 sec)
Inverting numerical overlap    ... done (      0.1 sec)
Obtaining analytic overlap     ... done (      0.0 sec)
Final contraction and storage  ... done (      0.1 sec)


General Integration Accuracy     IntAcc      ...  4.010
Radial Grid Type                 RadialGrid  ... Gauss-Chebyshev
Angular Grid (max. acc.)         AngularGrid ... Lebedev-110
Angular grid pruning method      GridPruning ... 3 (G Style)
Weight generation scheme         WeightScheme... Becke
Basis function cutoff            BFCut       ...    1.0000e-11
Integration weight cutoff        WCut        ...    1.0000e-14
Grids for H and He will be reduced by one unit

# of grid points (after initial pruning)     ... 138684 (   0.0 sec)
# of grid points (after weights+screening)   ... 123110 (   2.1 sec)
nearest neighbour list constructed           ...    0.0 sec
Grid point re-assignment to atoms done       ...    0.0 sec
Grid point division into batches done        ...    0.1 sec
Reduced shell lists constructed in    0.3 sec

Total number of grid points                  ...   123110
Total number of batches                      ...     1977
Average number of points per batch           ...       62
Average number of grid points per atom       ...     1026
Average number of shells per batch           ...    94.38 (16.13%)
Average number of basis functions per batch  ...   197.53 (15.57%)
Average number of large shells per batch     ...    61.51 (65.17%)
Average number of large basis fcns per batch ...   132.41 (67.03%)
Maximum spatial batch extension              ...  21.07, 21.07, 21.07 au
Average spatial batch extension              ...   0.50,  0.52,  0.55 au

Overlap Fitting                  UseSFitting ... on
Constructing numerical overlap ... done (      0.2 sec)
Inverting numerical overlap    ... done (      0.1 sec)
Obtaining analytic overlap     ... done (      0.0 sec)
Final contraction and storage  ... done (      0.1 sec)

Time for X-Grid setup             =    5.658 sec
--------------
SCF ITERATIONS
--------------
ITER       Energy         Delta-E        Max-DP      RMS-DP      [F,P]     Damp
               ***  Starting incremental Fock matrix formation  ***
  0  -4264.7721196497   0.000000000000 0.15277953  0.00088264  0.2443200 0.7000
  1  -4265.3923457546  -0.620226104891 0.10334584  0.00062986  0.1138161 0.7000
                               ***Turning on DIIS***
  2  -4265.6811607264  -0.288814971722 0.09826594  0.00114408  0.0450537 0.0000
  3  -4266.1408275005  -0.459666774112 0.09789583  0.00045667  0.0578102 0.0000
  4  -4266.2251998175  -0.084372317080 0.01657893  0.00011888  0.0122824 0.0000
  5  -4266.2294213168  -0.004221499283 0.01444491  0.00005923  0.0100019 0.0000
  6  -4266.2306983866  -0.001277069732 0.00317360  0.00003300  0.0016292 0.0000
                      *** Initiating the SOSCF procedure ***
                           *** Shutting down DIIS ***
                      *** Re-Reading the Fockian *** 
                      *** Removing any level shift *** 
ITER      Energy       Delta-E        Grad      Rot      Max-DP    RMS-DP
  7  -4266.23123880  -0.0005404093  0.003031  0.003031  0.001872  0.000024
               *** Restarting incremental Fock matrix formation ***
  8  -4266.23147047  -0.0002316752  0.002143  0.015435  0.001629  0.000033
  9  -4266.23174945  -0.0002789826  0.000735  0.014393  0.002178  0.000039
 10  -4266.23180553  -0.0000560735  0.000491  0.002310  0.001910  0.000011
 11  -4266.23184014  -0.0000346135  0.000124  0.001524  0.000961  0.000006
 12  -4266.23184201  -0.0000018692  0.000121  0.000356  0.000458  0.000003
 13  -4266.23184395  -0.0000019412  0.000034  0.000262  0.000150  0.000001
 14  -4266.23184397  -0.0000000196  0.000023  0.000125  0.000113  0.000001
 15  -4266.23184413  -0.0000001555  0.000009  0.000079  0.000031  0.000000
 16  -4266.23184417  -0.0000000440  0.000004  0.000027  0.000024  0.000000
                  ***Gradient check signals convergence***
              ***Rediagonalizing the Fockian in SOSCF/NRSCF***

               *****************************************************
               *                     SUCCESS                       *
               *           SCF CONVERGED AFTER  17 CYCLES          *
               *****************************************************

Setting up the final grid:

General Integration Accuracy     IntAcc      ...  5.010
Radial Grid Type                 RadialGrid  ... Gauss-Chebyshev
Angular Grid (max. acc.)         AngularGrid ... Lebedev-434
Angular grid pruning method      GridPruning ... 3 (G Style)
Weight generation scheme         WeightScheme... Becke
Basis function cutoff            BFCut       ...    1.0000e-11
Integration weight cutoff        WCut        ...    1.0000e-14
Grids for H and He will be reduced by one unit

# of grid points (after initial pruning)     ... 1099216 (   0.1 sec)
# of grid points (after weights+screening)   ... 946787 (  15.2 sec)
nearest neighbour list constructed           ...    0.0 sec
Grid point re-assignment to atoms done       ...    0.1 sec
Grid point division into batches done        ...    5.7 sec
Reduced shell lists constructed in    7.2 sec

Total number of grid points                  ...   946787
Total number of batches                      ...    14855
Average number of points per batch           ...       63
Average number of grid points per atom       ...     7890
Average number of shells per batch           ...    83.57 (14.29%)
Average number of basis functions per batch  ...   174.16 (13.72%)
Average number of large shells per batch     ...    53.80 (64.38%)
Average number of large basis fcns per batch ...   114.50 (65.75%)
Maximum spatial batch extension              ...  15.27, 19.95, 20.37 au
Average spatial batch extension              ...   0.23,  0.23,  0.24 au

Final grid set up in   23.2 sec
Final integration                            ... done (   3.2 sec)
Change in XC energy                          ...    -0.000077255
Integrated number of electrons               ...   535.999907070
Previous integrated no of electrons          ...   535.998991404
Old exchange energy                            =   -134.418494085 Eh
New exchange energy                            =   -134.415928064 Eh
Exchange energy change after final integration =      0.002566021 Eh
Total energy after final integration           =  -4266.229355343 Eh
Final COS-X integration done in                =    62.955 sec

----------------
TOTAL SCF ENERGY
----------------

Total Energy       :        -4266.22935534 Eh         -116090.00266 eV

Components:
Nuclear Repulsion  :         9975.42318853 Eh          271445.06496 eV
Electronic Energy  :       -14241.65254387 Eh         -387535.06762 eV
One Electron Energy:       -25696.75607264 Eh         -699244.28163 eV
Two Electron Energy:        11455.10352877 Eh          311709.21401 eV

Virial components:
Potential Energy   :        -8500.95543823 Eh         -231322.75770 eV
Kinetic Energy     :         4234.72608289 Eh          115232.75504 eV
Virial Ratio       :            2.00743927


DFT components:
N(Alpha)           :      267.999953535117 electrons
N(Beta)            :      267.999953535117 electrons
N(Total)           :      535.999907070234 electrons
E(XC)              :     -371.546682469316 Eh       
DFET-embed. en.    :        0.000000000000 Eh       

---------------
SCF CONVERGENCE
---------------

  Last Energy change         ...    6.1311e-08  Tolerance :   1.0000e-08
  Last MAX-Density change    ...    7.1054e-15  Tolerance :   1.0000e-07
  Last RMS-Density change    ...    3.1888e-17  Tolerance :   5.0000e-09
  Last Orbital Gradient      ...    1.5793e-06  Tolerance :   1.0000e-05
  Last Orbital Rotation      ...    1.4498e-05  Tolerance :   1.0000e-05

             **** THE GBW FILE WAS UPDATED (xtbopt.gbw) ****
             **** DENSITY FILE WAS UPDATED (xtbopt.scfp) ****
             **** ENERGY FILE WAS UPDATED (xtbopt.en.tmp) ****
             **** THE GBW FILE WAS UPDATED (xtbopt.gbw) ****
             **** DENSITY FILE WAS UPDATED (xtbopt.scfp) ****
----------------
ORBITAL ENERGIES
----------------

  NO   OCC          E(Eh)            E(eV) 
   0   2.0000     -88.956498     -2420.6294 
   1   2.0000     -88.930580     -2419.9241 
   2   2.0000     -88.929881     -2419.9051 
   3   2.0000     -19.275902      -524.5239 
   4   2.0000     -19.274578      -524.4879 
   5   2.0000     -19.260139      -524.0950 
   6   2.0000     -19.252509      -523.8874 
   7   2.0000     -19.197549      -522.3919 
   8   2.0000     -19.184509      -522.0370 
   9   2.0000     -19.181820      -521.9639 
  10   2.0000     -19.164458      -521.4914 
  11   2.0000     -14.464347      -393.5949 
  12   2.0000     -14.444604      -393.0577 
  13   2.0000     -14.414794      -392.2465 
  14   2.0000     -14.414668      -392.2431 
  15   2.0000     -14.388145      -391.5213 
  16   2.0000     -10.377431      -282.3843 
  17   2.0000     -10.371637      -282.2266 
  18   2.0000     -10.334699      -281.2215 
  19   2.0000     -10.327893      -281.0363 
  20   2.0000     -10.327394      -281.0227 
  21   2.0000     -10.325969      -280.9839 
  22   2.0000     -10.320578      -280.8372 
  23   2.0000     -10.318241      -280.7736 
  24   2.0000     -10.317268      -280.7471 
  25   2.0000     -10.314407      -280.6693 
  26   2.0000     -10.309744      -280.5424 
  27   2.0000     -10.309614      -280.5389 
  28   2.0000     -10.307106      -280.4706 
  29   2.0000     -10.307075      -280.4698 
  30   2.0000     -10.303046      -280.3601 
  31   2.0000     -10.299590      -280.2661 
  32   2.0000     -10.299579      -280.2658 
  33   2.0000     -10.297390      -280.2062 
  34   2.0000     -10.297076      -280.1977 
  35   2.0000     -10.296996      -280.1955 
  36   2.0000     -10.294098      -280.1166 
  37   2.0000     -10.293851      -280.1099 
  38   2.0000     -10.293176      -280.0916 
  39   2.0000     -10.293040      -280.0879 
  40   2.0000     -10.291244      -280.0390 
  41   2.0000     -10.283435      -279.8265 
  42   2.0000     -10.282378      -279.7977 
  43   2.0000     -10.278539      -279.6933 
  44   2.0000     -10.276111      -279.6272 
  45   2.0000     -10.274139      -279.5735 
  46   2.0000     -10.273702      -279.5617 
  47   2.0000     -10.273026      -279.5432 
  48   2.0000     -10.271395      -279.4989 
  49   2.0000     -10.270712      -279.4803 
  50   2.0000     -10.270259      -279.4680 
  51   2.0000     -10.270123      -279.4642 
  52   2.0000     -10.269983      -279.4604 
  53   2.0000     -10.268913      -279.4313 
  54   2.0000     -10.268697      -279.4254 
  55   2.0000     -10.268177      -279.4113 
  56   2.0000     -10.266643      -279.3696 
  57   2.0000     -10.266269      -279.3594 
  58   2.0000     -10.265593      -279.3410 
  59   2.0000     -10.265534      -279.3394 
  60   2.0000     -10.265464      -279.3375 
  61   2.0000     -10.264203      -279.3032 
  62   2.0000     -10.263607      -279.2870 
  63   2.0000     -10.263028      -279.2712 
  64   2.0000     -10.260672      -279.2071 
  65   2.0000     -10.260357      -279.1985 
  66   2.0000     -10.260265      -279.1960 
  67   2.0000     -10.259407      -279.1727 
  68   2.0000     -10.258960      -279.1605 
  69   2.0000     -10.258436      -279.1462 
  70   2.0000     -10.256029      -279.0807 
  71   2.0000     -10.251403      -278.9548 
  72   2.0000     -10.249359      -278.8992 
  73   2.0000      -8.051247      -219.0856 
  74   2.0000      -8.027268      -218.4331 
  75   2.0000      -8.025231      -218.3776 
  76   2.0000      -6.020172      -163.8172 
  77   2.0000      -6.016390      -163.7143 
  78   2.0000      -6.013918      -163.6470 
  79   2.0000      -5.997092      -163.1892 
  80   2.0000      -5.994923      -163.1301 
  81   2.0000      -5.993148      -163.0819 
  82   2.0000      -5.990691      -163.0150 
  83   2.0000      -5.987812      -162.9366 
  84   2.0000      -5.986365      -162.8973 
  85   2.0000      -1.195250       -32.5244 
  86   2.0000      -1.193434       -32.4750 
  87   2.0000      -1.153076       -31.3768 
  88   2.0000      -1.140201       -31.0264 
  89   2.0000      -1.136425       -30.9237 
  90   2.0000      -1.124972       -30.6120 
  91   2.0000      -1.098510       -29.8920 
  92   2.0000      -1.073206       -29.2034 
  93   2.0000      -1.064082       -28.9552 
  94   2.0000      -1.057286       -28.7702 
  95   2.0000      -1.045084       -28.4382 
  96   2.0000      -0.996287       -27.1103 
  97   2.0000      -0.981478       -26.7074 
  98   2.0000      -0.974999       -26.5311 
  99   2.0000      -0.959771       -26.1167 
 100   2.0000      -0.958695       -26.0874 
 101   2.0000      -0.952256       -25.9122 
 102   2.0000      -0.938413       -25.5355 
 103   2.0000      -0.919661       -25.0253 
 104   2.0000      -0.910704       -24.7815 
 105   2.0000      -0.904260       -24.6062 
 106   2.0000      -0.896708       -24.4007 
[...]
   1.947   1.906   1.465   4.335   1.857   2.133   1.769   2.225   2.232   2.348
   2.424   2.886   1.900   1.529   4.499   1.977   1.768   2.169   2.403   2.345
   2.213   2.866   2.239   0.519   0.572   0.447   0.426   0.422   0.482   0.552
   0.478   0.649   0.633   0.654   0.521   0.492   0.585   0.643   0.644   0.605
   0.419   0.680   0.549   0.394   0.320   0.519   0.513   0.558   0.529   0.168
   0.178   0.501   0.498   0.531   0.474   0.501   0.533   0.508   0.597   0.664
   0.662   0.627   0.510   0.219   0.583   0.505   0.627   0.664   0.654   0.544

Number of electrons in sTDA:  198.000

ax(DF)   :  0.3800
s^k      :  2.0000
beta  (J):  1.8600
alpha (K):  0.9000

hardness table read
setting up gammas ...




































computing q(ij,n)
memory needed for q data:            12.6 MB 
memory available for q data:       2478.1 MB 

CSF included by energy:           30 
CSF considered in PT2:          9078 

ordered frontier orbitals
           eV         # centers 
  88      -8.374       5.8
  89      -8.315      14.9
  90      -8.198       5.5
  91      -8.018      21.6
  92      -8.006       8.0
  93      -7.741      28.9
  94      -7.424       7.3
  95      -7.246      31.1
  96      -6.543      31.4
  97      -5.847      26.3
  98      -5.284      32.2

  99      -2.021      25.3
 100      -1.517      22.7
 101      -0.692      20.3
 102       0.002      17.4
 103       0.200      36.6
 104       0.458      21.3
 105       0.536      28.8
 106       0.717      15.2
 107       1.061      13.7
 108       1.108      10.8
 109       1.227      13.4

           eV        nm       excitation i->a                     eV 
   0      1.84     675.0    98 ->  99      gap,J,K:    3.263     1.962     0.268
   1      2.56     483.9    98 -> 100      gap,J,K:    3.767     1.776     0.286
   2      2.57     483.2    97 ->  99      gap,J,K:    3.826     1.716     0.228
   3      3.19     388.3    97 -> 100      gap,J,K:    4.330     1.786     0.324
   4      3.23     384.3    98 -> 101      gap,J,K:    4.592     1.714     0.174
   5      3.29     376.7    96 ->  99      gap,J,K:    4.522     1.756     0.262
   6      3.69     336.0    98 -> 102      gap,J,K:    5.286     1.923     0.163
   7      3.87     320.5    96 -> 100      gap,J,K:    5.026     1.537     0.190
   8      3.92     316.5    95 ->  99      gap,J,K:    5.225     1.624     0.158
   9      3.95     314.2    97 -> 101      gap,J,K:    5.155     1.585     0.188
  10      4.21     294.3    90 ->  99      gap,J,K:    6.177     1.975     0.006
  11      4.22     293.5    98 -> 103      gap,J,K:    5.483     1.590     0.166
  12      4.37     283.4    98 -> 104      gap,J,K:    5.741     1.683     0.158
  13      4.38     283.0    85 ->  99      gap,J,K:    6.507     2.145     0.009
  14      4.44     279.5    97 -> 102      gap,J,K:    5.849     1.628     0.107
  15      4.46     278.2    96 -> 101      gap,J,K:    5.851     1.825     0.215
  16      4.46     277.9    92 ->  99      gap,J,K:    5.985     1.641     0.058
  17      4.49     276.0    93 ->  99      gap,J,K:    5.721     1.554     0.162
  18      4.55     272.5    94 ->  99      gap,J,K:    5.403     0.855     0.001
  19      4.56     272.0    91 ->  99      gap,J,K:    5.997     1.638     0.100
  20      4.57     271.5    92 -> 100      gap,J,K:    6.489     2.134     0.106
  21      4.57     271.4    95 -> 100      gap,J,K:    5.729     1.438     0.138
  22      4.69     264.5    88 ->  99      gap,J,K:    6.353     2.301     0.318
  23      4.69     264.5    84 ->  99      gap,J,K:    6.582     1.942     0.024
  24      4.73     261.8    98 -> 105      gap,J,K:    5.820     1.236     0.076

average / max PT2 energy lowering (eV):       0.041       0.119

CSF included by PT:                   204 
total number of CSF included:         234 
 
sTD-DFT procedure...
setting up A+B and A-B matrices...  done
estimated time (min):    0.001
calculating (A-B)^0.5 ... done
calculating (A+B)*(A-B)^0.5 ... done
calculating (A-B)^0.5 *(A+B)*(A-B)^0.5 ... done
diagonalizing ...using LAPACKE_ssyevr ...done

   33 roots found, lowest/highest eigenvalue :     1.568     4.932

excitation energies, transition moments and amplitudes

molecular weight: 1026.210
state   eV        nm        fL         fV        Rl        RV
   0   1.568     790.5   2.072737   3.118032  16.398527  151.003954     0.93 (  98->  99)    0.04 (  97-> 100)    0.01 (  98-> 100)
   1   2.212     560.5   0.241580   0.294957  -265.397776  -329.603740     0.62 (  98-> 100)    0.31 (  97->  99)    0.02 (  97-> 100)
   2   2.349     527.8   0.059990   0.069102  -56.656163  -64.195808     0.60 (  97->  99)    0.27 (  98-> 100)    0.04 (  97-> 100)
   3   2.845     435.8   0.586023   0.577562  -115.675187  -150.136116     0.71 (  98-> 101)    0.09 (  97-> 101)    0.09 (  98-> 102)
   4   2.893     428.6   0.159755   0.180338  17.785930  66.859042     0.43 (  96->  99)    0.40 (  97-> 100)    0.03 (  98-> 101)
   5   3.032     409.0   0.047594   0.070283  111.883985  138.913071     0.36 (  96->  99)    0.36 (  97-> 100)    0.11 (  96-> 100)
   6   3.468     357.6   0.049356   0.052416  -305.114310  -318.198823     0.43 (  98-> 102)    0.18 (  95->  99)    0.08 (  96-> 100)
   7   3.566     347.6   0.038415   0.041697  -58.177747  -68.982454     0.23 (  98-> 102)    0.14 (  95->  99)    0.09 (  96-> 100)
   8   3.571     347.2   0.009007   0.009675   0.298605  -1.603699     0.32 (  90->  99)    0.30 (  85->  99)    0.06 (  85-> 100)
   9   3.634     341.2   0.007109   0.005671  -19.441333  -16.865248     0.26 (  92-> 100)    0.15 (  95->  99)    0.10 (  92->  99)
  10   3.689     336.1   0.022722   0.020601  -12.100668  -9.399473     0.18 (  96-> 100)    0.14 (  92->  99)    0.11 (  95-> 100)
  11   3.783     327.7   0.398159   0.386059  370.934151  372.030475     0.49 (  97-> 101)    0.15 (  98-> 103)    0.14 (  96-> 101)
  12   3.892     318.6   0.299279   0.285276  -6.789321  -8.147812     0.34 (  98-> 104)    0.22 (  96-> 100)    0.08 (  97-> 101)
  13   3.971     312.2   0.163818   0.147764  223.697589  185.950251     0.33 (  98-> 103)    0.21 (  95->  99)    0.12 (  97-> 101)
  14   4.094     302.9   0.088554   0.076847  79.287821  81.828514     0.18 (  86-> 100)    0.16 (  93->  99)    0.09 (  86->  99)
  15   4.117     301.2   0.013047   0.009304  -21.693126  -20.649318     0.29 (  90->  99)    0.23 (  85->  99)    0.14 (  86-> 100)
  16   4.160     298.0   0.035058   0.027836  52.437419  48.852503     0.23 (  93->  99)    0.14 (  86->  99)    0.11 (  91->  99)
  17   4.222     293.7   0.103484   0.083835  86.537765  80.038128     0.33 (  97-> 102)    0.30 (  88->  99)    0.05 (  98-> 109)
  18   4.307     287.9   0.397713   0.354335  124.956000  120.962306     0.21 (  88->  99)    0.12 (  84->  99)    0.11 (  96-> 101)
  19   4.318     287.1   0.011039   0.012552  -78.928207  -71.184912     0.42 (  96-> 101)    0.14 (  97-> 102)    0.06 (  93->  99)
  20   4.400     281.8   0.098175   0.089320  -88.388110  -88.369303     0.17 (  84->  99)    0.14 (  95-> 100)    0.13 (  93-> 100)
  21   4.421     280.5   0.004406   0.004757   8.598782   9.709179     0.25 (  94->  99)    0.21 (  84->  99)    0.05 (  88->  99)
  22   4.424     280.3   0.003201   0.002248   4.238723   3.379607     0.52 (  94->  99)    0.05 (  94-> 101)    0.04 (  84->  99)
  23   4.448     278.7   0.027843   0.027287   4.196973   3.534366     0.25 (  91->  99)    0.18 (  93->  99)    0.06 (  94->  99)
  24   4.488     276.3   0.006577   0.004730  -1.560033  -3.719455     0.23 (  98-> 109)    0.11 (  97-> 109)    0.11 (  97-> 102)
  25   4.515     274.6   0.306954   0.249002  138.207655  116.753528     0.28 (  98-> 105)    0.08 (  97-> 105)    0.07 (  88->  99)
  26   4.636     267.4   0.017726   0.015641   6.657719   5.701178     0.13 (  92->  99)    0.12 (  98-> 112)    0.10 (  92-> 100)
  27   4.653     266.5   0.010826   0.010663  -57.820960  -74.810807     0.20 (  98-> 112)    0.16 (  97-> 112)    0.14 (  92->  99)
  28   4.709     263.3   0.025778   0.017762  29.804938  24.452540     0.37 (  98-> 106)    0.13 (  97-> 106)    0.09 (  97-> 103)
  29   4.724     262.5   0.016322   0.014560  -20.333504  -21.458524     0.13 (  97-> 104)    0.09 (  98-> 104)    0.07 (  82-> 100)
  30   4.748     261.1   0.223493   0.163703  27.559322  42.657285     0.23 (  98-> 106)    0.17 (  97-> 103)    0.13 (  97-> 106)
  31   4.851     255.6   0.017211   0.014595  38.279145  34.331747     0.19 (  95-> 101)    0.09 (  95-> 100)    0.08 (  83->  99)
  32   4.932     251.4   0.029608   0.024323  86.671526  58.083815     0.15 (  95-> 101)    0.13 (  82-> 100)    0.13 (  82->  99)

-----------------------------------------------------------------------------
         ABSORPTION SPECTRUM VIA TRANSITION ELECTRIC DIPOLE MOMENTS
-----------------------------------------------------------------------------
State   Energy  Wavelength   fosc         T2         TX        TY        TZ  
        (cm-1)    (nm)                  (au**2)     (au)      (au)      (au) 
-----------------------------------------------------------------------------
   0   12650.1    790.5   2.072736741  53.94196   6.59056   1.45688  -2.89552
   1   17842.3    560.5   0.241580450   4.45744   1.37003  -0.01711  -1.60629
   2   18947.2    527.8   0.059990471   1.04235  -0.66111  -0.74828   0.21296
   3   22944.0    435.8   0.586023469   8.40854   2.37743   0.56552  -1.56095
   4   23332.3    428.6   0.159754603   2.25409   0.62821   0.22307  -1.34524
   5   24452.5    409.0   0.047593659   0.64077   0.52038   0.47437  -0.38071
   6   27967.5    357.6   0.049356472   0.58099  -0.49528  -0.06286  -0.57596
   7   28764.9    347.6   0.038415252   0.43966   0.61210  -0.08091   0.24177
   8   28804.5    347.2   0.009006869   0.10294  -0.21466   0.10708  -0.21306
   9   29308.4    341.2   0.007108669   0.07985   0.07513  -0.25451   0.09710
  10   29755.1    336.1   0.022722336   0.25140   0.03613   0.30114   0.39926
  11   30512.7    327.7   0.398158898   4.29587   0.68816  -1.14249  -1.58651
  12   31389.0    318.6   0.299279185   3.13888   0.79127  -0.95401  -1.26595
  13   32030.8    312.2   0.163817976   1.68372   0.15619  -0.96302  -0.85552
  14   33016.9    302.9   0.088553823   0.88297   0.13072   0.66926   0.64651
  15   33205.1    301.2   0.013046753   0.12935   0.07454  -0.28362  -0.20822
  16   33551.9    298.0   0.035057553   0.34399  -0.01225   0.38505   0.44223
  17   34053.7    293.7   0.103483669   1.00042   0.21603  -0.83234  -0.51085
  18   34739.8    287.9   0.397713163   3.76893   0.11740  -1.50582  -1.21970
  19   34828.2    287.1   0.011038550   0.10434   0.15206   0.07959  -0.27365
  20   35485.0    281.8   0.098175281   0.91082   0.02320   0.86313   0.40657
  21   35656.3    280.5   0.004406237   0.04068  -0.11879  -0.16268  -0.01038
  22   35680.3    280.3   0.003200606   0.02953   0.11656   0.12627   0.00010
  23   35875.2    278.7   0.027843184   0.25551  -0.00875   0.43863   0.25107
  24   36196.5    276.3   0.006577002   0.05982   0.14183  -0.07139  -0.18602
  25   36419.3    274.6   0.306954316   2.77471   0.50205  -1.08027  -1.16434
  26   37391.3    267.4   0.017725981   0.15607   0.29765   0.25576  -0.04535
  27   37526.7    266.5   0.010826170   0.09498   0.08676   0.29404  -0.03142
  28   37982.9    263.3   0.025777693   0.22342  -0.25774  -0.39598  -0.01403
  29   38101.9    262.5   0.016321979   0.14103   0.22071  -0.02550  -0.30276
  30   38292.9    261.1   0.223492920   1.92141  -0.02191   0.87457   1.07520
  31   39127.6    255.6   0.017211191   0.14481   0.07289  -0.36374  -0.08481
  32   39781.7    251.4   0.029607865   0.24502   0.31178   0.06792  -0.37841

-----------------------------------------------------------------------------
         ABSORPTION SPECTRUM VIA TRANSITION VELOCITY DIPOLE MOMENTS
-----------------------------------------------------------------------------
State   Energy  Wavelength   fosc         P2         PX        PY        PZ  
        (cm-1)    (nm)                  (au**2)     (au)      (au)      (au) 
-----------------------------------------------------------------------------
   0   12650.1    790.5   3.118031955   0.26958   0.46675   0.10786  -0.20022
   1   17842.3    560.5   0.294957196   0.03597   0.11947   0.00023  -0.14729
   2   18947.2    527.8   0.069102199   0.00895  -0.06031  -0.07029   0.01926
   3   22944.0    435.8   0.577562339   0.09057   0.24581   0.05981  -0.16300
   4   23332.3    428.6   0.180337713   0.02876   0.07483   0.03132  -0.14892
   5   24452.5    409.0   0.070282881   0.01175   0.07576   0.05813  -0.05126
   6   27967.5    357.6   0.052416040   0.01002  -0.06825  -0.01201  -0.07223
   7   28764.9    347.6   0.041697458   0.00820   0.08458  -0.00803   0.03129
   8   28804.5    347.2   0.009674610   0.00190  -0.03015   0.01504  -0.02774
   9   29308.4    341.2   0.005671431   0.00114   0.00903  -0.02960   0.01336
  10   29755.1    336.1   0.020600968   0.00419   0.00246   0.03914   0.05149
  11   30512.7    327.7   0.386059374   0.08051   0.09437  -0.15673  -0.21689
  12   31389.0    318.6   0.285276235   0.06120   0.11005  -0.13416  -0.17633
  13   32030.8    312.2   0.147764356   0.03235   0.00832  -0.13819  -0.11481
  14   33016.9    302.9   0.076846760   0.01734   0.02026   0.09158   0.09243
  15   33205.1    301.2   0.009303789   0.00211   0.01625  -0.03503  -0.02490
  16   33551.9    298.0   0.027836153   0.00638  -0.00388   0.05437   0.05841
  17   34053.7    293.7   0.083834796   0.01951   0.03182  -0.11597  -0.07107
  18   34739.8    287.9   0.354334630   0.08413   0.01878  -0.22416  -0.18311
  19   34828.2    287.1   0.012551975   0.00299   0.02755   0.01084  -0.04595
  20   35485.0    281.8   0.089320217   0.02166   0.01087   0.13407   0.05975
  21   35656.3    280.5   0.004757417   0.00116  -0.01748  -0.02881  -0.00488
  22   35680.3    280.3   0.002247654   0.00055   0.01589   0.01719   0.00021
  23   35875.2    278.7   0.027286687   0.00669   0.00005   0.06992   0.04244
  24   36196.5    276.3   0.004729817   0.00117   0.01697  -0.01009  -0.02793
  25   36419.3    274.6   0.249002261   0.06198   0.07007  -0.16497  -0.17279
  26   37391.3    267.4   0.015641056   0.00400   0.04916   0.03903  -0.00756
  27   37526.7    266.5   0.010663219   0.00273   0.01135   0.04996  -0.01048
  28   37982.9    263.3   0.017762207   0.00461  -0.04094  -0.05355   0.00817
  29   38101.9    262.5   0.014560072   0.00379   0.03563  -0.00173  -0.05019
  30   38292.9    261.1   0.163702557   0.04284  -0.00779   0.12955   0.16124
  31   39127.6    255.6   0.014595360   0.00390   0.01139  -0.05954  -0.01513
  32   39781.7    251.4   0.024323362   0.00661   0.04610   0.00121  -0.06698

-------------------------------------------------------------------
                             CD SPECTRUM
-------------------------------------------------------------------
State   Energy Wavelength       R         MX        MY        MZ   
        (cm-1)   (nm)       (1e40*cgs)   (au)      (au)      (au)  
-------------------------------------------------------------------
   0   12650.1    790.5     16.39853  -4.74976   2.84525  -9.35543
   1   17842.3    560.5    -265.39778  -2.18082  -1.67025  -2.54319
   2   18947.2    527.8    -56.65616   1.24604  -0.92830   1.73506
   3   22944.0    435.8    -115.67519  -5.01702   3.94552  -6.52620
   4   23332.3    428.6     17.78593  -2.84982  -1.01782  -1.44353
   5   24452.5    409.0    111.88398  -1.00684  -0.69421  -0.99449
   6   27967.5    357.6    -305.11431  -2.52862   1.41449  -0.22730
   7   28764.9    347.6    -58.17775   1.00684   0.41612  -1.38896
   8   28804.5    347.2      0.29860  -0.50049  -0.03849   0.49086
   9   29308.4    341.2    -19.44133   0.66833  -0.16983  -0.11286
  10   29755.1    336.1    -12.10067   0.62346   0.52268  -0.32208
  11   30512.7    327.7    370.93415  -5.55445   4.88764  -4.93713
  12   31389.0    318.6     -6.78932  -1.89742  -0.48446  -0.84363
  13   32030.8    312.2    223.69759  -2.40486   2.03153  -1.61658
  14   33016.9    302.9     79.28782   0.31640   1.12867  -1.75265
  15   33205.1    301.2    -21.69313   0.22772  -0.51892   0.34638
  16   33551.9    298.0     52.43742   0.94902  -0.04368  -0.43870
  17   34053.7    293.7     86.53776  -0.84262   0.75340  -0.86522
  18   34739.8    287.9    124.95600  -2.34092   0.55442  -0.47518
  19   34828.2    287.1    -78.92821  -1.90464   1.76114  -1.76977
  20   35485.0    281.8    -88.38811  -0.27497   1.04616  -1.28299
  21   35656.3    280.5      8.59878  -0.13212   0.32573  -0.07865
  22   35680.3    280.3      4.23872   0.43613  -0.54541   0.54723
  23   35875.2    278.7      4.19697   0.35657  -0.00309  -0.05309
  24   36196.5    276.3     -1.56003  -0.39101  -0.12968  -0.28394
  25   36419.3    274.6    138.20766  -2.69552   1.53371  -2.08167
  26   37391.3    267.4      6.65772  -0.11873  -0.14811  -0.99165
  27   37526.7    266.5    -57.82096  -1.26850   1.03637  -1.61066
  28   37982.9    263.3     29.80494  -0.12758   0.40808  -0.16172
  29   38101.9    262.5    -20.33350  -1.22930   0.13136  -1.19212
  30   38292.9    261.1     27.55932   4.09039  -2.75421   2.21491
  31   39127.6    255.6     38.27914  -0.10856   0.52879  -0.44644
  32   39781.7    251.4     86.67153  -0.34816  -1.59528   0.39846

sTD-DFT done

Total run time:        4.198 sec

           *** ORCA-CIS/TD-DFT FINISHED WITHOUT ERROR ***

-------------------------   --------------------
FINAL SINGLE POINT ENERGY     -4266.229355343200
-------------------------   --------------------


                            ***************************************
                            *     ORCA property calculations      *
                            ***************************************

                                    ---------------------
                                    Active property flags
                                    ---------------------
   (+) Dipole Moment


------------------------------------------------------------------------------
                       ORCA ELECTRIC PROPERTIES CALCULATION
------------------------------------------------------------------------------

Dipole Moment Calculation                       ... on
Quadrupole Moment Calculation                   ... off
Polarizability Calculation                      ... off
GBWName                                         ... xtbopt.gbw
Electron density file                           ... xtbopt.scfp
The origin for moment calculation is the CENTER OF MASS  = (-4.949250, -21.812517 -3.292084)

-------------
DIPOLE MOMENT
-------------
                                X             Y             Z
Electronic contribution:     41.62862      -8.89400     -36.41928
Nuclear contribution   :    -44.81735       8.45842      37.16294
                        -----------------------------------------
Total Dipole Moment    :     -3.18873      -0.43558       0.74365
                        -----------------------------------------
Magnitude (a.u.)       :      3.30314
Magnitude (Debye)      :      8.39592



--------------------
Rotational spectrum 
--------------------
 
Rotational constants in cm-1:     0.001902     0.000153     0.000145 
Rotational constants in MHz :    57.027667     4.578110     4.332977 

 Dipole components along the rotational axes: 
x,y,z [a.u.] :     3.176439    -0.342798     0.838732 
x,y,z [Debye]:     8.073867    -0.871323     2.131888 

 

Timings for individual modules:

Sum of individual times         ...      676.856 sec (=  11.281 min)
GTO integral calculation        ...        3.219 sec (=   0.054 min)   0.5 %
SCF iterations                  ...      668.710 sec (=  11.145 min)  98.8 %
CIS module                      ...        4.927 sec (=   0.082 min)   0.7 %
                             ****ORCA TERMINATED NORMALLY****
TOTAL RUN TIME: 0 days 0 hours 11 minutes 17 seconds 911 msec
