
                                 *****************
                                 * O   R   C   A *
                                 *****************

           --- An Ab Initio, DFT and Semiempirical electronic structure package ---

                  #######################################################
                  #                        -***-                        #
                  #          Department of theory and spectroscopy      #
                  #               Directorship: Frank Neese             #
                  #        Max Planck Institute fuer Kohlenforschung    #
                  #                Kaiser Wilhelm Platz 1               #
                  #                 D-45470 Muelheim/Ruhr               #
                  #                      Germany                        #
                  #                                                     #
                  #                  All rights reserved                #
                  #                        -***-                        #
                  #######################################################


                         Program Version 4.2.0 -  RELEASE  -


 With contributions from (in alphabetic order):
   Daniel Aravena         : Magnetic Suceptibility
   Michael Atanasov       : Ab Initio Ligand Field Theory (pilot matlab implementation)
   Alexander A. Auer      : GIAO ZORA, VPT2
   Ute Becker             : Parallelization
   Giovanni Bistoni       : ED, misc. LED, open-shell LED, HFLED
   Martin Brehm           : Molecular dynamics
   Dmytro Bykov           : SCF Hessian
   Vijay G. Chilkuri      : MRCI spin determinant printing, contributions to CSF-ICE
   Dipayan Datta          : RHF DLPNO-CCSD density
   Achintya Kumar Dutta   : EOM-CC, STEOM-CC
   Dmitry Ganyushin       : Spin-Orbit,Spin-Spin,Magnetic field MRCI
   Miquel Garcia          : C-PCM Hessian, Gaussian charge scheme
   Yang Guo               : DLPNO-NEVPT2, CIM, IAO-localization
   Andreas Hansen         : Spin unrestricted coupled pair/coupled cluster methods
   Benjamin Helmich-Paris : CASSCF linear response (MC-RPA)
   Lee Huntington         : MR-EOM, pCC
   Robert Izsak           : Overlap fitted RIJCOSX, COSX-SCS-MP3, EOM
   Christian Kollmar      : KDIIS, OOCD, Brueckner-CCSD(T), CCSD density
   Simone Kossmann        : Meta GGA functionals, TD-DFT gradient, OOMP2, MP2 Hessian
   Martin Krupicka        : AUTO-CI
   Lucas Lang             : DCDCAS
   Dagmar Lenk            : GEPOL surface, SMD
   Dimitrios Liakos       : Extrapolation schemes; Compound Job, initial MDCI parallelization
   Dimitrios Manganas     : Further ROCIS development; embedding schemes
   Dimitrios Pantazis     : SARC Basis sets
   Taras Petrenko         : DFT Hessian,TD-DFT gradient, ASA, ECA, R-Raman, ABS, FL, XAS/XES, NRVS
   Peter Pinski           : DLPNO-MP2, DLPNO-MP2 Gradient
   Christoph Reimann      : Effective Core Potentials
   Marius Retegan         : Local ZFS, SOC
   Christoph Riplinger    : Optimizer, TS searches, QM/MM, DLPNO-CCSD(T), (RO)-DLPNO pert. Triples
   Tobias Risthaus        : Range-separated hybrids, TD-DFT gradient, RPA, STAB
   Michael Roemelt        : Original ROCIS implementation
   Masaaki Saitow         : Open-shell DLPNO-CCSD energy and density
   Barbara Sandhoefer     : DKH picture change effects
   Avijit Sen             : IP-ROCIS
   Kantharuban Sivalingam : CASSCF convergence, NEVPT2, FIC-MRCI
   Bernardo de Souza      : ESD, SOC TD-DFT
   Georgi Stoychev        : AutoAux, RI-MP2 NMR
   Willem Van den Heuvel  : Paramagnetic NMR
   Boris Wezisla          : Elementary symmetry handling
   Frank Wennmohs         : Technical directorship


 We gratefully acknowledge several colleagues who have allowed us to
 interface, adapt or use parts of their codes:
   Stefan Grimme, W. Hujo, H. Kruse,             : VdW corrections, initial TS optimization,
                  C. Bannwarth                     DFT functionals, gCP, sTDA/sTD-DF
   Ed Valeev, F. Pavosevic, A. Kumar             : LibInt (2-el integral package), F12 methods
   Garnet Chan, S. Sharma, J. Yang, R. Olivares  : DMRG
   Ulf Ekstrom                                   : XCFun DFT Library
   Mihaly Kallay                                 : mrcc  (arbitrary order and MRCC methods)
   Andreas Klamt, Michael Diedenhofen            : otool_cosmo (COSMO solvation model)
   Jiri Pittner, Ondrej Demel                    : Mk-CCSD
   Frank Weinhold                                : gennbo (NPA and NBO analysis)
   Christopher J. Cramer and Donald G. Truhlar   : smd solvation model
   Lars Goerigk                                  : TD-DFT with DH, B97 family of functionals
   V. Asgeirsson, H. Jonsson                     : NEB implementation
   FAccTs GmbH                                   : IRC, NEB, NEB-TS, Multilevel, MM, QM/MM, CI optimization
   S Lehtola, MJT Oliveira, MAL Marques          : LibXC Library


 Your calculation uses the libint2 library for the computation of 2-el integrals
 For citations please refer to: http://libint.valeyev.net

 Your ORCA version has been built with support for libXC version: 4.2.3
 For citations please refer to: https://tddft.org/programs/libxc/

 This ORCA versions uses:
   CBLAS   interface :  Fast vector & matrix operations
   LAPACKE interface :  Fast linear algebra routines
   SCALAPACK package :  Parallel linear algebra routines


XCFun DFT library Copyright 2009-2010 Ulf Ekstrom and contributors.
See http://admol.org/xcfun for more information. This is free soft-
ware; see the source code for copying conditions. There is ABSOLUTELY
NO WARRANTY; not even for MERCHANTABILITY or FITNESS FOR A PARTICULAR
PURPOSE. For details see the documentation. Scientific users of this 
library should cite U. Ekstrom, L. Visscher, R. Bast, A. J. Thorvald-
sen and K. Ruud; J.Chem.Theor.Comp. 2010, DOI: 10.1021/ct100117s
XCFun Version 0.99 
----- Orbital basis set information -----
Your calculation utilizes the basis: def2-SVP
   F. Weigend and R. Ahlrichs, Phys. Chem. Chem. Phys. 7, 3297 (2005).

----- AuxJ basis set information -----
Your calculation utilizes the auxiliary basis: def2/J
   F. Weigend, Phys. Chem. Chem. Phys. 8, 1057 (2006).

================================================================================
                                        WARNINGS
                       Please study these warnings very carefully!
================================================================================

INFO   : Checking CIS options ...

WARNING: CIS/ROCIS methods need fully converged wavefunctions
  ===> : Setting SCFConvForced true
         You can overwrite this default with %scf ConvForced false 


INFO   : the flag for use of LIBINT has been found!

================================================================================
                                       INPUT FILE
================================================================================
NAME = xtbopt.inp
|  1> # ORCA input file
|  2> # SCF done       -193.566767228827          0.000299867905
|  3> ! CAM-B3LYP def2-SVP def2/J RIJCOSX Grid4 TightSCF
|  4> %maxcore 5000
|  5> %tddft
|  6>     Mode sTDDFT
|  7>     Ethresh 5.0
|  8>     maxcore 5000
|  9> end
| 10> 
| 11> %pal
| 12>   nprocs 6
| 13>   end
| 14> * xyz 0 1
| 15>    C       -0.08497         2.76188        -4.13225
| 16>    C        1.03120         2.14280        -3.72571
| 17>    C        2.35650         2.68759        -3.63896
| 18>    C        3.29051         1.82058        -3.19176
| 19>    C        2.79258         0.52226        -2.88777
| 20>    S        1.06411         0.45231        -3.19606
| 21>    C        3.49273        -0.55325        -2.40829
| 22>    C        4.86540        -0.61530        -2.04868
| 23>    C        5.24484        -1.80716        -1.53067
| 24>    C        4.20246        -2.77756        -1.43029
| 25>    S        2.72590        -2.10333        -2.11637
| 26>    C        4.33555        -3.98187        -0.81234
| 27>    C        3.35674        -4.99428        -0.55221
| 28>    C        3.66456        -5.95922         0.42651
| 29>    C        2.75960        -6.94161         0.73153
| 30>    C        1.51059        -6.98160         0.08066
| 31>    C        1.19507        -6.03855        -0.88861
| 32>    C        2.11506        -5.06113        -1.20139
| 33>    C        0.74797        -8.08818         0.60799
| 34>    C        1.51728        -8.72912         1.59560
| 35>    C        2.86809        -8.05940         1.74318
| 36>    C        3.07872        -7.51468         3.16502
| 37>    C        1.95517        -6.58642         3.60959
| 38>    C        3.94521        -9.10276         1.36887
| 39>    C        5.38089        -8.59772         1.30249
| 40>    C        1.04209        -9.83570         2.24952
| 41>    C       -0.22932       -10.34814         1.93048
| 42>    C       -0.99155        -9.68102         0.95608
| 43>    C       -0.51987        -8.56502         0.29801
| 44>    C       -0.75725       -11.53864         2.53908
| 45>    C       -0.10033       -12.31287         3.44004
| 46>    C       -0.56806       -13.51211         4.01174
| 47>    C        0.19056       -14.22742         4.90310
| 48>    C       -0.09645       -15.45584         5.54974
| 49>    C        0.88843       -15.90444         6.37922
| 50>    C        2.01273       -15.05263         6.44757
| 51>    S        1.77975       -13.66447         5.40560
| 52>    C        3.17675       -15.14155         7.18061
| 53>    C        3.64823       -16.12682         8.07753
| 54>    C        4.85521       -15.83430         8.63375
| 55>    C        5.42478       -14.59405         8.22139
| 56>    S        4.32729       -13.82783         7.07716
| 57>    C        6.64438       -14.09447         8.57611
| 58>    C        7.22164       -12.85774         8.13174
| 59>    C        6.42746       -11.80618         7.64550
| 60>    C        7.01718       -10.70581         7.08610
| 61>    C        8.41604       -10.57602         7.03219
| 62>    C        9.21532       -11.56821         7.59063
| 63>    C        8.61803       -12.68903         8.13103
| 64>    C        8.72867        -9.33842         6.35148
| 65>    C        7.52135        -8.71952         5.97168
| 66>    C        6.33621        -9.54041         6.41642
| 67>    C        5.43787        -8.75926         7.39150
| 68>    C        6.19644        -8.25183         8.61171
| 69>    C        5.49857       -10.02060         5.21591
| 70>    C        6.30504       -10.84705         4.22217
| 71>    C        7.51556        -7.52869         5.29502
| 72>    C        8.73229        -6.89924         4.97889
| 73>    C        9.92805        -7.52586         5.36982
| 74>    C        9.93889        -8.72993         6.04321
| 75>    C        8.79175        -5.63743         4.29536
| 76>    C        7.73911        -4.93579         3.80194
| 77>    C        7.85599        -3.67454         3.18387
| 78>    C        6.80140        -2.95593         2.69019
| 79>    C        6.84834        -1.66231         2.10591
| 80>    C        5.64305        -1.17718         1.71131
| 81>    C        4.55910        -2.06183         1.93933
| 82>    S        5.13485        -3.53144         2.70312
| 83>    C        3.24293        -1.88447         1.59465
| 84>    C        2.66405        -0.75574         0.94806
| 85>    C        1.35610        -0.89786         0.64363
| 86>    C        0.79135        -2.15900         1.03064
| 87>    S        2.02725        -3.11952         1.85453
| 88>    C       -0.45375        -2.60276         0.81797
| 89>    H       -0.05910         3.79068        -4.44539
| 90>    H       -1.03330         2.25760        -4.16070
| 91>    H        2.54754         3.70872        -3.91851
| 92>    H        4.33228         2.06096        -3.07013
| 93>    H        5.52026         0.22934        -2.17123
| 94>    H        6.23942        -2.03268        -1.18646
| 95>    H        5.31789        -4.17505        -0.39538
| 96>    H        4.60442        -5.88340         0.95123
| 97>    H        0.24123        -6.06816        -1.39420
| 98>    H        1.87662        -4.34460        -1.97111
| 99>    H        4.02087        -6.96563         3.19871
|100>    H        3.14358        -8.35899         3.85512
|101>    H        1.88205        -5.72924         2.94489
|102>    H        2.14755        -6.22204         4.61621
|103>    H        1.00080        -7.10842         3.60843
|104>    H        3.67810        -9.52433         0.39588
|105>    H        3.88846        -9.91009         2.10259
|106>    H        5.50455        -7.88346         0.49369
|107>    H        6.04766        -9.43688         1.11476
|108>    H        5.68604        -8.13292         2.23595
|109>    H        1.64574       -10.31416         3.00468
|110>    H       -1.97222       -10.06641         0.71370
|111>    H       -1.12328        -8.07588        -0.45255
|112>    H       -1.74861       -11.83845         2.22144
|113>    H        0.88947       -12.01685         3.76165
|114>    H       -1.54223       -13.89262         3.73655
|115>    H       -1.02593       -15.97102         5.37917
|116>    H        0.83583       -16.81689         6.94720
|117>    H        3.08809       -17.02316         8.27938
|118>    H        5.36702       -16.46985         9.33566
|119>    H        7.26476       -14.72782         9.19829
|120>    H        5.35489       -11.84773         7.73061
|121>    H       10.29163       -11.47500         7.58657
|122>    H        9.23579       -13.47859         8.53575
|123>    H        4.62498        -9.41266         7.71513
|124>    H        4.99543        -7.91344         6.86076
|125>    H        6.63310        -9.08152         9.16350
|126>    H        5.52332        -7.71303         9.27479
|127>    H        6.99772        -7.57903         8.31360
|128>    H        5.08868        -9.14522         4.70954
|129>    H        4.66525       -10.62044         5.58844
|130>    H        7.13850       -10.26961         3.82779
|131>    H        5.67371       -11.15338         3.39153
|132>    H        6.69930       -11.74154         4.69859
|133>    H        6.57915        -7.06873         5.01946
|134>    H       10.86582        -7.04385         5.13020
|135>    H       10.87456        -9.18845         6.32815
|136>    H        9.78236        -5.21418         4.17627
|137>    H        6.73392        -5.32803         3.87947
|138>    H        8.84023        -3.23012         3.10797
|139>    H        7.78040        -1.13360         2.00454
|140>    H        5.49755        -0.21513         1.25331
|141>    H        3.24911         0.11722         0.71613
|142>    H        0.75878        -0.16419         0.13206
|143>    H       -1.17265        -1.98989         0.30393
|144>    H       -0.76785        -3.57814         1.14193
|145> *
|146> 
|147>                          ****END OF INPUT****
================================================================================

                       ****************************
                       * Single Point Calculation *
                       ****************************

---------------------------------
CARTESIAN COORDINATES (ANGSTROEM)
---------------------------------
  C     -0.084970    2.761880   -4.132250
  C      1.031200    2.142800   -3.725710
  C      2.356500    2.687590   -3.638960
  C      3.290510    1.820580   -3.191760
  C      2.792580    0.522260   -2.887770
  S      1.064110    0.452310   -3.196060
  C      3.492730   -0.553250   -2.408290
  C      4.865400   -0.615300   -2.048680
  C      5.244840   -1.807160   -1.530670
  C      4.202460   -2.777560   -1.430290
  S      2.725900   -2.103330   -2.116370
  C      4.335550   -3.981870   -0.812340
  C      3.356740   -4.994280   -0.552210
  C      3.664560   -5.959220    0.426510
  C      2.759600   -6.941610    0.731530
  C      1.510590   -6.981600    0.080660
  C      1.195070   -6.038550   -0.888610
  C      2.115060   -5.061130   -1.201390
  C      0.747970   -8.088180    0.607990
  C      1.517280   -8.729120    1.595600
  C      2.868090   -8.059400    1.743180
  C      3.078720   -7.514680    3.165020
  C      1.955170   -6.586420    3.609590
  C      3.945210   -9.102760    1.368870
  C      5.380890   -8.597720    1.302490
  C      1.042090   -9.835700    2.249520
  C     -0.229320  -10.348140    1.930480
  C     -0.991550   -9.681020    0.956080
  C     -0.519870   -8.565020    0.298010
  C     -0.757250  -11.538640    2.539080
  C     -0.100330  -12.312870    3.440040
  C     -0.568060  -13.512110    4.011740
  C      0.190560  -14.227420    4.903100
  C     -0.096450  -15.455840    5.549740
  C      0.888430  -15.904440    6.379220
  C      2.012730  -15.052630    6.447570
  S      1.779750  -13.664470    5.405600
  C      3.176750  -15.141550    7.180610
  C      3.648230  -16.126820    8.077530
  C      4.855210  -15.834300    8.633750
  C      5.424780  -14.594050    8.221390
  S      4.327290  -13.827830    7.077160
  C      6.644380  -14.094470    8.576110
  C      7.221640  -12.857740    8.131740
  C      6.427460  -11.806180    7.645500
  C      7.017180  -10.705810    7.086100
  C      8.416040  -10.576020    7.032190
  C      9.215320  -11.568210    7.590630
  C      8.618030  -12.689030    8.131030
  C      8.728670   -9.338420    6.351480
  C      7.521350   -8.719520    5.971680
  C      6.336210   -9.540410    6.416420
  C      5.437870   -8.759260    7.391500
  C      6.196440   -8.251830    8.611710
  C      5.498570  -10.020600    5.215910
  C      6.305040  -10.847050    4.222170
  C      7.515560   -7.528690    5.295020
  C      8.732290   -6.899240    4.978890
  C      9.928050   -7.525860    5.369820
  C      9.938890   -8.729930    6.043210
  C      8.791750   -5.637430    4.295360
  C      7.739110   -4.935790    3.801940
  C      7.855990   -3.674540    3.183870
  C      6.801400   -2.955930    2.690190
  C      6.848340   -1.662310    2.105910
  C      5.643050   -1.177180    1.711310
  C      4.559100   -2.061830    1.939330
  S      5.134850   -3.531440    2.703120
  C      3.242930   -1.884470    1.594650
  C      2.664050   -0.755740    0.948060
  C      1.356100   -0.897860    0.643630
  C      0.791350   -2.159000    1.030640
  S      2.027250   -3.119520    1.854530
  C     -0.453750   -2.602760    0.817970
  H     -0.059100    3.790680   -4.445390
  H     -1.033300    2.257600   -4.160700
  H      2.547540    3.708720   -3.918510
  H      4.332280    2.060960   -3.070130
  H      5.520260    0.229340   -2.171230
  H      6.239420   -2.032680   -1.186460
  H      5.317890   -4.175050   -0.395380
  H      4.604420   -5.883400    0.951230
  H      0.241230   -6.068160   -1.394200
  H      1.876620   -4.344600   -1.971110
  H      4.020870   -6.965630    3.198710
  H      3.143580   -8.358990    3.855120
  H      1.882050   -5.729240    2.944890
  H      2.147550   -6.222040    4.616210
  H      1.000800   -7.108420    3.608430
  H      3.678100   -9.524330    0.395880
  H      3.888460   -9.910090    2.102590
  H      5.504550   -7.883460    0.493690
  H      6.047660   -9.436880    1.114760
  H      5.686040   -8.132920    2.235950
  H      1.645740  -10.314160    3.004680
  H     -1.972220  -10.066410    0.713700
  H     -1.123280   -8.075880   -0.452550
  H     -1.748610  -11.838450    2.221440
  H      0.889470  -12.016850    3.761650
  H     -1.542230  -13.892620    3.736550
  H     -1.025930  -15.971020    5.379170
  H      0.835830  -16.816890    6.947200
  H      3.088090  -17.023160    8.279380
  H      5.367020  -16.469850    9.335660
  H      7.264760  -14.727820    9.198290
  H      5.354890  -11.847730    7.730610
  H     10.291630  -11.475000    7.586570
  H      9.235790  -13.478590    8.535750
  H      4.624980   -9.412660    7.715130
  H      4.995430   -7.913440    6.860760
  H      6.633100   -9.081520    9.163500
  H      5.523320   -7.713030    9.274790
  H      6.997720   -7.579030    8.313600
  H      5.088680   -9.145220    4.709540
  H      4.665250  -10.620440    5.588440
  H      7.138500  -10.269610    3.827790
  H      5.673710  -11.153380    3.391530
  H      6.699300  -11.741540    4.698590
  H      6.579150   -7.068730    5.019460
  H     10.865820   -7.043850    5.130200
  H     10.874560   -9.188450    6.328150
  H      9.782360   -5.214180    4.176270
  H      6.733920   -5.328030    3.879470
  H      8.840230   -3.230120    3.107970
  H      7.780400   -1.133600    2.004540
  H      5.497550   -0.215130    1.253310
  H      3.249110    0.117220    0.716130
  H      0.758780   -0.164190    0.132060
  H     -1.172650   -1.989890    0.303930
  H     -0.767850   -3.578140    1.141930

----------------------------
CARTESIAN COORDINATES (A.U.)
----------------------------
  NO LB      ZA    FRAG     MASS         X           Y           Z
   0 C     6.0000    0    12.011   -0.160570    5.219197   -7.808821
   1 C     6.0000    0    12.011    1.948686    4.049305   -7.040572
   2 C     6.0000    0    12.011    4.453140    5.078809   -6.876638
   3 C     6.0000    0    12.011    6.218163    3.440398   -6.031552
   4 C     6.0000    0    12.011    5.277211    0.986928   -5.457094
   5 S    16.0000    0    32.060    2.010876    0.854742   -6.039678
   6 C     6.0000    0    12.011    6.600303   -1.045491   -4.551009
   7 C     6.0000    0    12.011    9.194274   -1.162748   -3.871444
   8 C     6.0000    0    12.011    9.911311   -3.415037   -2.892547
   9 C     6.0000    0    12.011    7.941498   -5.248828   -2.702856
  10 S    16.0000    0    32.060    5.151204   -3.974718   -3.999360
  11 C     6.0000    0    12.011    8.193002   -7.524644   -1.535100
  12 C     6.0000    0    12.011    6.343319   -9.437821   -1.043526
  13 C     6.0000    0    12.011    6.925015  -11.261294    0.805987
  14 C     6.0000    0    12.011    5.214888  -13.117742    1.382391
  15 C     6.0000    0    12.011    2.854601  -13.193312    0.152425
  16 C     6.0000    0    12.011    2.258355  -11.411206   -1.679230
  17 C     6.0000    0    12.011    3.996884   -9.564150   -2.270298
  18 C     6.0000    0    12.011    1.413458  -15.284445    1.148935
  19 C     6.0000    0    12.011    2.867244  -16.495646    3.015247
  20 C     6.0000    0    12.011    5.419905  -15.230059    3.294133
  21 C     6.0000    0    12.011    5.817938  -14.200687    5.981021
  22 C     6.0000    0    12.011    3.694736  -12.446530    6.821137
  23 C     6.0000    0    12.011    7.455366  -17.201723    2.586789
  24 C     6.0000    0    12.011   10.168408  -16.247336    2.461349
  25 C     6.0000    0    12.011    1.969265  -18.586779    4.250977
  26 C     6.0000    0    12.011   -0.433352  -19.555151    3.648079
  27 C     6.0000    0    12.011   -1.873758  -18.294476    1.806729
  28 C     6.0000    0    12.011   -0.982412  -16.185542    0.563157
  29 C     6.0000    0    12.011   -1.430995  -21.804870    4.798166
  30 C     6.0000    0    12.011   -0.189596  -23.267952    6.500733
  31 C     6.0000    0    12.011   -1.073478  -25.534187    7.581090
  32 C     6.0000    0    12.011    0.360106  -26.885927    9.265516
  33 C     6.0000    0    12.011   -0.182264  -29.207305   10.487489
  34 C     6.0000    0    12.011    1.678889  -30.055036   12.054979
  35 C     6.0000    0    12.011    3.803508  -28.445348   12.184142
  36 S    16.0000    0    32.060    3.363240  -25.822106   10.215104
  37 C     6.0000    0    12.011    6.003187  -28.613383   13.569386
  38 C     6.0000    0    12.011    6.894156  -30.475273   15.264320
  39 C     6.0000    0    12.011    9.175017  -29.922491   16.315423
  40 C     6.0000    0    12.011   10.251349  -27.578758   15.536176
  41 S    16.0000    0    32.060    8.177393  -26.130812   13.373894
  42 C     6.0000    0    12.011   12.556059  -26.634688   16.206499
  43 C     6.0000    0    12.011   13.646922  -24.297607   15.366762
  44 C     6.0000    0    12.011   12.146139  -22.310447   14.447901
  45 C     6.0000    0    12.011   13.260548  -20.231049   13.390788
  46 C     6.0000    0    12.011   15.904011  -19.985781   13.288913
  47 C     6.0000    0    12.011   17.414431  -21.860749   14.344212
  48 C     6.0000    0    12.011   16.285717  -23.978792   15.365420
  49 C     6.0000    0    12.011   16.494796  -17.647056   12.002558
  50 C     6.0000    0    12.011   14.213292  -16.477505   11.284840
  51 C     6.0000    0    12.011   11.973702  -18.028762   12.125277
  52 C     6.0000    0    12.011   10.276085  -16.552603   13.967911
  53 C     6.0000    0    12.011   11.709575  -15.593699   16.273773
  54 C     6.0000    0    12.011   10.390791  -18.936190    9.856641
  55 C     6.0000    0    12.011   11.914799  -20.497954    7.978745
  56 C     6.0000    0    12.011   14.202350  -14.227162   10.006138
  57 C     6.0000    0    12.011   16.501637  -13.037674    9.408739
  58 C     6.0000    0    12.011   18.761296  -14.221814   10.147489
  59 C     6.0000    0    12.011   18.781780  -16.497177   11.420012
  60 C     6.0000    0    12.011   16.614000  -10.653199    8.117054
  61 C     6.0000    0    12.011   14.624798   -9.327291    7.184625
  62 C     6.0000    0    12.011   14.845670   -6.943874    6.016642
  63 C     6.0000    0    12.011   12.852783   -5.585898    5.083722
  64 C     6.0000    0    12.011   12.941487   -3.141311    3.979593
  65 C     6.0000    0    12.011   10.663819   -2.224548    3.233907
  66 C     6.0000    0    12.011    8.615450   -3.896294    3.664803
  67 S    16.0000    0    32.060    9.703460   -6.673454    5.108157
  68 C     6.0000    0    12.011    6.128250   -3.561132    3.013452
  69 C     6.0000    0    12.011    5.034325   -1.428142    1.791574
  70 C     6.0000    0    12.011    2.562658   -1.696710    1.216284
  71 C     6.0000    0    12.011    1.495435   -4.079919    1.947627
  72 S    16.0000    0    32.060    3.830947   -5.895038    3.504554
  73 C     6.0000    0    12.011   -0.857463   -4.918504    1.545739
  74 H     1.0000    0     1.008   -0.111683    7.163347   -8.400570
  75 H     1.0000    0     1.008   -1.952654    4.266246   -7.862584
  76 H     1.0000    0     1.008    4.814153    7.008465   -7.404911
  77 H     1.0000    0     1.008    8.186823    3.894650   -5.801705
  78 H     1.0000    0     1.008   10.431780    0.433390   -4.103030
  79 H     1.0000    0     1.008   11.790795   -3.841209   -2.242084
  80 H     1.0000    0     1.008   10.049356   -7.889701   -0.747160
  81 H     1.0000    0     1.008    8.701093  -11.118015    1.797564
  82 H     1.0000    0     1.008    0.455859  -11.467161   -2.634656
  83 H     1.0000    0     1.008    3.546298   -8.210104   -3.724858
  84 H     1.0000    0     1.008    7.598343  -13.163133    6.044686
  85 H     1.0000    0     1.008    5.940505  -15.796202    7.285121
  86 H     1.0000    0     1.008    3.556559  -10.826695    5.565036
  87 H     1.0000    0     1.008    4.058281  -11.757952    8.723373
  88 H     1.0000    0     1.008    1.891238  -13.432967    6.818944
  89 H     1.0000    0     1.008    6.950602  -17.998375    0.748105
  90 H     1.0000    0     1.008    7.348124  -18.727356    3.973319
  91 H     1.0000    0     1.008   10.402092  -14.897580    0.932939
  92 H     1.0000    0     1.008   11.428421  -17.833119    2.106591
  93 H     1.0000    0     1.008   10.745058  -15.368991    4.225333
  94 H     1.0000    0     1.008    3.109998  -19.490938    5.678022
  95 H     1.0000    0     1.008   -3.726956  -19.022758    1.348698
  96 H     1.0000    0     1.008   -2.122692  -15.261201   -0.855196
  97 H     1.0000    0     1.008   -3.304394  -22.371428    4.197913
  98 H     1.0000    0     1.008    1.680855  -22.708555    7.108488
  99 H     1.0000    0     1.008   -2.914392  -26.253247    7.061056
 100 H     1.0000    0     1.008   -1.938727  -30.180854   10.165158
 101 H     1.0000    0     1.008    1.579490  -31.779317   13.128305
 102 H     1.0000    0     1.008    5.835644  -32.169110   15.645761
 103 H     1.0000    0     1.008   10.142198  -31.123506   17.641841
 104 H     1.0000    0     1.008   13.728407  -27.831546   17.382249
 105 H     1.0000    0     1.008   10.119276  -22.388965   14.608736
 106 H     1.0000    0     1.008   19.448362  -21.684607   14.336540
 107 H     1.0000    0     1.008   17.453114  -25.470844   16.130230
 108 H     1.0000    0     1.008    8.739946  -17.787350   14.579483
 109 H     1.0000    0     1.008    9.439995  -14.954234   12.964957
 110 H     1.0000    0     1.008   12.534742  -17.161586   17.316505
 111 H     1.0000    0     1.008   10.437562  -14.575514   17.526813
 112 H     1.0000    0     1.008   13.223774  -14.322291   15.710427
 113 H     1.0000    0     1.008    9.616212  -17.281961    8.899741
 114 H     1.0000    0     1.008    8.816045  -20.069723   10.560621
 115 H     1.0000    0     1.008   13.489810  -19.406750    7.233475
 116 H     1.0000    0     1.008   10.721758  -21.076834    6.409063
 117 H     1.0000    0     1.008   12.659842  -22.188295    8.879048
 118 H     1.0000    0     1.008   12.432792  -13.357964    9.485405
 119 H     1.0000    0     1.008   20.533424  -13.310947    9.694673
 120 H     1.0000    0     1.008   20.549940  -17.363654   11.958470
 121 H     1.0000    0     1.008   18.485981   -9.853372    7.892007
 122 H     1.0000    0     1.008   12.725265  -10.068518    7.331136
 123 H     1.0000    0     1.008   16.705614   -6.104042    5.873212
 124 H     1.0000    0     1.008   14.702825   -2.142194    3.788032
 125 H     1.0000    0     1.008   10.388864   -0.406537    2.368413
 126 H     1.0000    0     1.008    6.139928    0.221514    1.353290
 127 H     1.0000    0     1.008    1.433886   -0.310274    0.249557
 128 H     1.0000    0     1.008   -2.215987   -3.760347    0.574344
 129 H     1.0000    0     1.008   -1.451026   -6.761705    2.157935

--------------------------------
INTERNAL COORDINATES (ANGSTROEM)
--------------------------------
 C      0   0   0     0.000000000000     0.00000000     0.00000000
 C      1   0   0     1.339541073241     0.00000000     0.00000000
 C      2   1   0     1.435528403272   127.74985260     0.00000000
 C      3   2   1     1.350580934339   114.50953344   180.04179262
 C      4   3   2     1.423368900672   114.47816399     0.03863538
 S      5   4   3     1.757140935583   110.05717034   359.88829443
 C      5   4   3     1.369975493576   127.73795392   180.65283751
 C      7   5   4     1.420349423029   128.08430890     2.85026321
 C      8   7   5     1.353823966880   113.96631976   176.29539044
 C      9   8   7     1.427693373522   114.87584906   359.55873268
 S      7   5   4     1.753851060296   121.91416056   181.28907785
 C     10   9   8     1.360124158561   124.21733133   187.22769537
 C     12  10   9     1.432030251461   129.91367393   174.69340314
 C     13  12  10     1.408458446103   117.46432358   197.85296347
 C     14  13  12     1.370065660507   120.10536358   179.11097036
 C     15  14  13     1.408991460975   120.20090499   359.18456885
 C     16  15  14     1.388661407903   120.30267923     0.97087309
 C     17  16  15     1.378246271499   119.23175688   359.72220958
 C     16  15  14     1.443670838419   108.74114948   181.29429443
 C     19  16  15     1.406419379773   108.47319414     0.54150789
 C     15  14  13     1.511509274434   129.18755856   180.64357335
 C     21  15  14     1.537112182276   111.52277160    59.08073160
 C     22  21  15     1.523703945982   112.62746244    58.44770380
 C     21  15  14     1.545605240707   112.77687763   292.61571360
 C     24  21  15     1.523367574947   116.32947276    62.74764841
 C     20  19  16     1.370378122600   120.89096872   181.19759438
 C     26  20  19     1.407431939136   119.93942563     0.29662352
 C     27  26  20     1.405524466987   118.30949483   358.70682020
 C     28  27  26     1.378765443177   121.97476911     1.12342814
 C     27  26  20     1.437495841698   122.50184840   177.20152953
 C     30  27  26     1.357462670168   125.14316931   358.06644201
 C     31  30  27     1.408470383253   126.46407839   182.78422132
 C     32  31  30     1.371749011336   121.60742405   179.07657870
 C     33  32  31     1.417580236212   129.51770577   181.61927186
 C     34  33  32     1.363549648821   114.60415750   179.55657062
 C     35  34  33     1.412197751237   113.95638833     0.43713029
 S     36  35  34     1.751276490706   110.08443352   359.46983059
 C     36  35  34     1.378476321306   131.23167956   178.44178874
 C     38  36  35     1.413335009720   131.61601282     1.92289742
 C     39  38  36     1.360789976154   113.91796149   181.37340894
 C     40  39  38     1.425717649817   115.03167682     0.21627043
 S     38  36  35     1.749372582528   118.39053909   183.55929910
 C     41  40  39     1.364855528911   126.88609957   183.27530850
 C     43  41  40     1.435337903561   126.46253160   178.50866013
 C     44  43  41     1.404610139363   121.65724421    22.36435911
 C     45  44  43     1.368032227435   119.99958459   187.65617934
 C     46  45  44     1.405902212745   121.25499191   357.45662981
 C     47  46  45     1.391094801982   119.37032100   358.23594979
 C     48  47  46     1.380226422186   119.19119039     2.97020512
 C     47  46  45     1.446636575301   108.18264653   178.20612378
 C     50  47  46     1.408867216029   108.50993834   359.17657785
 C     46  45  44     1.506767600959   127.51978345   174.66762523
 C     52  46  45     1.538827828089   112.01384428    63.27006714
 C     53  52  46     1.523753947952   112.69621207    56.82981107
 C     52  46  45     1.540599709788   110.54760850   300.79281024
 C     55  52  46     1.523460748100   112.92718130   305.89596345
 C     51  50  47     1.369663596873   121.24747154   180.54768960
 C     57  51  50     1.405908024125   119.78121458   359.46720031
 C     58  57  51     1.405461086939   118.30435621     0.23135120
 C     59  58  57     1.379621746204   122.11117687     0.22965584
 C     58  57  51     1.436284522161   122.42322359   181.28278845
 C     61  58  57     1.357870743333   126.49771911   355.81670187
 C     62  61  58     1.409405201424   123.88095455   177.46785951
 C     63  62  61     1.368312954919   124.35220118   180.38374044
 C     64  63  62     1.420225047801   126.96451616   177.35951520
 C     65  64  63     1.357860177264   114.55983610   180.66342109
 C     66  65  64     1.417584687206   114.14367893   359.17690578
 S     67  66  65     1.753458519241   110.00035387     0.91588970
 C     67  66  65     1.372065720328   127.76462635   183.31913157
 C     69  67  66     1.423801986022   127.34182607   358.80177892
 C     70  69  67     1.350410649321   114.37674733   175.35424758
 C     71  70  69     1.434988990271   114.38560745     0.12115686
 S     69  67  66     1.752359546240   122.48756873   176.01332533
 C     72  71  70     1.338814952299   127.91334108   182.70994519
 H      1   2   3     1.075711558226   120.68456959     0.00000000
 H      1   2   3     1.074447537016   121.77396140   179.89487418
 H      3   2   1     1.075802473040   120.56122361   359.97467338
 H      4   3   2     1.076039559775   124.30211761   179.72514603
 H      8   7   5     1.075768028759   121.67900055   357.29624266
 H      9   8   7     1.076349929577   124.45780438   181.14402493
 H     12  10   9     1.084511885412   114.89961578   359.27271248
 H     14  13  12     1.079081354857   118.69297035     1.43631515
 H     17  16  15     1.079957751859   120.58570465   179.66336806
 H     18  17  16     1.078303182273   119.05437014   178.54532799
 H     22  21  15     1.090980082815   108.98052379   297.69453651
 H     22  21  15     1.092384641827   108.57805640   179.62199173
 H     23  22  21     1.087166121989   110.58158929   299.88945937
 H     23  22  21     1.087688683953   110.10188969   180.27653377
 H     23  22  21     1.087799357648   110.74937912    60.30692248
 H     24  21  15     1.093516601200   107.78825989   300.54906207
 H     24  21  15     1.092404380163   107.45912406   185.00448610
 H     25  24  21     1.086101552895   110.96376432   294.18908409
 H     25  24  21     1.088124207708   109.22880142   175.24164984
 H     25  24  21     1.086509610680   111.65863684    56.08137686
 H     26  20  19     1.078695471252   119.87966598   180.03411524
 H     28  27  26     1.081197098313   118.56248293   180.49932683
 H     29  28  27     1.080139750819   120.47002462   179.50531908
 H     30  27  26     1.083317061298   116.17686353   179.71072248
 H     31  30  27     1.082018887312   118.94208480     1.77733844
 H     32  31  30     1.081445599695   119.69872072   359.93415863
 H     34  33  32     1.076307403905   121.15388245   359.61337312
 H     35  34  33     1.076072972851   124.38505853   179.98882915
 H     39  38  36     1.076069532001   121.74090382     1.85313934
 H     40  39  38     1.076360035815   124.15112097   180.16840849
 H     43  41  40     1.083102727953   116.55637581     3.16067335
 H     45  44  43     1.076743478968   120.46193040     9.12993549
 H     48  47  46     1.080346149991   120.62231651   181.82035268
 H     49  48  47     1.081124733599   119.49517094   177.91407662
 H     53  52  46     1.091997293495   108.57969086   295.44159022
 H     53  52  46     1.092176530420   108.76532624   178.37786752
 H     54  53  52     1.087901491772   110.61039084   300.31710771
 H     54  53  52     1.087690700889   110.18539822   180.37814887
 H     54  53  52     1.087924193361   110.68166185    60.42941103
 H     55  52  46     1.091196835314   108.40923028   184.56720357
 H     55  52  46     1.092249444449   108.67597881    67.18757527
 H     56  55  52     1.087946740241   110.73627749   300.51953558
 H     56  55  52     1.087372267165   110.10596408   180.51937318
 H     56  55  52     1.087441641699   110.63271547    60.88288206
 H     57  51  50     1.079055236445   120.02888058   180.40612778
 H     59  58  57     1.081278852748   118.52145923   180.11920156
 H     60  59  58     1.080235966306   120.39812121   179.82928106
 H     61  58  57     1.083804024121   115.67175774   175.36266875
 H     62  61  58     1.081790208220   120.45918052   358.28458777
 H     63  62  61     1.082588714148   118.26194278   359.16456219
 H     65  64  63     1.076357740066   120.98276557     0.30326632
 H     66  65  64     1.075395021608   124.29690067   179.85977325
 H     70  69  67     1.076171868291   121.32556660   356.48805593
 H     71  70  69     1.075530899696   124.98389490   181.70854002
 H     74  72  71     1.075483132597   120.57694067   359.71977391
 H     74  72  71     1.074697648644   121.65153177   179.11340067

---------------------------
INTERNAL COORDINATES (A.U.)
---------------------------
 C      0   0   0     0.000000000000     0.00000000     0.00000000
 C      1   0   0     2.531365773565     0.00000000     0.00000000
 C      2   1   0     2.712755539649   127.74985260     0.00000000
 C      3   2   1     2.552228087596   114.50953344   180.04179262
 C      4   3   2     2.689777409810   114.47816399     0.03863538
 S      5   4   3     3.320515146953   110.05717034   359.88829443
 C      5   4   3     2.588878493043   127.73795392   180.65283751
 C      7   5   4     2.684071423999   128.08430890     2.85026321
 C      8   7   5     2.558356530943   113.96631976   176.29539044
 C      9   8   7     2.697949479172   114.87584906   359.55873268
 S      7   5   4     3.314298183646   121.91416056   181.28907785
 C     10   9   8     2.570262167809   124.21733133   187.22769537
 C     12  10   9     2.706144990752   129.91367393   174.69340314
 C     13  12  10     2.661600734144   117.46432358   197.85296347
 C     14  13  12     2.589048883848   120.10536358   179.11097036
 C     15  14  13     2.662607986276   120.20090499   359.18456885
 C     16  15  14     2.624189753683   120.30267923     0.97087309
 C     17  16  15     2.604507998231   119.23175688   359.72220958
 C     16  15  14     2.728142512139   108.74114948   181.29429443
 C     19  16  15     2.657747457210   108.47319414     0.54150789
 C     15  14  13     2.856338577562   129.18755856   180.64357335
 C     21  15  14     2.904721061615   111.52277160    59.08073160
 C     22  21  15     2.879383167080   112.62746244    58.44770380
 C     21  15  14     2.920770616089   112.77687763   292.61571360
 C     24  21  15     2.878747517946   116.32947276    62.74764841
 C     20  19  16     2.589639351631   120.89096872   181.19759438
 C     26  20  19     2.659660917101   119.93942563     0.29662352
 C     27  26  20     2.656056317132   118.30949483   358.70682020
 C     28  27  26     2.605489090520   121.97476911     1.12342814
 C     27  26  20     2.716473459460   122.50184840   177.20152953
 C     30  27  26     2.565232683639   125.14316931   358.06644201
 C     31  30  27     2.661623292087   126.46407839   182.78422132
 C     32  31  30     2.592229955901   121.60742405   179.07657870
 C     33  32  31     2.678838419301   129.51770577   181.61927186
 C     34  33  32     2.576735406276   114.60415750   179.55657062
 C     35  34  33     2.668666996778   113.95638833     0.43713029
 S     36  35  34     3.309432952209   110.08443352   359.46983059
 C     36  35  34     2.604942729363   131.23167956   178.44178874
 C     38  36  35     2.670816103854   131.61601282     1.92289742
 C     39  38  36     2.571520380715   113.91796149   181.37340894
 C     40  39  38     2.694215902452   115.03167682     0.21627043
 S     38  36  35     3.305835087168   118.39053909   183.55929910
 C     41  40  39     2.579203162011   126.88609957   183.27530850
 C     43  41  40     2.712395547368   126.46253160   178.50866013
 C     44  43  41     2.654328488324   121.65724421    22.36435911
 C     45  44  43     2.585206252230   119.99958459   187.65617934
 C     46  45  44     2.656770153161   121.25499191   357.45662981
 C     47  46  45     2.628788202066   119.37032100   358.23594979
 C     48  47  46     2.608249940733   119.19119039     2.97020512
 C     47  46  45     2.733746942634   108.18264653   178.20612378
 C     50  47  46     2.662373197354   108.50993834   359.17657785
 C     46  45  44     2.847378113278   127.51978345   174.66762523
 C     52  46  45     2.907963162344   112.01384428    63.27006714
 C     53  52  46     2.879477657111   112.69621207    56.82981107
 C     52  46  45     2.911311533499   110.54760850   300.79281024
 C     55  52  46     2.878923589687   112.92718130   305.89596345
 C     51  50  47     2.588289093692   121.24747154   180.54768960
 C     57  51  50     2.656781135079   119.78121458   359.46720031
 C     58  57  51     2.655936546198   118.30435621     0.23135120
 C     59  58  57     2.607107268728   122.11117687     0.22965584
 C     58  57  51     2.714184397275   122.42322359   181.28278845
 C     61  58  57     2.566003830164   126.49771911   355.81670187
 C     62  61  58     2.663389842415   123.88095455   177.46785951
 C     63  62  61     2.585736750294   124.35220118   180.38374044
 C     64  63  62     2.683836388878   126.96451616   177.35951520
 C     65  64  63     2.565983863187   114.55983610   180.66342109
 C     66  65  64     2.678846830459   114.14367893   359.17690578
 S     67  66  65     3.313556388557   110.00035387     0.91588970
 C     67  66  65     2.592828449162   127.76462635   183.31913157
 C     69  67  66     2.690595822515   127.34182607   358.80177892
 C     70  69  67     2.551906295548   114.37674733   175.35424758
 C     71  70  69     2.711736196805   114.38560745     0.12115686
 S     69  67  66     3.311479630557   122.48756873   176.01332533
 C     72  71  70     2.529993603844   127.91334108   182.70994519
 H      1   2   3     2.032800244140   120.68456959     0.00000000
 H      1   2   3     2.030411590227   121.77396140   179.89487418
 H      3   2   1     2.032972048242   120.56122361   359.97467338
 H      4   3   2     2.033420077239   124.30211761   179.72514603
 H      8   7   5     2.032906957983   121.67900055   357.29624266
 H      9   8   7     2.034006591166   124.45780438   181.14402493
 H     12  10   9     2.049430452411   114.89961578   359.27271248
 H     14  13  12     2.039168236900   118.69297035     1.43631515
 H     17  16  15     2.040824387218   120.58570465   179.66336806
 H     18  17  16     2.037697703832   119.05437014   178.54532799
 H     22  21  15     2.061653574084   108.98052379   297.69453651
 H     22  21  15     2.064307805955   108.57805640   179.62199173
 H     23  22  21     2.054446232636   110.58158929   299.88945937
 H     23  22  21     2.055433731637   110.10188969   180.27653377
 H     23  22  21     2.055642874611   110.74937912    60.30692248
 H     24  21  15     2.066446899164   107.78825989   300.54906207
 H     24  21  15     2.064345106005   107.45912406   185.00448610
 H     25  24  21     2.052434488597   110.96376432   294.18908409
 H     25  24  21     2.056256752258   109.22880142   175.24164984
 H     25  24  21     2.053205606059   111.65863684    56.08137686
 H     26  20  19     2.038439022568   119.87966598   180.03411524
 H     28  27  26     2.043166412602   118.56248293   180.49932683
 H     29  28  27     2.041168315410   120.47002462   179.50531908
 H     30  27  26     2.047172562058   116.17686353   179.71072248
 H     31  30  27     2.044719368750   118.94208480     1.77733844
 H     32  31  30     2.043636012158   119.69872072   359.93415863
 H     34  33  32     2.033926229292   121.15388245   359.61337312
 H     35  34  33     2.033483218803   124.38505853   179.98882915
 H     39  38  36     2.033476716538   121.74090382     1.85313934
 H     40  39  38     2.034025689188   124.15112097   180.16840849
 H     43  41  40     2.046767530735   116.55637581     3.16067335
 H     45  44  43     2.034750291735   120.46193040     9.12993549
 H     48  47  46     2.041558353319   120.62231651   181.82035268
 H     49  48  47     2.043029663111   119.49517094   177.91407662
 H     53  52  46     2.063575823688   108.57969086   295.44159022
 H     53  52  46     2.063914532390   108.76532624   178.37786752
 H     54  53  52     2.055835880134   110.61039084   300.31710771
 H     54  53  52     2.055437543093   110.18539822   180.37814887
 H     54  53  52     2.055878779919   110.68166185    60.42941103
 H     55  52  46     2.062063176946   108.40923028   184.56720357
 H     55  52  46     2.064052319937   108.67597881    67.18757527
 H     56  55  52     2.055921387347   110.73627749   300.51953558
 H     56  55  52     2.054835790563   110.10596408   180.51937318
 H     56  55  52     2.054966889432   110.63271547    60.88288206
 H     57  51  50     2.039118880255   120.02888058   180.40612778
 H     59  58  57     2.043320906094   118.52145923   180.11920156
 H     60  59  58     2.041350136329   120.39812121   179.82928106
 H     61  58  57     2.048092788430   115.67175774   175.36266875
 H     62  61  58     2.044287227893   120.45918052   358.28458777
 H     63  62  61     2.045796185413   118.26194278   359.16456219
 H     65  64  63     2.034021350851   120.98276557     0.30326632
 H     66  65  64     2.032202076622   124.29690067   179.85977325
 H     70  69  67     2.033670104100   121.32556660   356.48805593
 H     71  70  69     2.032458848995   124.98389490   181.70854002
 H     74  72  71     2.032368582259   120.57694067   359.71977391
 H     74  72  71     2.030884232705   121.65153177   179.11340067

---------------------
BASIS SET INFORMATION
---------------------
There are 3 groups of distinct atoms

 Group   1 Type C   : 7s4p1d contracted to 3s2p1d pattern {511/31/1}
 Group   2 Type S   : 10s7p1d contracted to 4s3p1d pattern {5311/511/1}
 Group   3 Type H   : 4s1p contracted to 2s1p pattern {31/1}

Atom   0C    basis set group =>   1
Atom   1C    basis set group =>   1
Atom   2C    basis set group =>   1
Atom   3C    basis set group =>   1
Atom   4C    basis set group =>   1
Atom   5S    basis set group =>   2
Atom   6C    basis set group =>   1
Atom   7C    basis set group =>   1
Atom   8C    basis set group =>   1
Atom   9C    basis set group =>   1
Atom  10S    basis set group =>   2
Atom  11C    basis set group =>   1
Atom  12C    basis set group =>   1
Atom  13C    basis set group =>   1
Atom  14C    basis set group =>   1
Atom  15C    basis set group =>   1
Atom  16C    basis set group =>   1
Atom  17C    basis set group =>   1
Atom  18C    basis set group =>   1
Atom  19C    basis set group =>   1
Atom  20C    basis set group =>   1
Atom  21C    basis set group =>   1
Atom  22C    basis set group =>   1
Atom  23C    basis set group =>   1
Atom  24C    basis set group =>   1
Atom  25C    basis set group =>   1
Atom  26C    basis set group =>   1
Atom  27C    basis set group =>   1
Atom  28C    basis set group =>   1
Atom  29C    basis set group =>   1
Atom  30C    basis set group =>   1
Atom  31C    basis set group =>   1
Atom  32C    basis set group =>   1
Atom  33C    basis set group =>   1
Atom  34C    basis set group =>   1
Atom  35C    basis set group =>   1
Atom  36S    basis set group =>   2
Atom  37C    basis set group =>   1
Atom  38C    basis set group =>   1
Atom  39C    basis set group =>   1
Atom  40C    basis set group =>   1
Atom  41S    basis set group =>   2
Atom  42C    basis set group =>   1
Atom  43C    basis set group =>   1
Atom  44C    basis set group =>   1
Atom  45C    basis set group =>   1
Atom  46C    basis set group =>   1
Atom  47C    basis set group =>   1
Atom  48C    basis set group =>   1
Atom  49C    basis set group =>   1
Atom  50C    basis set group =>   1
Atom  51C    basis set group =>   1
Atom  52C    basis set group =>   1
Atom  53C    basis set group =>   1
Atom  54C    basis set group =>   1
Atom  55C    basis set group =>   1
Atom  56C    basis set group =>   1
Atom  57C    basis set group =>   1
Atom  58C    basis set group =>   1
Atom  59C    basis set group =>   1
Atom  60C    basis set group =>   1
Atom  61C    basis set group =>   1
Atom  62C    basis set group =>   1
Atom  63C    basis set group =>   1
Atom  64C    basis set group =>   1
Atom  65C    basis set group =>   1
Atom  66C    basis set group =>   1
Atom  67S    basis set group =>   2
Atom  68C    basis set group =>   1
Atom  69C    basis set group =>   1
Atom  70C    basis set group =>   1
Atom  71C    basis set group =>   1
Atom  72S    basis set group =>   2
Atom  73C    basis set group =>   1
Atom  74H    basis set group =>   3
Atom  75H    basis set group =>   3
Atom  76H    basis set group =>   3
Atom  77H    basis set group =>   3
Atom  78H    basis set group =>   3
Atom  79H    basis set group =>   3
Atom  80H    basis set group =>   3
Atom  81H    basis set group =>   3
Atom  82H    basis set group =>   3
Atom  83H    basis set group =>   3
Atom  84H    basis set group =>   3
Atom  85H    basis set group =>   3
Atom  86H    basis set group =>   3
Atom  87H    basis set group =>   3
Atom  88H    basis set group =>   3
Atom  89H    basis set group =>   3
Atom  90H    basis set group =>   3
Atom  91H    basis set group =>   3
Atom  92H    basis set group =>   3
Atom  93H    basis set group =>   3
Atom  94H    basis set group =>   3
Atom  95H    basis set group =>   3
Atom  96H    basis set group =>   3
Atom  97H    basis set group =>   3
Atom  98H    basis set group =>   3
Atom  99H    basis set group =>   3
Atom 100H    basis set group =>   3
Atom 101H    basis set group =>   3
Atom 102H    basis set group =>   3
Atom 103H    basis set group =>   3
Atom 104H    basis set group =>   3
Atom 105H    basis set group =>   3
Atom 106H    basis set group =>   3
Atom 107H    basis set group =>   3
Atom 108H    basis set group =>   3
Atom 109H    basis set group =>   3
Atom 110H    basis set group =>   3
Atom 111H    basis set group =>   3
Atom 112H    basis set group =>   3
Atom 113H    basis set group =>   3
Atom 114H    basis set group =>   3
Atom 115H    basis set group =>   3
Atom 116H    basis set group =>   3
Atom 117H    basis set group =>   3
Atom 118H    basis set group =>   3
Atom 119H    basis set group =>   3
Atom 120H    basis set group =>   3
Atom 121H    basis set group =>   3
Atom 122H    basis set group =>   3
Atom 123H    basis set group =>   3
Atom 124H    basis set group =>   3
Atom 125H    basis set group =>   3
Atom 126H    basis set group =>   3
Atom 127H    basis set group =>   3
Atom 128H    basis set group =>   3
Atom 129H    basis set group =>   3
---------------------------------
AUXILIARY/J BASIS SET INFORMATION
---------------------------------
There are 3 groups of distinct atoms

 Group   1 Type C   : 12s5p4d2f1g contracted to 6s4p3d1f1g pattern {711111/2111/211/2/1}
 Group   2 Type S   : 14s5p5d2f1g contracted to 8s4p3d1f1g pattern {71111111/2111/311/2/1}
 Group   3 Type H   : 5s2p1d contracted to 3s1p1d pattern {311/2/1}

Atom   0C    basis set group =>   1
Atom   1C    basis set group =>   1
Atom   2C    basis set group =>   1
Atom   3C    basis set group =>   1
Atom   4C    basis set group =>   1
Atom   5S    basis set group =>   2
Atom   6C    basis set group =>   1
Atom   7C    basis set group =>   1
Atom   8C    basis set group =>   1
Atom   9C    basis set group =>   1
Atom  10S    basis set group =>   2
Atom  11C    basis set group =>   1
Atom  12C    basis set group =>   1
Atom  13C    basis set group =>   1
Atom  14C    basis set group =>   1
Atom  15C    basis set group =>   1
Atom  16C    basis set group =>   1
Atom  17C    basis set group =>   1
Atom  18C    basis set group =>   1
Atom  19C    basis set group =>   1
Atom  20C    basis set group =>   1
Atom  21C    basis set group =>   1
Atom  22C    basis set group =>   1
Atom  23C    basis set group =>   1
Atom  24C    basis set group =>   1
Atom  25C    basis set group =>   1
Atom  26C    basis set group =>   1
Atom  27C    basis set group =>   1
Atom  28C    basis set group =>   1
Atom  29C    basis set group =>   1
Atom  30C    basis set group =>   1
Atom  31C    basis set group =>   1
Atom  32C    basis set group =>   1
Atom  33C    basis set group =>   1
Atom  34C    basis set group =>   1
Atom  35C    basis set group =>   1
Atom  36S    basis set group =>   2
Atom  37C    basis set group =>   1
Atom  38C    basis set group =>   1
Atom  39C    basis set group =>   1
Atom  40C    basis set group =>   1
Atom  41S    basis set group =>   2
Atom  42C    basis set group =>   1
Atom  43C    basis set group =>   1
Atom  44C    basis set group =>   1
Atom  45C    basis set group =>   1
Atom  46C    basis set group =>   1
Atom  47C    basis set group =>   1
Atom  48C    basis set group =>   1
Atom  49C    basis set group =>   1
Atom  50C    basis set group =>   1
Atom  51C    basis set group =>   1
Atom  52C    basis set group =>   1
Atom  53C    basis set group =>   1
Atom  54C    basis set group =>   1
Atom  55C    basis set group =>   1
Atom  56C    basis set group =>   1
Atom  57C    basis set group =>   1
Atom  58C    basis set group =>   1
Atom  59C    basis set group =>   1
Atom  60C    basis set group =>   1
Atom  61C    basis set group =>   1
Atom  62C    basis set group =>   1
Atom  63C    basis set group =>   1
Atom  64C    basis set group =>   1
Atom  65C    basis set group =>   1
Atom  66C    basis set group =>   1
Atom  67S    basis set group =>   2
Atom  68C    basis set group =>   1
Atom  69C    basis set group =>   1
Atom  70C    basis set group =>   1
Atom  71C    basis set group =>   1
Atom  72S    basis set group =>   2
Atom  73C    basis set group =>   1
Atom  74H    basis set group =>   3
Atom  75H    basis set group =>   3
Atom  76H    basis set group =>   3
Atom  77H    basis set group =>   3
Atom  78H    basis set group =>   3
Atom  79H    basis set group =>   3
Atom  80H    basis set group =>   3
Atom  81H    basis set group =>   3
Atom  82H    basis set group =>   3
Atom  83H    basis set group =>   3
Atom  84H    basis set group =>   3
Atom  85H    basis set group =>   3
Atom  86H    basis set group =>   3
Atom  87H    basis set group =>   3
Atom  88H    basis set group =>   3
Atom  89H    basis set group =>   3
Atom  90H    basis set group =>   3
Atom  91H    basis set group =>   3
Atom  92H    basis set group =>   3
Atom  93H    basis set group =>   3
Atom  94H    basis set group =>   3
Atom  95H    basis set group =>   3
Atom  96H    basis set group =>   3
Atom  97H    basis set group =>   3
Atom  98H    basis set group =>   3
Atom  99H    basis set group =>   3
Atom 100H    basis set group =>   3
Atom 101H    basis set group =>   3
Atom 102H    basis set group =>   3
Atom 103H    basis set group =>   3
Atom 104H    basis set group =>   3
Atom 105H    basis set group =>   3
Atom 106H    basis set group =>   3
Atom 107H    basis set group =>   3
Atom 108H    basis set group =>   3
Atom 109H    basis set group =>   3
Atom 110H    basis set group =>   3
Atom 111H    basis set group =>   3
Atom 112H    basis set group =>   3
Atom 113H    basis set group =>   3
Atom 114H    basis set group =>   3
Atom 115H    basis set group =>   3
Atom 116H    basis set group =>   3
Atom 117H    basis set group =>   3
Atom 118H    basis set group =>   3
Atom 119H    basis set group =>   3
Atom 120H    basis set group =>   3
Atom 121H    basis set group =>   3
Atom 122H    basis set group =>   3
Atom 123H    basis set group =>   3
Atom 124H    basis set group =>   3
Atom 125H    basis set group =>   3
Atom 126H    basis set group =>   3
Atom 127H    basis set group =>   3
Atom 128H    basis set group =>   3
Atom 129H    basis set group =>   3


           ************************************************************
           *        Program running with 6 parallel MPI-processes     *
           *              working on a common directory               *
           ************************************************************
------------------------------------------------------------------------------
                           ORCA GTO INTEGRAL CALCULATION
                           -- RI-GTO INTEGRALS CHOSEN --
------------------------------------------------------------------------------

                         BASIS SET STATISTICS AND STARTUP INFO

Gaussian basis set:
 # of primitive gaussian shells          ... 1204
 # of primitive gaussian functions       ... 2240
 # of contracted shells                  ...  624
 # of contracted basis functions         ... 1340
 Highest angular momentum                ...    2
 Maximum contraction depth               ...    5
Auxiliary gaussian basis set:
 # of primitive gaussian shells          ... 2242
 # of primitive gaussian functions       ... 6118
 # of contracted shells                  ... 1402
 # of contracted aux-basis functions     ... 4254
 Highest angular momentum                ...    4
 Maximum contraction depth               ...    7
Ratio of auxiliary to basis functions    ...  3.17
Integral package used                  ... LIBINT
 One Electron integrals                  ... done
 Ordering auxiliary basis shells         ... done
 Integral threshhold             Thresh  ...  2.500e-11
 Primitive cut-off               TCut    ...  2.500e-12
 Pre-screening matrix                    ... done
 Shell pair data                         ... 
 Ordering of the shell pairs             ... done (   0.014 sec) 76435 of 195000 pairs
 Determination of significant pairs      ... done (   0.000 sec)
 Creation of shell pair data             ... done (   0.011 sec)
 Storage of shell pair data              ... done (   0.013 sec)
 Shell pair data done in (   0.039 sec)
 Computing two index integrals           ... done
 Cholesky decomposition of the V-matrix  ... done


Timings:
 Total evaluation time                   ...   3.043 sec (  0.051 min)
 One electron matrix time                ...   0.996 sec (  0.017 min) = 32.7%
 Schwartz matrix evaluation time         ...   0.772 sec (  0.013 min) = 25.4%
 Two index repulsion integral time       ...   0.515 sec (  0.009 min) = 16.9%
 Cholesky decomposition of V             ...   0.706 sec (  0.012 min) = 23.2%
 Three index repulsion integral time     ...   0.000 sec (  0.000 min) =  0.0%



           ************************************************************
           *        Program running with 6 parallel MPI-processes     *
           *              working on a common directory               *
           ************************************************************
-------------------------------------------------------------------------------
                                 ORCA SCF
-------------------------------------------------------------------------------

------------
SCF SETTINGS
------------
Hamiltonian:
 Density Functional     Method          .... DFT(GTOs)
 Exchange Functional    Exchange        .... WB88
 Correlation Functional Correlation     .... LYP
 LDA part of GGA corr.  LDAOpt          .... VWN-5
 Gradients option       PostSCFGGA      .... off
 Hybrid DFT is turned on
   Fraction HF Exchange ScalHFX         ....  0.190000
   Scaling of DF-GGA-X  ScalDFX         ....  0.350000
   Scaling of DF-GGA-C  ScalDFC         ....  0.810000
   Scaling of DF-LDA-C  ScalLDAC        ....  1.000000
   Perturbative correction              ....  0.000000
   Density functional embedding theory  .... OFF
 Long-range corrected/Screened/Range-Separated Hybrid DFT is turned on
   Amount of maximum screened exact exchange              ....  0.460000
   Range separation parameter mu (erf(mu*r12)/r12)        ....  0.330000
 RI-approximation to the Coulomb term is turned on
   Number of auxiliary basis functions  .... 4254
   RIJ-COSX (HFX calculated with COS-X)).... on


General Settings:
 Integral files         IntName         .... xtbopt
 Hartree-Fock type      HFTyp           .... RHF
 Total Charge           Charge          ....    0
 Multiplicity           Mult            ....    1
 Number of Electrons    NEL             ....  560
 Basis Dimension        Dim             .... 1340
 Nuclear Repulsion      ENuc            ....  12986.4786022103 Eh

Convergence Acceleration:
 DIIS                   CNVDIIS         .... on
   Start iteration      DIISMaxIt       ....    12
   Startup error        DIISStart       ....  0.200000
   # of expansion vecs  DIISMaxEq       ....     5
   Bias factor          DIISBfac        ....   1.050
   Max. coefficient     DIISMaxC        ....  10.000
 Newton-Raphson         CNVNR           .... off
 SOSCF                  CNVSOSCF        .... on
   Start iteration      SOSCFMaxIt      ....   150
   Startup grad/error   SOSCFStart      ....  0.003300
 Level Shifting         CNVShift        .... on
   Level shift para.    LevelShift      ....    0.2500
   Turn off err/grad.   ShiftErr        ....    0.0010
 Zerner damping         CNVZerner       .... off
 Static damping         CNVDamp         .... on
   Fraction old density DampFac         ....    0.7000
   Max. Damping (<1)    DampMax         ....    0.9800
   Min. Damping (>=0)   DampMin         ....    0.0000
   Turn off err/grad.   DampErr         ....    0.1000
 Fernandez-Rico         CNVRico         .... off

SCF Procedure:
 Maximum # iterations   MaxIter         ....   125
 SCF integral mode      SCFMode         .... Direct
   Integral package                     .... LIBINT
 Reset frequency        DirectResetFreq ....    20
 Integral Threshold     Thresh          ....  2.500e-11 Eh
 Primitive CutOff       TCut            ....  2.500e-12 Eh

Convergence Tolerance:
 Convergence Check Mode ConvCheckMode   .... Total+1el-Energy
 Convergence forced     ConvForced      .... 1
 Energy Change          TolE            ....  1.000e-08 Eh
 1-El. energy change                    ....  1.000e-05 Eh
 Orbital Gradient       TolG            ....  1.000e-05
 Orbital Rotation angle TolX            ....  1.000e-05
 DIIS Error             TolErr          ....  5.000e-07


Diagonalization of the overlap matrix:
Smallest eigenvalue                        ... 1.935e-04
Time for diagonalization                   ...    0.254 sec
Threshold for overlap eigenvalues          ... 1.000e-08
Number of eigenvalues below threshold      ... 0
Time for construction of square roots      ...    0.187 sec
Total time needed                          ...    0.445 sec

-------------------
DFT GRID GENERATION
-------------------

General Integration Accuracy     IntAcc      ...  4.670
Radial Grid Type                 RadialGrid  ... Gauss-Chebyshev
Angular Grid (max. acc.)         AngularGrid ... Lebedev-302
Angular grid pruning method      GridPruning ... 3 (G Style)
Weight generation scheme         WeightScheme... Becke
Basis function cutoff            BFCut       ...    1.0000e-11
Integration weight cutoff        WCut        ...    1.0000e-14
Grids for H and He will be reduced by one unit

# of grid points (after initial pruning)     ... 653556 (   0.0 sec)
# of grid points (after weights+screening)   ... 544150 (   8.2 sec)
nearest neighbour list constructed           ...    0.0 sec
Grid point re-assignment to atoms done       ...    0.1 sec
Grid point division into batches done        ...    1.4 sec
Reduced shell lists constructed in    3.0 sec

Total number of grid points                  ...   544150
Total number of batches                      ...     8564
Average number of points per batch           ...       63
Average number of grid points per atom       ...     4186
Average number of shells per batch           ...   139.84 (22.41%)
Average number of basis functions per batch  ...   276.81 (20.66%)
Average number of large shells per batch     ...    81.04 (57.96%)
Average number of large basis fcns per batch ...   164.72 (59.51%)
Maximum spatial batch extension              ...  18.84, 13.68, 20.78 au
Average spatial batch extension              ...   0.25,  0.24,  0.26 au

Time for grid setup =   11.703 sec

------------------------------
INITIAL GUESS: MODEL POTENTIAL
------------------------------
Loading Hartree-Fock densities                     ... done
Calculating cut-offs                               ... done
Setting up the integral package                    ... done
Initializing the effective Hamiltonian             ... done
Starting the Coulomb interaction                   ... done (   2.4 sec)
Reading the grid                                   ... done
Mapping shells                                     ... done
Starting the XC term evaluation                    ... done (   1.8 sec)
  promolecular density results
     # of electrons  =    559.971324331
     EX              =   -514.190387236
     EC              =    -19.401174340
     EX+EC           =   -533.591561576
Transforming the Hamiltonian                       ... done (   0.1 sec)
Diagonalizing the Hamiltonian                      ... done (   0.3 sec)
Back transforming the eigenvectors                 ... done (   0.1 sec)
Now organizing SCF variables                       ... done
                      ------------------
                      INITIAL GUESS DONE (  16.5 sec)
                      ------------------
--------------------
COSX GRID GENERATION
--------------------

General Integration Accuracy     IntAcc      ...  3.340
Radial Grid Type                 RadialGrid  ... Gauss-Chebyshev
Angular Grid (max. acc.)         AngularGrid ... Lebedev-50
Angular grid pruning method      GridPruning ... 3 (G Style)
Weight generation scheme         WeightScheme... Becke
Basis function cutoff            BFCut       ...    1.0000e-11
Integration weight cutoff        WCut        ...    1.0000e-14
Grids for H and He will be reduced by one unit

# of grid points (after initial pruning)     ...  61596 (   0.0 sec)
# of grid points (after weights+screening)   ...  53724 (   0.8 sec)
nearest neighbour list constructed           ...    0.0 sec
Grid point re-assignment to atoms done       ...    0.0 sec
Grid point division into batches done        ...    0.0 sec
Reduced shell lists constructed in    0.2 sec

Total number of grid points                  ...    53724
Total number of batches                      ...      912
Average number of points per batch           ...       58
Average number of grid points per atom       ...      413
Average number of shells per batch           ...   157.54 (25.25%)
Average number of basis functions per batch  ...   315.45 (23.54%)
Average number of large shells per batch     ...    90.71 (57.58%)
Average number of large basis fcns per batch ...   187.26 (59.36%)
Maximum spatial batch extension              ...  12.60,  8.64, 16.14 au
Average spatial batch extension              ...   0.50,  0.49,  0.59 au

Overlap Fitting                  UseSFitting ... on
Constructing numerical overlap ... done (      0.1 sec)
Inverting numerical overlap    ... done (      0.1 sec)
Obtaining analytic overlap     ... done (      0.0 sec)
Final contraction and storage  ... done (      0.1 sec)


General Integration Accuracy     IntAcc      ...  3.670
Radial Grid Type                 RadialGrid  ... Gauss-Chebyshev
Angular Grid (max. acc.)         AngularGrid ... Lebedev-50
Angular grid pruning method      GridPruning ... 3 (G Style)
Weight generation scheme         WeightScheme... Becke
Basis function cutoff            BFCut       ...    1.0000e-11
Integration weight cutoff        WCut        ...    1.0000e-14
Grids for H and He will be reduced by one unit

# of grid points (after initial pruning)     ...  77644 (   0.0 sec)
# of grid points (after weights+screening)   ...  67393 (   0.9 sec)
nearest neighbour list constructed           ...    0.0 sec
Grid point re-assignment to atoms done       ...    0.0 sec
Grid point division into batches done        ...    0.0 sec
Reduced shell lists constructed in    0.2 sec

Total number of grid points                  ...    67393
Total number of batches                      ...     1106
Average number of points per batch           ...       60
Average number of grid points per atom       ...      518
Average number of shells per batch           ...   158.67 (25.43%)
Average number of basis functions per batch  ...   317.10 (23.66%)
Average number of large shells per batch     ...    91.08 (57.40%)
Average number of large basis fcns per batch ...   187.32 (59.07%)
Maximum spatial batch extension              ...  13.84, 10.05, 18.01 au
Average spatial batch extension              ...   0.48,  0.47,  0.59 au

Overlap Fitting                  UseSFitting ... on
Constructing numerical overlap ... done (      0.1 sec)
Inverting numerical overlap    ... done (      0.1 sec)
Obtaining analytic overlap     ... done (      0.0 sec)
Final contraction and storage  ... done (      0.1 sec)


General Integration Accuracy     IntAcc      ...  4.010
Radial Grid Type                 RadialGrid  ... Gauss-Chebyshev
Angular Grid (max. acc.)         AngularGrid ... Lebedev-110
Angular grid pruning method      GridPruning ... 3 (G Style)
Weight generation scheme         WeightScheme... Becke
Basis function cutoff            BFCut       ...    1.0000e-11
Integration weight cutoff        WCut        ...    1.0000e-14
Grids for H and He will be reduced by one unit

# of grid points (after initial pruning)     ... 147024 (   0.0 sec)
# of grid points (after weights+screening)   ... 126697 (   2.0 sec)
nearest neighbour list constructed           ...    0.0 sec
Grid point re-assignment to atoms done       ...    0.0 sec
Grid point division into batches done        ...    0.1 sec
Reduced shell lists constructed in    0.5 sec

Total number of grid points                  ...   126697
Total number of batches                      ...     2042
Average number of points per batch           ...       62
Average number of grid points per atom       ...      975
Average number of shells per batch           ...   149.92 (24.03%)
Average number of basis functions per batch  ...   299.18 (22.33%)
Average number of large shells per batch     ...    87.20 (58.16%)
Average number of large basis fcns per batch ...   179.04 (59.84%)
Maximum spatial batch extension              ...  19.65, 10.41, 20.79 au
Average spatial batch extension              ...   0.41,  0.39,  0.47 au

Overlap Fitting                  UseSFitting ... on
Constructing numerical overlap ... done (      0.2 sec)
Inverting numerical overlap    ... done (      0.1 sec)
Obtaining analytic overlap     ... done (      0.0 sec)
Final contraction and storage  ... done (      0.1 sec)

Time for X-Grid setup             =    6.075 sec
--------------
SCF ITERATIONS
--------------
ITER       Energy         Delta-E        Max-DP      RMS-DP      [F,P]     Damp
               ***  Starting incremental Fock matrix formation  ***
  0  -5008.4014845093   0.000000000000 0.10773352  0.00081383  0.1585229 0.7000
  1  -5008.9981800895  -0.596695580114 0.06446794  0.00059862  0.0915385 0.7000
                               ***Turning on DIIS***
  2  -5009.2955274001  -0.297347310652 0.11578637  0.00118165  0.0435081 0.0000
  3  -5009.7455979421  -0.450070541960 0.04178226  0.00044329  0.0404396 0.0000
  4  -5009.8408724208  -0.095274478776 0.00818362  0.00012139  0.0087575 0.0000
  5  -5009.8463220723  -0.005449651448 0.00418578  0.00006311  0.0039447 0.0000
  6  -5009.8481189978  -0.001796925497 0.00283825  0.00004020  0.0015630 0.0000
  7  -5009.8490724661  -0.000953468325 0.00208207  0.00003125  0.0011203 0.0000
                      *** Initiating the SOSCF procedure ***
                           *** Shutting down DIIS ***
                      *** Re-Reading the Fockian *** 
                      *** Removing any level shift *** 
ITER      Energy       Delta-E        Grad      Rot      Max-DP    RMS-DP
  8  -5009.84964099  -0.0005685197  0.003028  0.003028  0.003617  0.000056
               *** Restarting incremental Fock matrix formation ***
  9  -5009.85007333  -0.0004323407  0.000480  0.002730  0.001319  0.000015
 10  -5009.85008888  -0.0000155544  0.000351  0.002153  0.000919  0.000010
 11  -5009.85011480  -0.0000259203  0.000087  0.000751  0.000440  0.000005
 12  -5009.85011531  -0.0000005126  0.000062  0.000156  0.000177  0.000002
 13  -5009.85011662  -0.0000013049  0.000017  0.000093  0.000117  0.000001
 14  -5009.85011660   0.0000000172  0.000015  0.000032  0.000059  0.000001
 15  -5009.85011668  -0.0000000749  0.000004  0.000041  0.000020  0.000000
 16  -5009.85011670  -0.0000000217  0.000004  0.000019  0.000009  0.000000
                  ***Gradient check signals convergence***
              ***Rediagonalizing the Fockian in SOSCF/NRSCF***

               *****************************************************
               *                     SUCCESS                       *
               *           SCF CONVERGED AFTER  17 CYCLES          *
               *****************************************************

Setting up the final grid:

General Integration Accuracy     IntAcc      ...  5.010
Radial Grid Type                 RadialGrid  ... Gauss-Chebyshev
Angular Grid (max. acc.)         AngularGrid ... Lebedev-434
Angular grid pruning method      GridPruning ... 3 (G Style)
Weight generation scheme         WeightScheme... Becke
Basis function cutoff            BFCut       ...    1.0000e-11
Integration weight cutoff        WCut        ...    1.0000e-14
Grids for H and He will be reduced by one unit

# of grid points (after initial pruning)     ... 1172656 (   0.1 sec)
# of grid points (after weights+screening)   ... 972952 (  14.1 sec)
nearest neighbour list constructed           ...    0.0 sec
Grid point re-assignment to atoms done       ...    0.2 sec
Grid point division into batches done        ...    4.9 sec
Reduced shell lists constructed in    7.4 sec

Total number of grid points                  ...   972952
Total number of batches                      ...    15273
Average number of points per batch           ...       63
Average number of grid points per atom       ...     7484
Average number of shells per batch           ...   137.05 (21.96%)
Average number of basis functions per batch  ...   269.81 (20.14%)
Average number of large shells per batch     ...    78.93 (57.59%)
Average number of large basis fcns per batch ...   159.65 (59.17%)
Maximum spatial batch extension              ...  21.47, 14.69, 21.75 au
Average spatial batch extension              ...   0.20,  0.20,  0.21 au

Final grid set up in   22.4 sec
Final integration                            ... done (   4.0 sec)
Change in XC energy                          ...    -0.000021232
Integrated number of electrons               ...   559.999101571
Previous integrated no of electrons          ...   559.999534328
Old exchange energy                            =   -143.082084816 Eh
New exchange energy                            =   -143.080626435 Eh
Exchange energy change after final integration =      0.001458381 Eh
Total energy after final integration           =  -5009.848679536 Eh
Final COS-X integration done in                =    90.881 sec

----------------
TOTAL SCF ENERGY
----------------

Total Energy       :        -5009.84867954 Eh         -136324.91319 eV

Components:
Nuclear Repulsion  :        12986.47860221 Eh          353380.04826 eV
Electronic Energy  :       -17996.32728175 Eh         -489704.96146 eV
One Electron Energy:       -32737.19633623 Eh         -890824.40095 eV
Two Electron Energy:        14740.86905449 Eh          401119.43949 eV

Virial components:
Potential Energy   :        -9987.37150686 Eh         -271770.19523 eV
Kinetic Energy     :         4977.52282732 Eh          135445.28204 eV
Virial Ratio       :            2.00649437


DFT components:
N(Alpha)           :      279.999550785544 electrons
N(Beta)            :      279.999550785544 electrons
N(Total)           :      559.999101571087 electrons
E(XC)              :     -399.786131609308 Eh       
DFET-embed. en.    :        0.000000000000 Eh       

---------------
SCF CONVERGENCE
---------------

  Last Energy change         ...    1.2622e-08  Tolerance :   1.0000e-08
  Last MAX-Density change    ...    7.1054e-15  Tolerance :   1.0000e-07
  Last RMS-Density change    ...    3.0972e-17  Tolerance :   5.0000e-09
  Last Orbital Gradient      ...    1.6282e-06  Tolerance :   1.0000e-05
  Last Orbital Rotation      ...    1.9544e-05  Tolerance :   1.0000e-05

             **** THE GBW FILE WAS UPDATED (xtbopt.gbw) ****
             **** DENSITY FILE WAS UPDATED (xtbopt.scfp) ****
             **** ENERGY FILE WAS UPDATED (xtbopt.en.tmp) ****
             **** THE GBW FILE WAS UPDATED (xtbopt.gbw) ****
             **** DENSITY FILE WAS UPDATED (xtbopt.scfp) ****
----------------
ORBITAL ENERGIES
----------------

  NO   OCC          E(Eh)            E(eV) 
   0   2.0000     -88.935719     -2420.0640 
   1   2.0000     -88.933881     -2420.0139 
   2   2.0000     -88.933406     -2420.0010 
   3   2.0000     -88.932714     -2419.9822 
   4   2.0000     -88.932055     -2419.9642 
   5   2.0000     -88.928719     -2419.8735 
   6   2.0000     -10.301242      -280.3110 
   7   2.0000     -10.300628      -280.2943 
   8   2.0000     -10.300593      -280.2934 
   9   2.0000     -10.300408      -280.2883 
  10   2.0000     -10.299546      -280.2649 
  11   2.0000     -10.298059      -280.2244 
  12   2.0000     -10.297226      -280.2018 
  13   2.0000     -10.297154      -280.1998 
  14   2.0000     -10.296751      -280.1888 
  15   2.0000     -10.296178      -280.1732 
  16   2.0000     -10.294324      -280.1228 
  17   2.0000     -10.293903      -280.1113 
  18   2.0000     -10.284304      -279.8501 
  19   2.0000     -10.280793      -279.7546 
  20   2.0000     -10.279760      -279.7265 
  21   2.0000     -10.279736      -279.7258 
  22   2.0000     -10.278462      -279.6912 
  23   2.0000     -10.278004      -279.6787 
  24   2.0000     -10.277715      -279.6709 
  25   2.0000     -10.277368      -279.6614 
  26   2.0000     -10.276947      -279.6499 
  27   2.0000     -10.275208      -279.6026 
  28   2.0000     -10.274907      -279.5944 
  29   2.0000     -10.271188      -279.4932 
  30   2.0000     -10.270393      -279.4716 
[...]
  21   4.053     305.9   0.021875   0.019719  -17.995701  -12.899699     0.24 (  92-> 103)    0.09 (  89-> 103)    0.09 (  97-> 103)
  22   4.087     303.3   0.003252   0.004118   5.131693   6.502799     0.19 ( 102-> 111)    0.18 ( 100-> 107)    0.07 ( 102-> 114)
  23   4.104     302.1   0.365136   0.356184  -102.896984  -93.650396     0.22 (  98-> 104)    0.15 ( 101-> 107)    0.14 ( 100-> 107)
  24   4.122     300.8   0.002280   0.002184  -5.637498  -6.236578     0.23 (  98-> 105)    0.08 ( 102-> 112)    0.06 ( 101-> 107)
  25   4.168     297.5   0.004897   0.004223  -9.625694  -8.051173     0.11 ( 102-> 110)    0.10 (  98-> 105)    0.09 ( 101-> 108)
  26   4.213     294.3   0.004676   0.004341   6.667188   6.779865     0.11 (  96-> 104)    0.10 (  96-> 103)    0.09 (  96-> 105)
  27   4.234     292.8   0.020362   0.018210  14.864130  14.273736     0.15 (  96-> 104)    0.08 ( 102-> 113)    0.08 ( 102-> 115)
  28   4.246     292.0   0.058341   0.049245  -17.365740  -12.469093     0.17 (  96-> 104)    0.06 ( 102-> 113)    0.06 (  96-> 105)
  29   4.262     290.9   0.068623   0.056500  17.572497  14.634569     0.12 (  96-> 104)    0.09 (  95-> 103)    0.08 (  97-> 104)
  30   4.273     290.1   0.020123   0.017024  -4.652928  -4.859797     0.13 ( 101-> 108)    0.11 (  93-> 103)    0.07 (  97-> 104)
  31   4.287     289.2   0.038468   0.029452  23.124584  19.007875     0.33 (  94-> 103)    0.07 ( 101-> 108)    0.06 ( 102-> 113)
  32   4.338     285.8   0.035027   0.029328  -25.830251  -25.368506     0.15 ( 100-> 108)    0.06 (  93-> 103)    0.06 (  96-> 105)
  33   4.361     284.3   0.071111   0.062952  10.336521   8.987008     0.12 (  97-> 104)    0.08 ( 100-> 108)    0.07 ( 101-> 107)
  34   4.423     280.3   0.017484   0.015158  -2.423572   1.798993     0.13 ( 100-> 116)    0.09 ( 100-> 115)    0.08 ( 102-> 116)
  35   4.469     277.4   0.005128   0.003958  32.933809  32.997863     0.13 (  97-> 103)    0.07 (  97-> 104)    0.07 (  92-> 103)
  36   4.489     276.2   0.022761   0.016885  -5.818751  -6.043714     0.13 ( 101-> 109)    0.10 (  97-> 104)    0.08 ( 101-> 110)
  37   4.568     271.4   0.002527   0.002499  15.263902  14.227861     0.15 (  95-> 103)    0.11 ( 102-> 111)    0.07 (  95-> 104)
  38   4.587     270.3   0.013554   0.013214  15.795076  16.426849     0.28 (  95-> 104)    0.17 (  91-> 104)    0.09 (  93-> 104)
  39   4.611     268.9   0.046441   0.043165  28.629013  21.419693     0.13 (  90-> 103)    0.10 (  87-> 103)    0.08 (  97-> 105)
  40   4.614     268.7   0.007633   0.009463  24.165527  26.218185     0.16 (  97-> 105)    0.16 (  99-> 106)    0.11 (  89-> 103)
  41   4.646     266.8   0.001446   0.001167   7.904010  10.129992     0.08 (  91-> 103)    0.08 (  93-> 103)    0.07 ( 101-> 110)
  42   4.683     264.8   0.128094   0.112911  -100.992713  -94.238277     0.09 (  86-> 103)    0.09 (  89-> 104)    0.09 (  97-> 105)
  43   4.738     261.7   0.045814   0.042463  -1.822734  -4.990259     0.32 (  99-> 106)    0.09 (  93-> 103)    0.08 ( 102-> 112)
  44   4.756     260.7   0.027821   0.023814  -5.462114  -1.089432     0.13 (  99-> 106)    0.11 (  91-> 103)    0.08 ( 101-> 110)
  45   4.764     260.2   0.043597   0.045691  -15.021371  -16.433828     0.08 ( 100-> 109)    0.07 ( 101-> 108)    0.07 ( 102-> 110)
  46   4.788     259.0   0.004714   0.004078  20.947928  17.995455     0.16 ( 101-> 109)    0.11 (  90-> 103)    0.07 ( 102-> 118)
  47   4.814     257.6   0.059557   0.050744  -88.166425  -78.736916     0.11 ( 101-> 110)    0.09 (  90-> 103)    0.06 ( 101-> 111)
  48   4.854     255.4   0.019213   0.013994  10.903903   9.794072     0.12 ( 100-> 109)    0.10 ( 102-> 112)    0.09 ( 101-> 111)
  49   4.920     252.0   0.009621   0.007829  12.426009  14.483021     0.17 (  95-> 104)    0.12 ( 100-> 111)    0.05 ( 101-> 112)
  50   4.954     250.3   0.032803   0.027050  -17.505562  -15.603314     0.21 ( 102-> 113)    0.09 (  94-> 104)    0.09 ( 101-> 110)
  51   4.958     250.1   0.012184   0.010269  -16.648205  -18.780849     0.08 (  88-> 104)    0.05 ( 101-> 112)    0.05 (  97-> 105)
  52   4.993     248.3   0.006698   0.004938  26.773850  23.299399     0.08 (  89-> 104)    0.06 (  95-> 103)    0.05 (  97-> 104)

-----------------------------------------------------------------------------
         ABSORPTION SPECTRUM VIA TRANSITION ELECTRIC DIPOLE MOMENTS
-----------------------------------------------------------------------------
State   Energy  Wavelength   fosc         T2         TX        TY        TZ  
        (cm-1)    (nm)                  (au**2)     (au)      (au)      (au) 
-----------------------------------------------------------------------------
   0   13128.5    761.7   0.166505517   4.17531   1.31448  -0.29225   1.53689
   1   15613.4    640.5   0.250677624   5.28560   0.67954  -1.96623   0.97866
   2   16528.3    605.0   0.607829798  12.10681  -2.67019   0.87900  -2.05043
   3   18556.2    538.9   2.042134233  36.23030  -3.12185   4.16726  -3.01965
   4   19792.8    505.2   0.442897803   7.36669  -0.57293   2.38460  -1.16281
   5   20287.5    492.9   1.057502669  17.16047  -2.37918  -3.33297   0.62550
   6   21155.1    472.7   0.067960385   1.05759   0.79887  -0.58138   0.28528
   7   22673.1    441.1   0.096136878   1.39590  -1.11572   0.38866   0.00133
   8   24355.4    410.6   0.316106837   4.27282   2.04500   0.18972   0.23409
   9   24785.6    403.5   0.043259286   0.57459  -0.73411  -0.18044   0.05581
  10   26424.5    378.4   0.665163065   8.28700   1.27001   2.34353  -1.08716
  11   26782.2    373.4   0.557804685   6.85664   0.46686   2.30227  -1.15681
  12   28265.4    353.8   0.012321020   0.14351   0.26271   0.21768  -0.16464
  13   28821.8    347.0   0.094574006   1.08026   1.00422   0.24916   0.09861
  14   29590.3    337.9   0.011832176   0.13164   0.31245  -0.09284  -0.15936
  15   30326.7    329.7   0.048271843   0.52402   0.61622  -0.16979   0.33979
  16   30798.4    324.7   0.109441790   1.16985   0.15317  -0.93664   0.51874
  17   31092.4    321.6   0.032884298   0.34819  -0.12878   0.47052  -0.33198
  18   31716.6    315.3   0.029102984   0.30208  -0.44738  -0.31615   0.04459
  19   32168.0    310.9   0.004303261   0.04404   0.03148   0.20612  -0.02370
  20   32274.7    309.8   0.011733204   0.11968   0.29076  -0.16398   0.09082
  21   32689.1    305.9   0.021874591   0.22030   0.39123  -0.17181   0.19422
  22   32967.7    303.3   0.003251596   0.03247   0.00844   0.06961  -0.16599
  23   33100.6    302.1   0.365136394   3.63157   1.54388   1.05627  -0.36373
  24   33249.9    300.8   0.002279577   0.02257  -0.13188  -0.03736  -0.06149
  25   33613.2    297.5   0.004896687   0.04796   0.17853   0.12683   0.00008
  26   33976.7    294.3   0.004675862   0.04531   0.10192  -0.18594  -0.01855
  27   34151.9    292.8   0.020362184   0.19628   0.43892  -0.01577   0.05819
  28   34245.5    292.0   0.058341459   0.56085   0.55385   0.44382  -0.23901
  29   34371.7    290.9   0.068623495   0.65727   0.79621   0.05782   0.14138
  30   34465.5    290.1   0.020123306   0.19222  -0.00801   0.41594  -0.13837
  31   34574.4    289.2   0.038468353   0.36629  -0.48145  -0.32568   0.16859
  32   34988.2    285.8   0.035026623   0.32957  -0.56935   0.04513  -0.05813
  33   35171.1    284.3   0.071111277   0.66562  -0.17668  -0.75595   0.25088
  34   35676.1    280.3   0.017483512   0.16133   0.33440   0.16938   0.14431
  35   36046.4    277.4   0.005128096   0.04683  -0.13561  -0.06599   0.15521
  36   36202.3    276.2   0.022760835   0.20698   0.43856   0.11196   0.04592
  37   36842.0    271.4   0.002527451   0.02258  -0.07979   0.02723  -0.12441
  38   36999.6    270.3   0.013553688   0.12060  -0.31896  -0.10661   0.08658
  39   37186.6    268.9   0.046440588   0.41114  -0.33325  -0.54690   0.03128
  40   37211.0    268.7   0.007633390   0.06753  -0.09657  -0.17644   0.16455
  41   37476.4    266.8   0.001445524   0.01270   0.09032   0.06544   0.01608
  42   37768.3    264.8   0.128094370   1.11655   0.85044  -0.44009   0.44679
  43   38216.1    261.7   0.045813832   0.39466   0.36924  -0.35222   0.36642
  44   38356.4    260.7   0.027820685   0.23878   0.19895  -0.33146   0.29889
  45   38427.5    260.2   0.043596867   0.37350  -0.10817  -0.55356   0.23532
  46   38616.3    259.0   0.004714385   0.04019   0.03892   0.17618   0.08739
  47   38823.9    257.6   0.059557485   0.50502   0.56443  -0.34093   0.26498
  48   39148.2    255.4   0.019212993   0.16157   0.21838  -0.10665   0.32016
  49   39680.6    252.0   0.009620866   0.07982   0.08851  -0.10686   0.24610
  50   39959.4    250.3   0.032802684   0.27025   0.43711  -0.15502   0.23485
  51   39988.3    250.1   0.012184231   0.10031  -0.26271   0.02523  -0.17508
  52   40267.8    248.3   0.006698440   0.05476  -0.21104   0.07801  -0.06435

-----------------------------------------------------------------------------
         ABSORPTION SPECTRUM VIA TRANSITION VELOCITY DIPOLE MOMENTS
-----------------------------------------------------------------------------
State   Energy  Wavelength   fosc         P2         PX        PY        PZ  
        (cm-1)    (nm)                  (au**2)     (au)      (au)      (au) 
-----------------------------------------------------------------------------
   0   13128.5    761.7   0.263615093   0.02365   0.10177  -0.02258   0.11308
   1   15613.4    640.5   0.322508165   0.03441   0.05486  -0.15866   0.07894
   2   16528.3    605.0   0.817153137   0.09231  -0.23315   0.07756  -0.17871
   3   18556.2    538.9   2.527305231   0.32052  -0.29957   0.38668  -0.28505
   4   19792.8    505.2   0.503505038   0.06811  -0.05490   0.22934  -0.11180
   5   20287.5    492.9   1.171276649   0.16240  -0.24144  -0.31847   0.05185
   6   21155.1    472.7   0.076869715   0.01111   0.08303  -0.05856   0.02812
   7   22673.1    441.1   0.109088846   0.01690  -0.11912   0.05194  -0.00399
   8   24355.4    410.6   0.344029643   0.05727   0.23661   0.01027   0.03428
   9   24785.6    403.5   0.051418601   0.00871  -0.08940  -0.02532   0.00876
  10   26424.5    378.4   0.682647343   0.12328   0.15570   0.28509  -0.13328
  11   26782.2    373.4   0.563793868   0.10320   0.06140   0.28154  -0.14199
  12   28265.4    353.8   0.012002793   0.00232   0.03244   0.02856  -0.02123
  13   28821.8    347.0   0.090196911   0.01777   0.12740   0.03787   0.01007
  14   29590.3    337.9   0.012168742   0.00246   0.04439  -0.01025  -0.01963
  15   30326.7    329.7   0.049993832   0.01036   0.08513  -0.02456   0.05011
  16   30798.4    324.7   0.112620803   0.02371   0.02179  -0.13278   0.07483
  17   31092.4    321.6   0.028436901   0.00604  -0.02069   0.05981  -0.04514
  18   31716.6    315.3   0.028656077   0.00621  -0.06557  -0.04330   0.00610
  19   32168.0    310.9   0.003853101   0.00085   0.00464   0.02824  -0.00532
  20   32274.7    309.8   0.010271217   0.00227   0.04257  -0.01838   0.01077
  21   32689.1    305.9   0.019719376   0.00441   0.05133  -0.02954   0.02997
  22   32967.7    303.3   0.004117779   0.00093   0.00463   0.01120  -0.02795
  23   33100.6    302.1   0.356184496   0.08058   0.23050   0.15712  -0.05257
  24   33249.9    300.8   0.002183900   0.00050  -0.01969  -0.00349  -0.00982
  25   33613.2    297.5   0.004222704   0.00097   0.02484   0.01878   0.00072
  26   33976.7    294.3   0.004340931   0.00101   0.01630  -0.02711  -0.00277
  27   34151.9    292.8   0.018209693   0.00425   0.06462  -0.00275   0.00816
  28   34245.5    292.0   0.049244916   0.01153   0.08171   0.06250  -0.03069
  29   34371.7    290.9   0.056499717   0.01327   0.11353   0.00795   0.01790
  30   34465.5    290.1   0.017024068   0.00401  -0.00094   0.05992  -0.02045
  31   34574.4    289.2   0.029451675   0.00696  -0.06637  -0.04460   0.02376
  32   34988.2    285.8   0.029328445   0.00701  -0.08327   0.00599  -0.00660
  33   35171.1    284.3   0.062951613   0.01513  -0.03040  -0.11294   0.03810
  34   35676.1    280.3   0.015157655   0.00370   0.04901   0.02479   0.02607
  35   36046.4    277.4   0.003958175   0.00098  -0.01845  -0.00590   0.02449
  36   36202.3    276.2   0.016884909   0.00418   0.06188   0.01795   0.00518
  37   36842.0    271.4   0.002498970   0.00063  -0.01368   0.00477  -0.02048
  38   36999.6    270.3   0.013213877   0.00334  -0.05312  -0.01831   0.01359
  39   37186.6    268.9   0.043164966   0.01097  -0.05288  -0.09008   0.00771
  40   37211.0    268.7   0.009463200   0.00241  -0.01332  -0.03569   0.03091
  41   37476.4    266.8   0.001166807   0.00030   0.01361   0.00989   0.00400
  42   37768.3    264.8   0.112910562   0.02915   0.13728  -0.07108   0.07243
  43   38216.1    261.7   0.042463136   0.01109   0.06372  -0.05608   0.06233
  44   38356.4    260.7   0.023814151   0.00624   0.02922  -0.05481   0.04884
  45   38427.5    260.2   0.045691064   0.01200  -0.01929  -0.09908   0.04256
  46   38616.3    259.0   0.004077946   0.00108   0.01053   0.02649   0.01624
  47   38823.9    257.6   0.050744082   0.01346   0.09256  -0.05454   0.04385
  48   39148.2    255.4   0.013993898   0.00374   0.03248  -0.01821   0.04856
  49   39680.6    252.0   0.007829094   0.00212   0.01045  -0.01908   0.04062
  50   39959.4    250.3   0.027049757   0.00739   0.07313  -0.02336   0.03864
  51   39988.3    250.1   0.010268907   0.00281  -0.04534   0.00329  -0.02720
  52   40267.8    248.3   0.004937802   0.00136  -0.03339   0.01227  -0.00967

-------------------------------------------------------------------
                             CD SPECTRUM
-------------------------------------------------------------------
State   Energy Wavelength       R         MX        MY        MZ   
        (cm-1)   (nm)       (1e40*cgs)   (au)      (au)      (au)  
-------------------------------------------------------------------
   0   13128.5    761.7    975.13071   5.52936  -3.58721  -8.10295
   1   15613.4    640.5    -56.52293  -0.04089   1.09182   2.46700
   2   16528.3    605.0    -212.50049  -3.34105   1.75443   4.66338
   3   18556.2    538.9    -1720.18084  -2.28934  -0.80275  -1.15768
   4   19792.8    505.2    -117.11655  -0.15858  -1.29184  -2.99834
   5   20287.5    492.9    1264.30981  -0.10156   2.96307   6.82755
   6   21155.1    472.7     62.75089  -0.42914   0.47814   1.24299
   7   22673.1    441.1    260.93893   0.79348  -0.56475  -1.64328
   8   24355.4    410.6    -604.74676   1.70955  -0.72385  -3.38837
   9   24785.6    403.5    -13.12761  -0.11368   0.43181   0.89854
  10   26424.5    378.4    109.54818  -0.29316  -1.94870  -4.11570
  11   26782.2    373.4     -1.15149  -0.19265  -1.86469  -3.79306
  12   28265.4    353.8     -2.81497  -0.04177  -0.27214  -0.49899
  13   28821.8    347.0      2.21604   0.05637   0.27795  -1.37173
  14   29590.3    337.9    -12.65367  -0.02057  -0.03138  -0.35890
  15   30326.7    329.7     69.84107   0.05790   1.08253  -0.43603
  16   30798.4    324.7    118.25620   0.05439   1.56299   1.83897
  17   31092.4    321.6     58.81415  -0.15964  -0.73709  -0.23120
  18   31716.6    315.3    -11.41511  -0.39645   0.64060   1.65046
  19   32168.0    310.9     13.08946   0.17370  -0.37064  -0.64967
  20   32274.7    309.8     23.62357  -0.10713   0.39371  -0.04961
  21   32689.1    305.9    -17.99570   0.33647   0.19400  -0.11310
  22   32967.7    303.3      5.13169  -0.19417  -0.27454   0.00614
  23   33100.6    302.1    -102.89698   0.25473  -1.13234  -3.40722
  24   33249.9    300.8     -5.63750  -0.35836   0.27573   0.21213
  25   33613.2    297.5     -9.62569   0.23165  -0.00370  -0.62604
  26   33976.7    294.3      6.66719  -0.22948   0.02805  -0.01724
  27   34151.9    292.8     14.86413  -0.12126   0.38536  -0.06454
  28   34245.5    292.0    -17.36574  -0.24943   0.26080  -0.40194
  29   34371.7    290.9     17.57250  -0.04461   0.45109  -0.46056
  30   34465.5    290.1     -4.65293   0.22493  -0.17087  -0.66929
  31   34574.4    289.2     23.12458   0.19160   0.64883   1.21864
  32   34988.2    285.8    -25.83025  -0.24386   0.20172   0.66004
  33   35171.1    284.3     10.33652   0.06814   0.42395   1.15067
  34   35676.1    280.3     -2.42357   0.21000   0.12151  -0.55800
  35   36046.4    277.4     32.93381   0.60550  -0.60413  -0.62800
  36   36202.3    276.2     -5.81875   0.27601  -0.37127  -1.19340
  37   36842.0    271.4     15.26390  -0.74702   0.40259   1.08774
  38   36999.6    270.3     15.79508   0.23961   0.31688   0.49896
  39   37186.6    268.9     28.62901  -1.32404   1.19106   2.83581
  40   37211.0    268.7     24.16553   0.34701   0.49919   0.11588
  41   37476.4    266.8      7.90401   0.30694  -0.58268  -1.43801
  42   37768.3    264.8    -100.99271   0.86249  -0.60308  -1.27680
  43   38216.1    261.7     -1.82273   0.07955   0.59931   0.51702
  44   38356.4    260.7     -5.46211   0.97009  -0.33874  -0.94384
  45   38427.5    260.2    -15.02137  -0.23354   0.72383   1.86620
  46   38616.3    259.0     20.94793   0.76530  -0.08912  -1.17816
  47   38823.9    257.6    -88.16642   0.97515  -1.05619  -2.02455
  48   39148.2    255.4     10.90390   0.60485   0.00401  -0.55571
  49   39680.6    252.0     12.42601   0.57338   0.01691  -0.41306
  50   39959.4    250.3    -17.50556   0.75173  -0.50213  -1.41438
  51   39988.3    250.1    -16.64820  -0.73202  -0.35833   0.64338
  52   40267.8    248.3     26.77385   0.47166  -0.50220  -0.39054

sTD-DFT done

Total run time:        4.163 sec

           *** ORCA-CIS/TD-DFT FINISHED WITHOUT ERROR ***

-------------------------   --------------------
FINAL SINGLE POINT ENERGY     -5009.848679536313
-------------------------   --------------------


                            ***************************************
                            *     ORCA property calculations      *
                            ***************************************

                                    ---------------------
                                    Active property flags
                                    ---------------------
   (+) Dipole Moment


------------------------------------------------------------------------------
                       ORCA ELECTRIC PROPERTIES CALCULATION
------------------------------------------------------------------------------

Dipole Moment Calculation                       ... on
Quadrupole Moment Calculation                   ... off
Polarizability Calculation                      ... off
GBWName                                         ... xtbopt.gbw
Electron density file                           ... xtbopt.scfp
The origin for moment calculation is the CENTER OF MASS  = ( 7.242169, -13.453806  5.279667)

-------------
DIPOLE MOMENT
-------------
                                X             Y             Z
Electronic contribution:    -14.44449      13.48725     -18.05721
Nuclear contribution   :     14.80301     -13.07304      18.02957
                        -----------------------------------------
Total Dipole Moment    :      0.35852       0.41421      -0.02764
                        -----------------------------------------
Magnitude (a.u.)       :      0.54852
Magnitude (Debye)      :      1.39423



--------------------
Rotational spectrum 
--------------------
 
Rotational constants in cm-1:     0.001461     0.000411     0.000337 
Rotational constants in MHz :    43.812393    12.307780    10.109418 

 Dipole components along the rotational axes: 
x,y,z [a.u.] :    -0.310598     0.452070    -0.005967 
x,y,z [Debye]:    -0.789477     1.149071    -0.015168 

 

Timings for individual modules:

Sum of individual times         ...      903.410 sec (=  15.057 min)
GTO integral calculation        ...        3.700 sec (=   0.062 min)   0.4 %
SCF iterations                  ...      894.880 sec (=  14.915 min)  99.1 %
CIS module                      ...        4.830 sec (=   0.080 min)   0.5 %
                             ****ORCA TERMINATED NORMALLY****
TOTAL RUN TIME: 0 days 0 hours 15 minutes 4 seconds 436 msec
