
                                 *****************
                                 * O   R   C   A *
                                 *****************

           --- An Ab Initio, DFT and Semiempirical electronic structure package ---

                  #######################################################
                  #                        -***-                        #
                  #          Department of theory and spectroscopy      #
                  #               Directorship: Frank Neese             #
                  #        Max Planck Institute fuer Kohlenforschung    #
                  #                Kaiser Wilhelm Platz 1               #
                  #                 D-45470 Muelheim/Ruhr               #
                  #                      Germany                        #
                  #                                                     #
                  #                  All rights reserved                #
                  #                        -***-                        #
                  #######################################################


                         Program Version 4.2.0 -  RELEASE  -


 With contributions from (in alphabetic order):
   Daniel Aravena         : Magnetic Suceptibility
   Michael Atanasov       : Ab Initio Ligand Field Theory (pilot matlab implementation)
   Alexander A. Auer      : GIAO ZORA, VPT2
   Ute Becker             : Parallelization
   Giovanni Bistoni       : ED, misc. LED, open-shell LED, HFLED
   Martin Brehm           : Molecular dynamics
   Dmytro Bykov           : SCF Hessian
   Vijay G. Chilkuri      : MRCI spin determinant printing, contributions to CSF-ICE
   Dipayan Datta          : RHF DLPNO-CCSD density
   Achintya Kumar Dutta   : EOM-CC, STEOM-CC
   Dmitry Ganyushin       : Spin-Orbit,Spin-Spin,Magnetic field MRCI
   Miquel Garcia          : C-PCM Hessian, Gaussian charge scheme
   Yang Guo               : DLPNO-NEVPT2, CIM, IAO-localization
   Andreas Hansen         : Spin unrestricted coupled pair/coupled cluster methods
   Benjamin Helmich-Paris : CASSCF linear response (MC-RPA)
   Lee Huntington         : MR-EOM, pCC
   Robert Izsak           : Overlap fitted RIJCOSX, COSX-SCS-MP3, EOM
   Christian Kollmar      : KDIIS, OOCD, Brueckner-CCSD(T), CCSD density
   Simone Kossmann        : Meta GGA functionals, TD-DFT gradient, OOMP2, MP2 Hessian
   Martin Krupicka        : AUTO-CI
   Lucas Lang             : DCDCAS
   Dagmar Lenk            : GEPOL surface, SMD
   Dimitrios Liakos       : Extrapolation schemes; Compound Job, initial MDCI parallelization
   Dimitrios Manganas     : Further ROCIS development; embedding schemes
   Dimitrios Pantazis     : SARC Basis sets
   Taras Petrenko         : DFT Hessian,TD-DFT gradient, ASA, ECA, R-Raman, ABS, FL, XAS/XES, NRVS
   Peter Pinski           : DLPNO-MP2, DLPNO-MP2 Gradient
   Christoph Reimann      : Effective Core Potentials
   Marius Retegan         : Local ZFS, SOC
   Christoph Riplinger    : Optimizer, TS searches, QM/MM, DLPNO-CCSD(T), (RO)-DLPNO pert. Triples
   Tobias Risthaus        : Range-separated hybrids, TD-DFT gradient, RPA, STAB
   Michael Roemelt        : Original ROCIS implementation
   Masaaki Saitow         : Open-shell DLPNO-CCSD energy and density
   Barbara Sandhoefer     : DKH picture change effects
   Avijit Sen             : IP-ROCIS
   Kantharuban Sivalingam : CASSCF convergence, NEVPT2, FIC-MRCI
   Bernardo de Souza      : ESD, SOC TD-DFT
   Georgi Stoychev        : AutoAux, RI-MP2 NMR
   Willem Van den Heuvel  : Paramagnetic NMR
   Boris Wezisla          : Elementary symmetry handling
   Frank Wennmohs         : Technical directorship


 We gratefully acknowledge several colleagues who have allowed us to
 interface, adapt or use parts of their codes:
   Stefan Grimme, W. Hujo, H. Kruse,             : VdW corrections, initial TS optimization,
                  C. Bannwarth                     DFT functionals, gCP, sTDA/sTD-DF
   Ed Valeev, F. Pavosevic, A. Kumar             : LibInt (2-el integral package), F12 methods
   Garnet Chan, S. Sharma, J. Yang, R. Olivares  : DMRG
   Ulf Ekstrom                                   : XCFun DFT Library
   Mihaly Kallay                                 : mrcc  (arbitrary order and MRCC methods)
   Andreas Klamt, Michael Diedenhofen            : otool_cosmo (COSMO solvation model)
   Jiri Pittner, Ondrej Demel                    : Mk-CCSD
   Frank Weinhold                                : gennbo (NPA and NBO analysis)
   Christopher J. Cramer and Donald G. Truhlar   : smd solvation model
   Lars Goerigk                                  : TD-DFT with DH, B97 family of functionals
   V. Asgeirsson, H. Jonsson                     : NEB implementation
   FAccTs GmbH                                   : IRC, NEB, NEB-TS, Multilevel, MM, QM/MM, CI optimization
   S Lehtola, MJT Oliveira, MAL Marques          : LibXC Library


 Your calculation uses the libint2 library for the computation of 2-el integrals
 For citations please refer to: http://libint.valeyev.net

 Your ORCA version has been built with support for libXC version: 4.2.3
 For citations please refer to: https://tddft.org/programs/libxc/

 This ORCA versions uses:
   CBLAS   interface :  Fast vector & matrix operations
   LAPACKE interface :  Fast linear algebra routines
   SCALAPACK package :  Parallel linear algebra routines


XCFun DFT library Copyright 2009-2010 Ulf Ekstrom and contributors.
See http://admol.org/xcfun for more information. This is free soft-
ware; see the source code for copying conditions. There is ABSOLUTELY
NO WARRANTY; not even for MERCHANTABILITY or FITNESS FOR A PARTICULAR
PURPOSE. For details see the documentation. Scientific users of this 
library should cite U. Ekstrom, L. Visscher, R. Bast, A. J. Thorvald-
sen and K. Ruud; J.Chem.Theor.Comp. 2010, DOI: 10.1021/ct100117s
XCFun Version 0.99 
----- Orbital basis set information -----
Your calculation utilizes the basis: def2-SVP
   F. Weigend and R. Ahlrichs, Phys. Chem. Chem. Phys. 7, 3297 (2005).

----- AuxJ basis set information -----
Your calculation utilizes the auxiliary basis: def2/J
   F. Weigend, Phys. Chem. Chem. Phys. 8, 1057 (2006).

================================================================================
                                        WARNINGS
                       Please study these warnings very carefully!
================================================================================

INFO   : Checking CIS options ...

WARNING: CIS/ROCIS methods need fully converged wavefunctions
  ===> : Setting SCFConvForced true
         You can overwrite this default with %scf ConvForced false 


INFO   : the flag for use of LIBINT has been found!

================================================================================
                                       INPUT FILE
================================================================================
NAME = xtbopt.inp
|  1> # ORCA input file
|  2> # SCF done       -287.534530262898          0.000312364199
|  3> ! CAM-B3LYP def2-SVP def2/J RIJCOSX Grid4 TightSCF
|  4> %maxcore 5000
|  5> %tddft
|  6>     Mode sTDDFT
|  7>     Ethresh 5.0
|  8>     maxcore 5000
|  9> end
| 10> 
| 11> %pal
| 12>   nprocs 6
| 13>   end
| 14> * xyz 0 1
| 15>    C       -1.08851        -2.22239        -6.75504
| 16>    C        0.07825        -1.83674        -7.30954
| 17>    C        1.07401        -1.51125        -6.34191
| 18>    C        2.39887        -1.09480        -6.56384
| 19>    C        2.95448        -1.02926        -7.90171
| 20>    C        2.81750        -1.93577        -8.91294
| 21>    C        3.50360        -1.54905       -10.08474
| 22>    C        4.15852        -0.35630        -9.98768
| 23>    S        3.93914         0.31512        -8.40719
| 24>    C        4.96745         0.34897       -11.01377
| 25>   Cl        3.50328        -2.51795       -11.51010
| 26>    C        3.14669        -0.76120        -5.43877
| 27>    C        2.64028        -0.87169        -4.12146
| 28>    C        1.33937        -1.36465        -3.89348
| 29>    C        0.57695        -1.64234        -5.02267
| 30>    S       -1.06939        -2.21588        -5.02609
| 31>    C        0.86812        -1.58850        -2.54305
| 32>    C        1.58071        -2.10013        -1.49550
| 33>    C        0.82611        -2.16857        -0.30573
| 34>    C       -0.45632        -1.71833        -0.42302
| 35>    S       -0.75507        -1.19758        -2.04804
| 36>    C       -1.51659        -1.64491         0.61376
| 37>   Cl        1.49335        -2.77019         1.16646
| 38>    C        3.57746        -0.42840        -3.15995
| 39>    C        4.77882        -0.05422        -3.69343
| 40>    S        4.79489        -0.19850        -5.44047
| 41>    C        5.95875         0.41272        -3.02086
| 42>    C        6.11146         0.52567        -1.64191
| 43>    O        5.05878         0.18465        -0.82647
| 44>    C        5.25992        -0.95494        -0.00203
| 45>    C        7.30232         1.02855        -1.02930
| 46>    O        7.32292         1.16108         0.33799
| 47>    C        6.46002         2.15260         0.87889
| 48>    C        8.44865         1.34595        -1.75241
| 49>    C        8.32898         1.19072        -3.15702
| 50>    C        7.10510         0.76582        -3.77770
| 51>    N        7.31072         0.75335        -5.07843
| 52>    O        8.56936         1.14379        -5.26223
| 53>    N        9.19887         1.41251        -4.12074
| 54>    C        9.67483         1.84658        -1.19631
| 55>    C       10.00259         2.06369         0.11281
| 56>    C       11.29019         2.62022         0.29277
| 57>    C       11.90217         3.01336         1.50108
| 58>    C       11.16676         2.97661         2.74717
| 59>    C        9.85716         3.30787         2.94934
| 60>    C        9.45344         3.14066         4.29095
| 61>    C       10.43341         2.68730         5.12451
| 62>    S       11.90532         2.46214         4.23900
| 63>    C       10.36302         2.40463         6.58032
| 64>   Cl        7.84522         3.48159         4.81063
| 65>    C       13.21614         3.45823         1.41194
| 66>    C       13.91268         3.57302         0.18613
| 67>    C       13.27580         3.25271        -1.02521
| 68>    C       11.97649         2.76183        -0.93725
| 69>    S       10.97916         2.28484        -2.28146
| 70>    C       13.93932         3.44560        -2.29983
| 71>    C       14.69431         4.51007        -2.70007
| 72>    C       15.17997         4.36521        -4.01811
| 73>    C       14.81317         3.20230        -4.63020
| 74>    S       13.83211         2.25344        -3.56501
| 75>    C       15.14080         2.72485        -5.99735
| 76>   Cl       16.15409         5.56898        -4.77469
| 77>    C       15.24830         4.02658         0.38066
| 78>    C       15.55477         4.27090         1.67531
| 79>    S       14.20330         3.98007         2.74970
| 80>    C       16.78661         4.85956         2.20896
| 81>    C       17.97762         4.23478         2.51108
| 82>    O       18.23909         2.91218         2.38330
| 83>    C       17.21951         1.97618         2.11533
| 84>    C       19.11737         4.98719         2.99366
| 85>    O       20.31198         4.40283         3.25271
| 86>    C       20.43211         3.12772         3.85363
| 87>    C       19.10017         6.36697         3.15118
| 88>    C       17.88050         7.02127         2.83989
| 89>    C       16.74315         6.26163         2.39720
| 90>    N       15.75224         7.10730         2.19627
| 91>    O       16.23206         8.31344         2.49767
| 92>    N       17.50866         8.28390         2.88564
| 93>    C       20.22912         7.10798         3.63973
| 94>    C       20.29955         8.46179         3.79756
| 95>    C       21.52507         8.90848         4.34838
| 96>    C       21.90834        10.22876         4.65585
| 97>    C       21.01773        11.35763         4.47950
| 98>    C       21.32907        12.61168         4.03652
| 99>    C       20.21582        13.47877         4.03091
|100>    C       19.05589        12.91456         4.47602
|101>    S       19.33113        11.26332         4.91078
|102>    C       17.70996        13.52767         4.60673
|103>   Cl       20.32781        15.11351         3.50051
|104>    C       23.19274        10.39599         5.16616
|105>    C       24.07841         9.32119         5.41945
|106>    C       23.68418         8.00182         5.13638
|107>    C       22.41673         7.83345         4.58270
|108>    S       21.70025         6.31003         4.13825
|109>    C       24.51809         6.85074         5.42282
|110>    C       24.65748         5.71346         4.68108
|111>    C       25.49318         4.75722         5.29781
|112>    C       25.99266         5.13577         6.50862
|113>    S       25.42758         6.72405         6.90558
|114>    C       26.89406         4.38959         7.42295
|115>   Cl       25.83863         3.23584         4.56627
|116>    C       25.31919         9.78110         5.95188
|117>    C       25.35904        11.11825         6.11702
|118>    S       23.90633        11.91807         5.63015
|119>    H       -1.99125        -2.51395        -7.25521
|120>    H        0.23626        -1.75775        -8.36908
|121>    H        2.28708        -2.86548        -8.82077
|122>    H        5.01253        -0.24820       -11.92113
|123>    H        5.97969         0.51999       -10.64959
|124>    H        4.52830         1.31786       -11.24971
|125>    H        2.59019        -2.45817        -1.57310
|126>    H       -1.13354        -2.02136         1.55913
|127>    H       -2.38073        -2.23959         0.31968
|128>    H       -1.84908        -0.61654         0.75103
|129>    H        3.35362        -0.35011        -2.11453
|130>    H        6.10795        -0.82739         0.67350
|131>    H        5.41803        -1.84702        -0.61664
|132>    H        4.34318        -1.06529         0.57448
|133>    H        6.59803         2.10431         1.95755
|134>    H        5.41355         1.96495         0.63191
|135>    H        6.74492         3.14487         0.51467
|136>    H        9.35715         1.79795         0.92641
|137>    H        9.21190         3.70138         2.18660
|138>    H        9.35014         2.57099         6.93865
|139>    H       11.04307         3.05546         7.12934
|140>    H       10.64734         1.37334         6.78586
|141>    H       14.86329         5.38696        -2.10257
|142>    H       15.75915         3.46068        -6.50535
|143>    H       14.23007         2.56725        -6.57402
|144>    H       15.67840         1.77814        -5.95535
|145>    H       15.95406         4.14855        -0.42094
|146>    H       16.38545         2.07831         2.81253
|147>    H       17.68874         1.00213         2.25350
|148>    H       16.85402         2.05948         1.08975
|149>    H       21.40323         3.14347         4.34968
|150>    H       20.41623         2.33365         3.10555
|151>    H       19.64918         2.95293         4.59327
|152>    H       19.48920         9.10582         3.51471
|153>    H       22.30170        12.90638         3.68942
|154>    H       17.69771        14.49575         4.11192
|155>    H       17.45177        13.66844         5.65665
|156>    H       16.95398        12.88541         4.15819
|157>    H       24.21209         5.56536         3.71547
|158>    H       26.44018         4.28308         8.40754
|159>    H       27.83975         4.91727         7.54541
|160>    H       27.09261         3.40163         7.01486
|161>    H       26.14257         9.13370         6.18917
|162>    H       26.16920        11.71126         6.49391
|163> *
|164> 
|165>                          ****END OF INPUT****
================================================================================

                       ****************************
                       * Single Point Calculation *
                       ****************************

---------------------------------
CARTESIAN COORDINATES (ANGSTROEM)
---------------------------------
  C     -1.088510   -2.222390   -6.755040
  C      0.078250   -1.836740   -7.309540
  C      1.074010   -1.511250   -6.341910
  C      2.398870   -1.094800   -6.563840
  C      2.954480   -1.029260   -7.901710
  C      2.817500   -1.935770   -8.912940
  C      3.503600   -1.549050  -10.084740
  C      4.158520   -0.356300   -9.987680
  S      3.939140    0.315120   -8.407190
  C      4.967450    0.348970  -11.013770
  Cl     3.503280   -2.517950  -11.510100
  C      3.146690   -0.761200   -5.438770
  C      2.640280   -0.871690   -4.121460
  C      1.339370   -1.364650   -3.893480
  C      0.576950   -1.642340   -5.022670
  S     -1.069390   -2.215880   -5.026090
  C      0.868120   -1.588500   -2.543050
  C      1.580710   -2.100130   -1.495500
  C      0.826110   -2.168570   -0.305730
  C     -0.456320   -1.718330   -0.423020
  S     -0.755070   -1.197580   -2.048040
  C     -1.516590   -1.644910    0.613760
  Cl     1.493350   -2.770190    1.166460
  C      3.577460   -0.428400   -3.159950
  C      4.778820   -0.054220   -3.693430
  S      4.794890   -0.198500   -5.440470
  C      5.958750    0.412720   -3.020860
  C      6.111460    0.525670   -1.641910
  O      5.058780    0.184650   -0.826470
  C      5.259920   -0.954940   -0.002030
  C      7.302320    1.028550   -1.029300
  O      7.322920    1.161080    0.337990
  C      6.460020    2.152600    0.878890
  C      8.448650    1.345950   -1.752410
  C      8.328980    1.190720   -3.157020
  C      7.105100    0.765820   -3.777700
  N      7.310720    0.753350   -5.078430
  O      8.569360    1.143790   -5.262230
  N      9.198870    1.412510   -4.120740
  C      9.674830    1.846580   -1.196310
  C     10.002590    2.063690    0.112810
  C     11.290190    2.620220    0.292770
  C     11.902170    3.013360    1.501080
  C     11.166760    2.976610    2.747170
  C      9.857160    3.307870    2.949340
  C      9.453440    3.140660    4.290950
  C     10.433410    2.687300    5.124510
  S     11.905320    2.462140    4.239000
  C     10.363020    2.404630    6.580320
  Cl     7.845220    3.481590    4.810630
  C     13.216140    3.458230    1.411940
  C     13.912680    3.573020    0.186130
  C     13.275800    3.252710   -1.025210
  C     11.976490    2.761830   -0.937250
  S     10.979160    2.284840   -2.281460
  C     13.939320    3.445600   -2.299830
  C     14.694310    4.510070   -2.700070
  C     15.179970    4.365210   -4.018110
  C     14.813170    3.202300   -4.630200
  S     13.832110    2.253440   -3.565010
  C     15.140800    2.724850   -5.997350
  Cl    16.154090    5.568980   -4.774690
  C     15.248300    4.026580    0.380660
  C     15.554770    4.270900    1.675310
  S     14.203300    3.980070    2.749700
  C     16.786610    4.859560    2.208960
  C     17.977620    4.234780    2.511080
  O     18.239090    2.912180    2.383300
  C     17.219510    1.976180    2.115330
  C     19.117370    4.987190    2.993660
  O     20.311980    4.402830    3.252710
  C     20.432110    3.127720    3.853630
  C     19.100170    6.366970    3.151180
  C     17.880500    7.021270    2.839890
  C     16.743150    6.261630    2.397200
  N     15.752240    7.107300    2.196270
  O     16.232060    8.313440    2.497670
  N     17.508660    8.283900    2.885640
  C     20.229120    7.107980    3.639730
  C     20.299550    8.461790    3.797560
  C     21.525070    8.908480    4.348380
  C     21.908340   10.228760    4.655850
  C     21.017730   11.357630    4.479500
  C     21.329070   12.611680    4.036520
  C     20.215820   13.478770    4.030910
  C     19.055890   12.914560    4.476020
  S     19.331130   11.263320    4.910780
  C     17.709960   13.527670    4.606730
  Cl    20.327810   15.113510    3.500510
  C     23.192740   10.395990    5.166160
  C     24.078410    9.321190    5.419450
  C     23.684180    8.001820    5.136380
  C     22.416730    7.833450    4.582700
  S     21.700250    6.310030    4.138250
  C     24.518090    6.850740    5.422820
  C     24.657480    5.713460    4.681080
  C     25.493180    4.757220    5.297810
  C     25.992660    5.135770    6.508620
  S     25.427580    6.724050    6.905580
  C     26.894060    4.389590    7.422950
  Cl    25.838630    3.235840    4.566270
  C     25.319190    9.781100    5.951880
  C     25.359040   11.118250    6.117020
  S     23.906330   11.918070    5.630150
  H     -1.991250   -2.513950   -7.255210
  H      0.236260   -1.757750   -8.369080
  H      2.287080   -2.865480   -8.820770
  H      5.012530   -0.248200  -11.921130
  H      5.979690    0.519990  -10.649590
  H      4.528300    1.317860  -11.249710
  H      2.590190   -2.458170   -1.573100
  H     -1.133540   -2.021360    1.559130
  H     -2.380730   -2.239590    0.319680
  H     -1.849080   -0.616540    0.751030
  H      3.353620   -0.350110   -2.114530
  H      6.107950   -0.827390    0.673500
  H      5.418030   -1.847020   -0.616640
  H      4.343180   -1.065290    0.574480
  H      6.598030    2.104310    1.957550
  H      5.413550    1.964950    0.631910
  H      6.744920    3.144870    0.514670
  H      9.357150    1.797950    0.926410
  H      9.211900    3.701380    2.186600
  H      9.350140    2.570990    6.938650
  H     11.043070    3.055460    7.129340
  H     10.647340    1.373340    6.785860
  H     14.863290    5.386960   -2.102570
  H     15.759150    3.460680   -6.505350
  H     14.230070    2.567250   -6.574020
  H     15.678400    1.778140   -5.955350
  H     15.954060    4.148550   -0.420940
  H     16.385450    2.078310    2.812530
  H     17.688740    1.002130    2.253500
  H     16.854020    2.059480    1.089750
  H     21.403230    3.143470    4.349680
  H     20.416230    2.333650    3.105550
  H     19.649180    2.952930    4.593270
  H     19.489200    9.105820    3.514710
  H     22.301700   12.906380    3.689420
  H     17.697710   14.495750    4.111920
  H     17.451770   13.668440    5.656650
  H     16.953980   12.885410    4.158190
  H     24.212090    5.565360    3.715470
  H     26.440180    4.283080    8.407540
  H     27.839750    4.917270    7.545410
  H     27.092610    3.401630    7.014860
  H     26.142570    9.133700    6.189170
  H     26.169200   11.711260    6.493910

----------------------------
CARTESIAN COORDINATES (A.U.)
----------------------------
  NO LB      ZA    FRAG     MASS         X           Y           Z
   0 C     6.0000    0    12.011   -2.056986   -4.199708  -12.765176
   1 C     6.0000    0    12.011    0.147871   -3.470936  -13.813029
   2 C     6.0000    0    12.011    2.029585   -2.855849  -11.984473
   3 C     6.0000    0    12.011    4.533207   -2.068872  -12.403860
   4 C     6.0000    0    12.011    5.583158   -1.945020  -14.932068
   5 C     6.0000    0    12.011    5.324303   -3.658075  -16.843016
   6 C     6.0000    0    12.011    6.620844   -2.927280  -19.057397
   7 C     6.0000    0    12.011    7.858464   -0.673309  -18.873980
   8 S    16.0000    0    32.060    7.443896    0.595490  -15.887287
   9 C     6.0000    0    12.011    9.387120    0.659458  -20.813009
  10 Cl   17.0000    0    35.453    6.620240   -4.758236  -21.750937
  11 C     6.0000    0    12.011    5.946382   -1.438460  -10.277786
  12 C     6.0000    0    12.011    4.989406   -1.647255   -7.788431
  13 C     6.0000    0    12.011    2.531042   -2.578815   -7.357611
  14 C     6.0000    0    12.011    1.090277   -3.103573   -9.491471
  15 S    16.0000    0    32.060   -2.020854   -4.187406   -9.497934
  16 C     6.0000    0    12.011    1.640509   -3.001830   -4.805668
  17 C     6.0000    0    12.011    2.987109   -3.968671   -2.826085
  18 C     6.0000    0    12.011    1.561122   -4.098003   -0.577746
  19 C     6.0000    0    12.011   -0.862320   -3.247173   -0.799392
  20 S    16.0000    0    32.060   -1.426876   -2.263098   -3.870235
  21 C     6.0000    0    12.011   -2.865940   -3.108429    1.159838
  22 Cl   17.0000    0    35.453    2.822023   -5.234900    2.204290
  23 C     6.0000    0    12.011    6.760420   -0.809559   -5.971440
  24 C     6.0000    0    12.011    9.030661   -0.102461   -6.979571
  25 S    16.0000    0    32.060    9.061029   -0.375111  -10.280998
  26 C     6.0000    0    12.011   11.260406    0.779928   -5.708598
  27 C     6.0000    0    12.011   11.548986    0.993372   -3.102760
  28 O     8.0000    0    15.999    9.559709    0.348938   -1.561802
  29 C     6.0000    0    12.011    9.939808   -1.804575   -0.003836
  30 C     6.0000    0    12.011   13.799385    1.943678   -1.945095
  31 O     8.0000    0    15.999   13.838313    2.194123    0.638709
  32 C     6.0000    0    12.011   12.207669    4.067824    1.660861
  33 C     6.0000    0    12.011   15.965635    2.543477   -3.311575
  34 C     6.0000    0    12.011   15.739491    2.250135   -5.965903
  35 C     6.0000    0    12.011   13.426693    1.447190   -7.138818
  36 N     7.0000    0    14.007   13.815259    1.423625   -9.596842
  37 O     8.0000    0    15.999   16.193744    2.161450   -9.944174
  38 N     7.0000    0    14.007   17.383345    2.669257   -7.787070
  39 C     6.0000    0    12.011   18.282779    3.489530   -2.260698
  40 C     6.0000    0    12.011   18.902156    3.899809    0.213180
  41 C     6.0000    0    12.011   21.335367    4.951498    0.553255
  42 C     6.0000    0    12.011   22.491842    5.694425    2.836630
  43 C     6.0000    0    12.011   21.102118    5.624978    5.191399
  44 C     6.0000    0    12.011   18.627333    6.250968    5.573445
  45 C     6.0000    0    12.011   17.864413    5.934987    8.108720
  46 C     6.0000    0    12.011   19.716288    5.078261    9.683920
  47 S    16.0000    0    32.060   22.497794    4.652770    8.010549
  48 C     6.0000    0    12.011   19.583270    4.544092   12.435003
  49 Cl   17.0000    0    35.453   14.825317    6.579252    9.090773
  50 C     6.0000    0    12.011   24.974885    6.535108    2.668180
  51 C     6.0000    0    12.011   26.291155    6.752029    0.351735
  52 C     6.0000    0    12.011   25.087626    6.146731   -1.937366
  53 C     6.0000    0    12.011   22.632286    5.219102   -1.771146
  54 S    16.0000    0    32.060   20.747606    4.317722   -4.311335
  55 C     6.0000    0    12.011   26.341497    6.511240   -4.346049
  56 C     6.0000    0    12.011   27.768222    8.522797   -5.102393
  57 C     6.0000    0    12.011   28.685986    8.249051   -7.593127
  58 C     6.0000    0    12.011   27.992834    6.051470   -8.749810
  59 S    16.0000    0    32.060   26.138900    4.258384   -6.736893
  60 C     6.0000    0    12.011   28.611965    5.149220  -11.333349
  61 Cl   17.0000    0    35.453   30.526806   10.523847   -9.022856
  62 C     6.0000    0    12.011   28.815111    7.609133    0.719343
  63 C     6.0000    0    12.011   29.394255    8.070831    3.165877
  64 S    16.0000    0    32.060   26.840347    7.521242    5.196180
  65 C     6.0000    0    12.011   31.722096    9.183238    4.174329
  66 C     6.0000    0    12.011   33.972778    8.002574    4.745254
  67 O     8.0000    0    15.999   34.466885    5.503223    4.503784
  68 C     6.0000    0    12.011   32.540158    3.734439    3.997394
  69 C     6.0000    0    12.011   36.126594    9.424423    5.657198
  70 O     8.0000    0    15.999   38.384079    8.320143    6.146731
  71 C     6.0000    0    12.011   38.611092    5.910534    7.282305
  72 C     6.0000    0    12.011   36.094090   12.031830    5.954867
  73 C     6.0000    0    12.011   33.789248   13.268277    5.366614
  74 C     6.0000    0    12.011   31.639968   11.832766    4.530051
  75 N     7.0000    0    14.007   29.767420   13.430851    4.150349
  76 O     8.0000    0    15.999   30.674148   15.710125    4.719912
  77 N     7.0000    0    14.007   33.086572   15.654302    5.453069
  78 C     6.0000    0    12.011   38.227497   13.432136    6.878093
  79 C     6.0000    0    12.011   38.360590   15.990466    7.176348
  80 C     6.0000    0    12.011   40.676487   16.834587    8.217247
  81 C     6.0000    0    12.011   41.400763   19.329555    8.798281
  82 C     6.0000    0    12.011   39.717754   21.462810    8.465028
  83 C     6.0000    0    12.011   40.306101   23.832621    7.627917
  84 C     6.0000    0    12.011   38.202363   25.471184    7.617316
  85 C     6.0000    0    12.011   36.010413   24.404982    8.458452
  86 S    16.0000    0    32.060   36.530542   21.284590    9.280029
  87 C     6.0000    0    12.011   33.466974   25.563592    8.705458
  88 Cl   17.0000    0    35.453   38.413994   28.560395    6.615005
  89 C     6.0000    0    12.011   43.827927   19.645574    9.762628
  90 C     6.0000    0    12.011   45.501601   17.614496   10.241276
  91 C     6.0000    0    12.011   44.756614   15.121248    9.706352
  92 C     6.0000    0    12.011   42.361481   14.803075    8.660048
  93 S    16.0000    0    32.060   41.007530   11.924229    7.820159
  94 C     6.0000    0    12.011   46.332475   12.946022   10.247645
  95 C     6.0000    0    12.011   46.595884   10.796875    8.845959
  96 C     6.0000    0    12.011   48.175128    8.989843   10.011410
  97 C     6.0000    0    12.011   49.119009    9.705199   12.299509
  98 S    16.0000    0    32.060   48.051162   12.706613   13.049655
  99 C     6.0000    0    12.011   50.822408    8.295123   14.027343
 100 Cl   17.0000    0    35.453   48.827934    6.114851    8.629000
 101 C     6.0000    0    12.011   47.846335   18.483600   11.247423
 102 C     6.0000    0    12.011   47.921641   21.010448   11.559493
 103 S    16.0000    0    32.060   45.176417   22.521888   10.639442
 104 H     1.0000    0     1.008   -3.762917   -4.750677  -13.710360
 105 H     1.0000    0     1.008    0.446467   -3.321666  -15.815269
 106 H     1.0000    0     1.008    4.321955   -5.414972  -16.668840
 107 H     1.0000    0     1.008    9.472309   -0.469030  -22.527671
 108 H     1.0000    0     1.008   11.299976    0.982639  -20.124809
 109 H     1.0000    0     1.008    8.557247    2.490394  -21.258871
 110 H     1.0000    0     1.008    4.894750   -4.645268   -2.972728
 111 H     1.0000    0     1.008   -2.142080   -3.819817    2.946329
 112 H     1.0000    0     1.008   -4.498928   -4.232212    0.604108
 113 H     1.0000    0     1.008   -3.494255   -1.165092    1.419241
 114 H     1.0000    0     1.008    6.337423   -0.661612   -3.995883
 115 H     1.0000    0     1.008   11.542353   -1.563541    1.272731
 116 H     1.0000    0     1.008   10.238593   -3.490362   -1.165281
 117 H     1.0000    0     1.008    8.207421   -2.013106    1.085610
 118 H     1.0000    0     1.008   12.468470    3.976570    3.699233
 119 H     1.0000    0     1.008   10.230127    3.713217    1.194137
 120 H     1.0000    0     1.008   12.746052    5.942943    0.972585
 121 H     1.0000    0     1.008   17.682451    3.397633    1.750661
 122 H     1.0000    0     1.008   17.407968    6.994595    4.132075
 123 H     1.0000    0     1.008   17.669204    4.858467   13.112148
 124 H     1.0000    0     1.008   20.868378    5.773983   13.472500
 125 H     1.0000    0     1.008   20.120557    2.595236   12.823417
 126 H     1.0000    0     1.008   28.087548   10.179879   -3.973281
 127 H     1.0000    0     1.008   29.780478    6.539737  -12.293330
 128 H     1.0000    0     1.008   26.890935    4.851399  -12.423097
 129 H     1.0000    0     1.008   29.627882    3.360198  -11.253981
 130 H     1.0000    0     1.008   30.148804    7.839623   -0.795461
 131 H     1.0000    0     1.008   30.964013    3.927437    5.314911
 132 H     1.0000    0     1.008   33.426874    1.893751    4.258498
 133 H     1.0000    0     1.008   31.849482    3.891853    2.059329
 134 H     1.0000    0     1.008   40.446243    5.940297    8.219704
 135 H     1.0000    0     1.008   38.581083    4.409959    5.868639
 136 H     1.0000    0     1.008   37.131569    5.580229    8.680022
 137 H     1.0000    0     1.008   36.829251   17.207506    6.641839
 138 H     1.0000    0     1.008   42.144105   24.389524    6.971993
 139 H     1.0000    0     1.008   33.443825   27.392998    7.770403
 140 H     1.0000    0     1.008   32.979066   25.829608   10.689519
 141 H     1.0000    0     1.008   32.038379   24.349896    7.857840
 142 H     1.0000    0     1.008   45.754219   10.517006    7.021221
 143 H     1.0000    0     1.008   49.964699    8.093848   15.887948
 144 H     1.0000    0     1.008   52.609503    9.292294   14.258758
 145 H     1.0000    0     1.008   51.197613    6.428149   13.256164
 146 H     1.0000    0     1.008   49.402298   17.260192   11.695836
 147 H     1.0000    0     1.008   49.452621   22.131074   12.271711

--------------------------------
INTERNAL COORDINATES (ANGSTROEM)
--------------------------------
 C      0   0   0     0.000000000000     0.00000000     0.00000000
 C      1   0   0     1.348156174225     0.00000000     0.00000000
 C      2   1   0     1.426109930756   112.98576455     0.00000000
 C      3   2   1     1.406391676241   128.18997305   178.99426861
 C      4   3   2     1.450135890391   121.32548897   355.78896388
 C      5   4   3     1.364957879716   127.95408231   317.17850308
 C      6   5   4     1.411878467999   112.59405129   180.27441324
 C      7   6   5     1.364182323775   114.43927657   359.68989819
 S      8   7   6     1.731150207492   110.07349384     0.36691658
 C      8   7   6     1.484801066103   128.87961371   180.19949587
 Cl     7   6   5     1.723490192023   122.16230863   179.64073716
 C      4   3   2     1.391512205229   116.72213722   176.27158392
 C     12   4   3     1.415614624218   122.77999275     2.21016012
 C     13  12   4     1.409734467941   120.52389715     1.50306059
 C     14  13  12     1.390491297564   116.39062826   355.93841972
 S      1   2   3     1.729067973505   113.61740007     0.15733099
 C     14  13  12     1.447703895795   120.35186345   174.47876287
 C     17  14  13     1.366349430966   127.10639291   320.52061812
 C     18  17  14     1.410552319661   112.69611865   179.09069057
 C     19  18  17     1.364221282124   114.47914684     0.05386764
 S     20  19  18     1.732374706985   109.99680908     0.23548375
 C     20  19  18     1.484747701699   128.87166388   180.06539215
 Cl    19  18  17     1.724673661334   122.00238799   180.28351414
 C     13  12   4     1.413970953238   111.79033062   182.05348142
 C     24  13  12     1.366703125188   113.76668736   357.02872181
 S     12   4   3     1.741607711283   125.82141583   180.88395578
 C     25  24  13     1.436181803742   128.93190133   181.53848486
 C     27  25  24     1.391970240020   125.48141910     2.61078642
 O     28  27  25     1.374544366836   118.91716646   359.19633172
 C     29  28  27     1.420853258187   115.77232861   113.55605904
 C     28  27  25     1.430498810241   122.96307113   181.53368440
 O     31  28  27     1.373852432032   118.20306391   176.78437238
 C     32  31  28     1.421365938244   115.90763799   292.52531266
 C     31  28  27     1.392014116667   122.90475630   354.64132811
 C     34  31  28     1.418219487209   114.83714509     2.74107393
 C     27  25  24     1.418310515402   119.67526262   180.72863166
 N     36  27  25     1.316941007866   130.60878303     0.39101481
 O     37  36  27     1.330563971856   106.34094957   181.66365354
 N     35  34  31     1.317063269019   130.58187467   179.17734862
 C     34  31  28     1.436452226599   125.54344362   180.35222845
 C     40  34  31     1.366879125636   129.11059013     2.90290565
 C     41  40  34     1.414222402064   113.74686741   182.47369742
 C     42  41  40     1.410351600169   127.86375249   177.08577486
 C     43  42  41     1.447383404181   120.66663458   354.64380045
 C     44  43  42     1.365890938728   127.47587022   321.19377976
 C     45  44  43     1.410980657061   112.72640379   179.26333111
 C     46  45  44     1.364074324991   114.51087632     0.08098921
 S     47  46  45     1.732438753261   109.95168001     0.22371574
 C     47  46  45     1.484668258265   128.93369741   179.85147046
 Cl    46  45  44     1.724143884860   122.00886305   180.32225002
 C     43  42  41     1.390097988417   116.38667445   176.11887424
 C     51  43  42     1.414551120250   123.16027761     2.45752021
 C     52  51  43     1.405545881891   120.34612999     1.07362603
 C     53  52  51     1.391727923159   116.67571255   356.78223727
 S     54  53  52     1.740427278889   125.65034437   180.39705945
 C     53  52  51     1.449869472366   121.33043399   175.90491275
 C     56  53  52     1.365026863692   127.92539393   317.30617623
 C     57  56  53     1.412118796986   112.57558542   180.46731184
 C     58  57  56     1.364388535645   114.43784116   359.69147081
 S     59  58  57     1.731312727181   110.08740325     0.35657338
 C     59  58  57     1.484721873584   128.89226739   180.03124087
 Cl    58  57  56     1.723480572475   122.17282557   179.67820174
 C     52  51  43     1.423881799483   111.67530481   181.13754501
 C     63  52  51     1.352676881520   113.62910470   358.87958499
 S     51  43  42     1.742527953520   125.59808446   180.80807255
 C     64  63  52     1.465855621710   127.68830819   186.11484695
 C     66  64  63     1.378452524717   128.59848569   275.35719059
 O     67  66  64     1.354239657262   126.07178979   359.11200936
 C     68  67  66     1.409768526142   121.78446268   349.58555332
 C     67  66  64     1.448459294216   121.16144387   177.91643886
 O     70  67  66     1.354871419803   122.23912831   182.35582953
 C     71  70  67     1.414723144435   123.01259874   320.90903538
 C     70  67  66     1.388848889836   122.96357101   358.40254356
 C     73  70  67     1.418663054781   116.35668168     1.36480771
 C     66  64  63     1.415317404012   114.86221077    93.37161916
 N     75  66  64     1.318117309612   129.67103917     1.91231657
 O     76  75  66     1.332607553633   105.99360509   181.22740078
 N     74  73  70     1.317039317940   132.63002747   179.15698245
 C     73  70  67     1.436072778483   122.78423483   179.50743826
 C     79  73  70     1.364797497763   126.28154587   178.64826519
 C     80  79  73     1.415921572298   113.74016484   177.71458420
 C     81  80  79     1.408748725714   128.02826743   181.09513797
 C     82  81  80     1.448665928190   122.44454677     2.48140708
 C     83  82  81     1.365944829962   127.93487758   218.36965298
 C     84  83  82     1.411099607646   112.68170812   182.00110880
 C     85  84  83     1.364512162313   114.53590579     0.64809864
 S     86  85  84     1.729556837112   109.96732127   359.73305760
 C     86  85  84     1.484761442488   128.94378877   179.82556217
 Cl    85  84  83     1.722277790515   122.21998476   180.71668143
 C     82  81  80     1.392144219900   116.33338990   181.37490356
 C     90  82  81     1.415543080588   123.47918712   357.89179608
 C     91  90  82     1.405803369857   120.07366061     0.93654033
 C     92  91  90     1.393319597867   116.64903794     1.25636897
 S     93  92  91     1.741174284585   125.55488749   179.75886867
 C     92  91  90     1.449978940571   122.95581482   182.66269623
 C     95  92  91     1.364922561210   127.79505850   217.02057655
 C     96  95  92     1.411787987093   112.79394487   183.65731550
 C     97  96  95     1.363393277452   114.62970051     0.45789267
 S     98  97  96     1.731913971997   109.79446421   359.66818731
 C     98  97  96     1.485027239245   129.02457442   180.08420163
 Cl    97  96  95     1.723102892604   122.08955735   180.24825280
 C     91  90  82     1.426370891949   111.48386040   180.59144209
 C    102  91  90     1.347898128421   113.03621686     1.22300437
 S    103 102  91     1.728328896188   113.56053825   359.55327282
 H      1   2   3     1.072434972434   127.91191301   179.71208383
 H      2   1   3     1.074165532774   123.64500188   181.47756127
 H      6   5   4     1.074337642178   124.10509061   357.52773046
 H     10   8   7     1.087173576252   109.78228533   358.22075139
 H     10   8   7     1.089267979149   110.47574076   237.89224831
 H     10   8   7     1.089618391089   110.63595673   118.47583081
 H     18  17  14     1.073901425644   124.03401189   356.25795938
 H     22  20  19     1.087274731565   109.78230907   359.89519982
 H     22  20  19     1.089433471305   110.54507481   239.64198242
 H     22  20  19     1.089466617157   110.64608866   120.18412951
 H     24  13  12     1.071977913065   123.20641605   174.39446271
 H     30  29  28     1.091679744385   112.04356911    59.79081812
 H     30  29  28     1.094783517687   110.37978182   297.73848555
 H     30  29  28     1.088555524629   105.62793620   179.28162960
 H     33  32  31     1.088524726315   105.61565978   179.20051094
 H     33  32  31     1.091471989471   112.08730647    59.70515680
 H     33  32  31     1.094725523271   110.34613590   297.67320960
 H     41  40  34     1.071986707567   122.89791284     4.85857627
 H     45  44  43     1.073770410889   124.04908531   356.30366764
 H     49  47  46     1.087199122930   109.76850091     2.56230002
 H     49  47  46     1.089711269924   110.53189703   242.41652893
 H     49  47  46     1.089331730053   110.66421960   122.93350539
 H     57  56  53     1.074475017160   124.07999192   357.53490116
 H     61  59  58     1.087136841157   109.76320881     0.11771866
 H     61  59  58     1.089410474431   110.45491099   239.86601224
 H     61  59  58     1.089512544260   110.65953637   120.45643789
 H     63  52  51     1.074958798513   123.37484759   177.89954268
 H     69  68  67     1.091867418920   111.65292033   308.65037937
 H     69  68  67     1.089973001638   104.94457493   190.28376365
 H     69  68  67     1.091941466609   111.71280581    71.89822885
 H     72  71  70     1.090590537003   104.82077839   206.33827386
 H     72  71  70     1.091065087747   111.31531702    87.94070341
 H     72  71  70     1.091145388388   111.80074695   324.81104748
 H     80  79  73     1.073054465486   121.72873378   357.25968366
 H     84  83  82     1.073934642751   124.27585111     4.38646987
 H     88  86  85     1.087274521453   109.74385230    10.67497267
 H     88  86  85     1.090325765723   110.65525146   250.71915922
 H     88  86  85     1.088665145763   110.46267049   131.21210897
 H     96  95  92     1.073642647346   124.14711287     5.69759530
 H    100  98  97     1.089389233745   110.65254641   236.54155388
 H    100  98  97     1.089849627288   110.64649484   117.00487214
 H    100  98  97     1.087209507041   109.65431024   356.88056427
 H    102  91  90     1.073958997588   123.71267423   181.78132784
 H    103 102  91     1.072411375266   127.87578036   180.22134656

---------------------------
INTERNAL COORDINATES (A.U.)
---------------------------
 C      0   0   0     0.000000000000     0.00000000     0.00000000
 C      1   0   0     2.547645955040     0.00000000     0.00000000
 C      2   1   0     2.694957205994   112.98576455     0.00000000
 C      3   2   1     2.657695105122   128.18997305   178.99426861
 C      4   3   2     2.740359689809   121.32548897   355.78896388
 C      5   4   3     2.579396577002   127.95408231   317.17850308
 C      6   5   4     2.668063638899   112.59405129   180.27441324
 C      7   6   5     2.577930988671   114.43927657   359.68989819
 S      8   7   6     3.271399788841   110.07349384     0.36691658
 C      8   7   6     2.805867378289   128.87961371   180.19949587
 Cl     7   6   5     3.256924457423   122.16230863   179.64073716
 C      4   3   2     2.629576979891   116.72213722   176.27158392
 C     12   4   3     2.675123950946   122.77999275     2.21016012
 C     13  12   4     2.664012065957   120.52389715     1.50306059
 C     14  13  12     2.627647743996   116.39062826   355.93841972
 S      1   2   3     3.267464936858   113.61740007     0.15733099
 C     14  13  12     2.735763886063   120.35186345   174.47876287
 C     17  14  13     2.582026227764   127.10639291   320.52061812
 C     18  17  14     2.665557581726   112.69611865   179.09069057
 C     19  18  17     2.578004609281   114.47914684     0.05386764
 S     20  19  18     3.273713757533   109.99680908     0.23548375
 C     20  19  18     2.805766534180   128.87166388   180.06539215
 Cl    19  18  17     3.259160890309   122.00238799   180.28351414
 C     13  12   4     2.672017862939   111.79033062   182.05348142
 C     24  13  12     2.582694612981   113.76668736   357.02872181
 S     12   4   3     3.291161607050   125.82141583   180.88395578
 C     25  24  13     2.713990287594   128.93190133   181.53848486
 C     27  25  24     2.630442540206   125.48141910     2.61078642
 O     28  27  25     2.597512412244   118.91716646   359.19633172
 C     29  28  27     2.685023534463   115.77232861   113.55605904
 C     28  27  25     2.703250986255   122.96307113   181.53368440
 O     31  28  27     2.596204844962   118.20306391   176.78437238
 C     32  31  28     2.685992359365   115.90763799   292.52531266
 C     31  28  27     2.630525455053   122.90475630   354.64132811
 C     34  31  28     2.680046428616   114.83714509     2.74107393
 C     27  25  24     2.680218446971   119.67526262   180.72863166
 N     36  27  25     2.488657839398   130.60878303     0.39101481
 O     37  36  27     2.514401510469   106.34094957   181.66365354
 N     35  34  31     2.488888879494   130.58187467   179.17734862
 C     34  31  28     2.714501312733   125.54344362   180.35222845
 C     40  34  31     2.583027205626   129.11059013     2.90290565
 C     41  40  34     2.672493032357   113.74686741   182.47369742
 C     42  41  40     2.665178276858   127.86375249   177.08577486
 C     43  42  41     2.735158244686   120.66663458   354.64380045
 C     44  43  42     2.581159803001   127.47587022   321.19377976
 C     45  44  43     2.666367022105   112.72640379   179.26333111
 C     46  45  44     2.577726900547   114.51087632     0.08098921
 S     47  46  45     3.273834787455   109.95168001     0.22371574
 C     47  46  45     2.805616407847   128.93369741   179.85147046
 Cl    46  45  44     3.258159757860   122.00886305   180.32225002
 C     43  42  41     2.626904497422   116.38667445   176.11887424
 C     51  43  42     2.673114219704   123.16027761     2.45752021
 C     52  51  43     2.656096785434   120.34612999     1.07362603
 C     53  52  51     2.629984627701   116.67571255   356.78223727
 S     54  53  52     3.288930913105   125.65034437   180.39705945
 C     53  52  51     2.739856232705   121.33043399   175.90491275
 C     56  53  52     2.579526937823   127.92539393   317.30617623
 C     57  56  53     2.668517794865   112.57558542   180.46731184
 C     58  57  56     2.578320672631   114.43784116   359.69147081
 S     59  58  57     3.271706906545   110.08740325     0.35657338
 C     59  58  57     2.805717726117   128.89226739   180.03124087
 Cl    58  57  56     3.256906279112   122.17282557   179.67820174
 C     52  51  43     2.690746648099   111.67530481   181.13754501
 C     63  52  51     2.556188853760   113.62910470   358.87958499
 S     51  43  42     3.292900612856   125.59808446   180.80807255
 C     64  63  52     2.770065676902   127.68830819   186.11484695
 C     66  64  63     2.604897760328   128.59848569   275.35719059
 O     67  66  64     2.559142071920   126.07178979   359.11200936
 C     68  67  66     2.664076426630   121.78446268   349.58555332
 C     67  66  64     2.737191382201   121.16144387   177.91643886
 O     70  67  66     2.560335930105   122.23912831   182.35582953
 C     71  70  67     2.673439298302   123.01259874   320.90903538
 C     70  67  66     2.624544043191   122.96357101   358.40254356
 C     73  70  67     2.680884649848   116.35668168     1.36480771
 C     66  64  63     2.674562286156   114.86221077    93.37161916
 N     75  66  64     2.490880727549   129.67103917     1.91231657
 O     76  75  66     2.518263320361   105.99360509   181.22740078
 N     74  73  70     2.488843618513   132.63002747   179.15698245
 C     73  70  67     2.713784259712   122.78423483   179.50743826
 C     79  73  70     2.579093499033   126.28154587   178.64826519
 C     80  79  73     2.675703998755   113.74016484   177.71458420
 C     81  80  79     2.662149283109   128.02826743   181.09513797
 C     82  81  80     2.737581863823   122.44454677     2.48140708
 C     83  82  81     2.581261642674   127.93487758   218.36965298
 C     84  83  82     2.666591806136   112.68170812   182.00110880
 C     85  84  83     2.578554293176   114.53590579     0.64809864
 S     86  85  84     3.268388755192   109.96732127   359.73305760
 C     86  85  84     2.805792500509   128.94378877   179.82556217
 Cl    85  84  83     3.254633350608   122.21998476   180.71668143
 C     82  81  80     2.630771314532   116.33338990   181.37490356
 C     90  82  81     2.674988753078   123.47918712   357.89179608
 C     91  90  82     2.656583367172   120.07366061     0.93654033
 C     92  91  90     2.632992456994   116.64903794     1.25636897
 S     93  92  91     3.290342549292   125.55488749   179.75886867
 C     92  91  90     2.740063097633   122.95581482   182.66269623
 C     95  92  91     2.579329834697   127.79505850   217.02057655
 C     96  95  92     2.667892654766   112.79394487   183.65731550
 C     97  96  95     2.576439907213   114.62970051     0.45789267
 S     98  97  96     3.272843094587   109.79446421   359.66818731
 C     98  97  96     2.806294783586   129.02457442   180.08420163
 Cl    97  96  95     3.256192567589   122.08955735   180.24825280
 C     91  90  82     2.695450351181   111.48386040   180.59144209
 C    102  91  90     2.547158319140   113.03621686     1.22300437
 S    103 102  91     3.266068283139   113.56053825   359.55327282
 H      1   2   3     2.026608394340   127.91191301   179.71208383
 H      2   1   3     2.029878679441   123.64500188   181.47756127
 H      6   5   4     2.030203919079   124.10509061   357.52773046
 H     10   8   7     2.054460319152   109.78228533   358.22075139
 H     10   8   7     2.058418167042   110.47574076   237.89224831
 H     10   8   7     2.059080349643   110.63595673   118.47583081
 H     18  17  14     2.029379589295   124.03401189   356.25795938
 H     22  20  19     2.054651474991   109.78230907   359.89519982
 H     22  20  19     2.058730901894   110.54507481   239.64198242
 H     22  20  19     2.058793538477   110.64608866   120.18412951
 H     24  13  12     2.025744677306   123.20641605   174.39446271
 H     30  29  28     2.062975742836   112.04356911    59.79081812
 H     30  29  28     2.068841024360   110.37978182   297.73848555
 H     30  29  28     2.057071823116   105.62793620   179.28162960
 H     33  32  31     2.057013622738   105.61565978   179.20051094
 H     33  32  31     2.062583142947   112.08730647    59.70515680
 H     33  32  31     2.068731430795   110.34613590   297.67320960
 H     41  40  34     2.025761296505   122.89791284     4.85857627
 H     45  44  43     2.029132007288   124.04908531   356.30366764
 H     49  47  46     2.054508595377   109.76850091     2.56230002
 H     49  47  46     2.059255865204   110.53189703   242.41652893
 H     49  47  46     2.058538638791   110.66421960   122.93350539
 H     57  56  53     2.030463520172   124.07999192   357.53490116
 H     61  59  58     2.054390899882   109.76320881     0.11771866
 H     61  59  58     2.058687444100   110.45491099   239.86601224
 H     61  59  58     2.058880328123   110.65953637   120.45643789
 H     63  52  51     2.031377734438   123.37484759   177.89954268
 H     69  68  67     2.063330396311   111.65292033   308.65037937
 H     69  68  67     2.059750466464   104.94457493   190.28376365
 H     69  68  67     2.063470326163   111.71280581    71.89822885
 H     72  71  70     2.060917439181   104.82077839   206.33827386
 H     72  71  70     2.061814210124   111.31531702    87.94070341
 H     72  71  70     2.061965956344   111.80074695   324.81104748
 H     80  79  73     2.027779066550   121.72873378   357.25968366
 H     84  83  82     2.029442360529   124.27585111     4.38646987
 H     88  86  85     2.054651077936   109.74385230    10.67497267
 H     88  86  85     2.060417093975   110.65525146   250.71915922
 H     88  86  85     2.057278977038   110.46267049   131.21210897
 H     96  95  92     2.028890569182   124.14711287     5.69759530
 H    100  98  97     2.058647305021   110.65254641   236.54155388
 H    100  98  97     2.059517322731   110.64649484   117.00487214
 H    100  98  97     2.054528218503   109.65431024   356.88056427
 H    102  91  90     2.029488384502   123.71267423   181.78132784
 H    103 102  91     2.026563802155   127.87578036   180.22134656

---------------------
BASIS SET INFORMATION
---------------------
There are 6 groups of distinct atoms

 Group   1 Type C   : 7s4p1d contracted to 3s2p1d pattern {511/31/1}
 Group   2 Type S   : 10s7p1d contracted to 4s3p1d pattern {5311/511/1}
 Group   3 Type Cl  : 10s7p1d contracted to 4s3p1d pattern {5311/511/1}
 Group   4 Type O   : 7s4p1d contracted to 3s2p1d pattern {511/31/1}
 Group   5 Type N   : 7s4p1d contracted to 3s2p1d pattern {511/31/1}
 Group   6 Type H   : 4s1p contracted to 2s1p pattern {31/1}

Atom   0C    basis set group =>   1
Atom   1C    basis set group =>   1
Atom   2C    basis set group =>   1
Atom   3C    basis set group =>   1
Atom   4C    basis set group =>   1
Atom   5C    basis set group =>   1
Atom   6C    basis set group =>   1
Atom   7C    basis set group =>   1
Atom   8S    basis set group =>   2
Atom   9C    basis set group =>   1
Atom  10Cl   basis set group =>   3
Atom  11C    basis set group =>   1
Atom  12C    basis set group =>   1
Atom  13C    basis set group =>   1
Atom  14C    basis set group =>   1
Atom  15S    basis set group =>   2
Atom  16C    basis set group =>   1
Atom  17C    basis set group =>   1
Atom  18C    basis set group =>   1
Atom  19C    basis set group =>   1
Atom  20S    basis set group =>   2
Atom  21C    basis set group =>   1
Atom  22Cl   basis set group =>   3
Atom  23C    basis set group =>   1
Atom  24C    basis set group =>   1
Atom  25S    basis set group =>   2
Atom  26C    basis set group =>   1
Atom  27C    basis set group =>   1
Atom  28O    basis set group =>   4
Atom  29C    basis set group =>   1
Atom  30C    basis set group =>   1
Atom  31O    basis set group =>   4
Atom  32C    basis set group =>   1
Atom  33C    basis set group =>   1
Atom  34C    basis set group =>   1
Atom  35C    basis set group =>   1
Atom  36N    basis set group =>   5
Atom  37O    basis set group =>   4
Atom  38N    basis set group =>   5
Atom  39C    basis set group =>   1
Atom  40C    basis set group =>   1
Atom  41C    basis set group =>   1
Atom  42C    basis set group =>   1
Atom  43C    basis set group =>   1
Atom  44C    basis set group =>   1
Atom  45C    basis set group =>   1
Atom  46C    basis set group =>   1
Atom  47S    basis set group =>   2
Atom  48C    basis set group =>   1
Atom  49Cl   basis set group =>   3
Atom  50C    basis set group =>   1
Atom  51C    basis set group =>   1
Atom  52C    basis set group =>   1
Atom  53C    basis set group =>   1
Atom  54S    basis set group =>   2
Atom  55C    basis set group =>   1
Atom  56C    basis set group =>   1
Atom  57C    basis set group =>   1
Atom  58C    basis set group =>   1
Atom  59S    basis set group =>   2
Atom  60C    basis set group =>   1
Atom  61Cl   basis set group =>   3
Atom  62C    basis set group =>   1
Atom  63C    basis set group =>   1
Atom  64S    basis set group =>   2
Atom  65C    basis set group =>   1
Atom  66C    basis set group =>   1
Atom  67O    basis set group =>   4
Atom  68C    basis set group =>   1
Atom  69C    basis set group =>   1
Atom  70O    basis set group =>   4
Atom  71C    basis set group =>   1
Atom  72C    basis set group =>   1
Atom  73C    basis set group =>   1
Atom  74C    basis set group =>   1
Atom  75N    basis set group =>   5
Atom  76O    basis set group =>   4
Atom  77N    basis set group =>   5
Atom  78C    basis set group =>   1
Atom  79C    basis set group =>   1
Atom  80C    basis set group =>   1
Atom  81C    basis set group =>   1
Atom  82C    basis set group =>   1
Atom  83C    basis set group =>   1
Atom  84C    basis set group =>   1
Atom  85C    basis set group =>   1
Atom  86S    basis set group =>   2
Atom  87C    basis set group =>   1
Atom  88Cl   basis set group =>   3
Atom  89C    basis set group =>   1
Atom  90C    basis set group =>   1
Atom  91C    basis set group =>   1
Atom  92C    basis set group =>   1
Atom  93S    basis set group =>   2
Atom  94C    basis set group =>   1
Atom  95C    basis set group =>   1
Atom  96C    basis set group =>   1
Atom  97C    basis set group =>   1
Atom  98S    basis set group =>   2
Atom  99C    basis set group =>   1
Atom 100Cl   basis set group =>   3
Atom 101C    basis set group =>   1
Atom 102C    basis set group =>   1
Atom 103S    basis set group =>   2
Atom 104H    basis set group =>   6
Atom 105H    basis set group =>   6
Atom 106H    basis set group =>   6
Atom 107H    basis set group =>   6
Atom 108H    basis set group =>   6
Atom 109H    basis set group =>   6
Atom 110H    basis set group =>   6
Atom 111H    basis set group =>   6
Atom 112H    basis set group =>   6
Atom 113H    basis set group =>   6
Atom 114H    basis set group =>   6
Atom 115H    basis set group =>   6
Atom 116H    basis set group =>   6
Atom 117H    basis set group =>   6
Atom 118H    basis set group =>   6
Atom 119H    basis set group =>   6
Atom 120H    basis set group =>   6
Atom 121H    basis set group =>   6
Atom 122H    basis set group =>   6
Atom 123H    basis set group =>   6
Atom 124H    basis set group =>   6
Atom 125H    basis set group =>   6
Atom 126H    basis set group =>   6
Atom 127H    basis set group =>   6
Atom 128H    basis set group =>   6
Atom 129H    basis set group =>   6
Atom 130H    basis set group =>   6
Atom 131H    basis set group =>   6
Atom 132H    basis set group =>   6
Atom 133H    basis set group =>   6
Atom 134H    basis set group =>   6
Atom 135H    basis set group =>   6
Atom 136H    basis set group =>   6
Atom 137H    basis set group =>   6
Atom 138H    basis set group =>   6
Atom 139H    basis set group =>   6
Atom 140H    basis set group =>   6
Atom 141H    basis set group =>   6
Atom 142H    basis set group =>   6
Atom 143H    basis set group =>   6
Atom 144H    basis set group =>   6
Atom 145H    basis set group =>   6
Atom 146H    basis set group =>   6
Atom 147H    basis set group =>   6
---------------------------------
AUXILIARY/J BASIS SET INFORMATION
---------------------------------
There are 6 groups of distinct atoms

 Group   1 Type C   : 12s5p4d2f1g contracted to 6s4p3d1f1g pattern {711111/2111/211/2/1}
 Group   2 Type S   : 14s5p5d2f1g contracted to 8s4p3d1f1g pattern {71111111/2111/311/2/1}
 Group   3 Type Cl  : 14s5p5d2f1g contracted to 8s4p3d1f1g pattern {71111111/2111/311/2/1}
 Group   4 Type O   : 12s5p4d2f1g contracted to 6s4p3d1f1g pattern {711111/2111/211/2/1}
 Group   5 Type N   : 12s5p4d2f1g contracted to 6s4p3d1f1g pattern {711111/2111/211/2/1}
 Group   6 Type H   : 5s2p1d contracted to 3s1p1d pattern {311/2/1}

Atom   0C    basis set group =>   1
Atom   1C    basis set group =>   1
Atom   2C    basis set group =>   1
Atom   3C    basis set group =>   1
Atom   4C    basis set group =>   1
Atom   5C    basis set group =>   1
Atom   6C    basis set group =>   1
Atom   7C    basis set group =>   1
Atom   8S    basis set group =>   2
Atom   9C    basis set group =>   1
Atom  10Cl   basis set group =>   3
Atom  11C    basis set group =>   1
Atom  12C    basis set group =>   1
Atom  13C    basis set group =>   1
Atom  14C    basis set group =>   1
Atom  15S    basis set group =>   2
Atom  16C    basis set group =>   1
Atom  17C    basis set group =>   1
Atom  18C    basis set group =>   1
Atom  19C    basis set group =>   1
Atom  20S    basis set group =>   2
Atom  21C    basis set group =>   1
Atom  22Cl   basis set group =>   3
Atom  23C    basis set group =>   1
Atom  24C    basis set group =>   1
Atom  25S    basis set group =>   2
Atom  26C    basis set group =>   1
Atom  27C    basis set group =>   1
Atom  28O    basis set group =>   4
Atom  29C    basis set group =>   1
Atom  30C    basis set group =>   1
Atom  31O    basis set group =>   4
Atom  32C    basis set group =>   1
Atom  33C    basis set group =>   1
Atom  34C    basis set group =>   1
Atom  35C    basis set group =>   1
Atom  36N    basis set group =>   5
Atom  37O    basis set group =>   4
Atom  38N    basis set group =>   5
Atom  39C    basis set group =>   1
Atom  40C    basis set group =>   1
Atom  41C    basis set group =>   1
Atom  42C    basis set group =>   1
Atom  43C    basis set group =>   1
Atom  44C    basis set group =>   1
Atom  45C    basis set group =>   1
Atom  46C    basis set group =>   1
Atom  47S    basis set group =>   2
Atom  48C    basis set group =>   1
Atom  49Cl   basis set group =>   3
Atom  50C    basis set group =>   1
Atom  51C    basis set group =>   1
Atom  52C    basis set group =>   1
Atom  53C    basis set group =>   1
Atom  54S    basis set group =>   2
Atom  55C    basis set group =>   1
Atom  56C    basis set group =>   1
Atom  57C    basis set group =>   1
Atom  58C    basis set group =>   1
Atom  59S    basis set group =>   2
Atom  60C    basis set group =>   1
Atom  61Cl   basis set group =>   3
Atom  62C    basis set group =>   1
Atom  63C    basis set group =>   1
Atom  64S    basis set group =>   2
Atom  65C    basis set group =>   1
Atom  66C    basis set group =>   1
Atom  67O    basis set group =>   4
Atom  68C    basis set group =>   1
Atom  69C    basis set group =>   1
Atom  70O    basis set group =>   4
Atom  71C    basis set group =>   1
Atom  72C    basis set group =>   1
Atom  73C    basis set group =>   1
Atom  74C    basis set group =>   1
Atom  75N    basis set group =>   5
Atom  76O    basis set group =>   4
Atom  77N    basis set group =>   5
Atom  78C    basis set group =>   1
Atom  79C    basis set group =>   1
Atom  80C    basis set group =>   1
Atom  81C    basis set group =>   1
Atom  82C    basis set group =>   1
Atom  83C    basis set group =>   1
Atom  84C    basis set group =>   1
Atom  85C    basis set group =>   1
Atom  86S    basis set group =>   2
Atom  87C    basis set group =>   1
Atom  88Cl   basis set group =>   3
Atom  89C    basis set group =>   1
Atom  90C    basis set group =>   1
Atom  91C    basis set group =>   1
Atom  92C    basis set group =>   1
Atom  93S    basis set group =>   2
Atom  94C    basis set group =>   1
Atom  95C    basis set group =>   1
Atom  96C    basis set group =>   1
Atom  97C    basis set group =>   1
Atom  98S    basis set group =>   2
Atom  99C    basis set group =>   1
Atom 100Cl   basis set group =>   3
Atom 101C    basis set group =>   1
Atom 102C    basis set group =>   1
Atom 103S    basis set group =>   2
Atom 104H    basis set group =>   6
Atom 105H    basis set group =>   6
Atom 106H    basis set group =>   6
Atom 107H    basis set group =>   6
Atom 108H    basis set group =>   6
Atom 109H    basis set group =>   6
Atom 110H    basis set group =>   6
Atom 111H    basis set group =>   6
Atom 112H    basis set group =>   6
Atom 113H    basis set group =>   6
Atom 114H    basis set group =>   6
Atom 115H    basis set group =>   6
Atom 116H    basis set group =>   6
Atom 117H    basis set group =>   6
Atom 118H    basis set group =>   6
Atom 119H    basis set group =>   6
Atom 120H    basis set group =>   6
Atom 121H    basis set group =>   6
Atom 122H    basis set group =>   6
Atom 123H    basis set group =>   6
Atom 124H    basis set group =>   6
Atom 125H    basis set group =>   6
Atom 126H    basis set group =>   6
Atom 127H    basis set group =>   6
Atom 128H    basis set group =>   6
Atom 129H    basis set group =>   6
Atom 130H    basis set group =>   6
Atom 131H    basis set group =>   6
Atom 132H    basis set group =>   6
Atom 133H    basis set group =>   6
Atom 134H    basis set group =>   6
Atom 135H    basis set group =>   6
Atom 136H    basis set group =>   6
Atom 137H    basis set group =>   6
Atom 138H    basis set group =>   6
Atom 139H    basis set group =>   6
Atom 140H    basis set group =>   6
Atom 141H    basis set group =>   6
Atom 142H    basis set group =>   6
Atom 143H    basis set group =>   6
Atom 144H    basis set group =>   6
Atom 145H    basis set group =>   6
Atom 146H    basis set group =>   6
Atom 147H    basis set group =>   6


           ************************************************************
           *        Program running with 6 parallel MPI-processes     *
           *              working on a common directory               *
           ************************************************************
------------------------------------------------------------------------------
                           ORCA GTO INTEGRAL CALCULATION
                           -- RI-GTO INTEGRALS CHOSEN --
------------------------------------------------------------------------------

                         BASIS SET STATISTICS AND STARTUP INFO

Gaussian basis set:
 # of primitive gaussian shells          ... 1576
 # of primitive gaussian functions       ... 3020
 # of contracted shells                  ...  792
 # of contracted basis functions         ... 1748
 Highest angular momentum                ...    2
 Maximum contraction depth               ...    5
Auxiliary gaussian basis set:
 # of primitive gaussian shells          ... 2902
 # of primitive gaussian functions       ... 8110
 # of contracted shells                  ... 1816
 # of contracted aux-basis functions     ... 5616
 Highest angular momentum                ...    4
 Maximum contraction depth               ...    7
Ratio of auxiliary to basis functions    ...  3.21
Integral package used                  ... LIBINT
 One Electron integrals                  ... done
 Ordering auxiliary basis shells         ... done
 Integral threshhold             Thresh  ...  2.500e-11
 Primitive cut-off               TCut    ...  2.500e-12
 Pre-screening matrix                    ... done
 Shell pair data                         ... 
 Ordering of the shell pairs             ... done (   0.016 sec) 74756 of 314028 pairs
 Determination of significant pairs      ... done (   0.000 sec)
 Creation of shell pair data             ... done (   0.009 sec)
 Storage of shell pair data              ... done (   0.054 sec)
 Shell pair data done in (   0.079 sec)
 Computing two index integrals           ... done
 Cholesky decomposition of the V-matrix  ... done


Timings:
 Total evaluation time                   ...   4.800 sec (  0.080 min)
 One electron matrix time                ...   1.281 sec (  0.021 min) = 26.7%
 Schwartz matrix evaluation time         ...   1.413 sec (  0.024 min) = 29.4%
 Two index repulsion integral time       ...   0.763 sec (  0.013 min) = 15.9%
 Cholesky decomposition of V             ...   1.247 sec (  0.021 min) = 26.0%
 Three index repulsion integral time     ...   0.000 sec (  0.000 min) =  0.0%



           ************************************************************
           *        Program running with 6 parallel MPI-processes     *
           *              working on a common directory               *
           ************************************************************
-------------------------------------------------------------------------------
                                 ORCA SCF
-------------------------------------------------------------------------------

------------
SCF SETTINGS
------------
Hamiltonian:
 Density Functional     Method          .... DFT(GTOs)
 Exchange Functional    Exchange        .... WB88
 Correlation Functional Correlation     .... LYP
 LDA part of GGA corr.  LDAOpt          .... VWN-5
 Gradients option       PostSCFGGA      .... off
 Hybrid DFT is turned on
   Fraction HF Exchange ScalHFX         ....  0.190000
   Scaling of DF-GGA-X  ScalDFX         ....  0.350000
   Scaling of DF-GGA-C  ScalDFC         ....  0.810000
   Scaling of DF-LDA-C  ScalLDAC        ....  1.000000
   Perturbative correction              ....  0.000000
   Density functional embedding theory  .... OFF
 Long-range corrected/Screened/Range-Separated Hybrid DFT is turned on
   Amount of maximum screened exact exchange              ....  0.460000
   Range separation parameter mu (erf(mu*r12)/r12)        ....  0.330000
 RI-approximation to the Coulomb term is turned on
   Number of auxiliary basis functions  .... 5616
   RIJ-COSX (HFX calculated with COS-X)).... on


General Settings:
 Integral files         IntName         .... xtbopt
 Hartree-Fock type      HFTyp           .... RHF
 Total Charge           Charge          ....    0
 Multiplicity           Mult            ....    1
 Number of Electrons    NEL             ....  870
 Basis Dimension        Dim             .... 1748
 Nuclear Repulsion      ENuc            ....  23761.2244533944 Eh

Convergence Acceleration:
 DIIS                   CNVDIIS         .... on
   Start iteration      DIISMaxIt       ....    12
   Startup error        DIISStart       ....  0.200000
   # of expansion vecs  DIISMaxEq       ....     5
   Bias factor          DIISBfac        ....   1.050
   Max. coefficient     DIISMaxC        ....  10.000
 Newton-Raphson         CNVNR           .... off
 SOSCF                  CNVSOSCF        .... on
   Start iteration      SOSCFMaxIt      ....   150
   Startup grad/error   SOSCFStart      ....  0.003300
 Level Shifting         CNVShift        .... on
   Level shift para.    LevelShift      ....    0.2500
   Turn off err/grad.   ShiftErr        ....    0.0010
 Zerner damping         CNVZerner       .... off
 Static damping         CNVDamp         .... on
   Fraction old density DampFac         ....    0.7000
   Max. Damping (<1)    DampMax         ....    0.9800
   Min. Damping (>=0)   DampMin         ....    0.0000
   Turn off err/grad.   DampErr         ....    0.1000
 Fernandez-Rico         CNVRico         .... off

SCF Procedure:
 Maximum # iterations   MaxIter         ....   125
 SCF integral mode      SCFMode         .... Direct
   Integral package                     .... LIBINT
 Reset frequency        DirectResetFreq ....    20
 Integral Threshold     Thresh          ....  2.500e-11 Eh
 Primitive CutOff       TCut            ....  2.500e-12 Eh

Convergence Tolerance:
 Convergence Check Mode ConvCheckMode   .... Total+1el-Energy
 Convergence forced     ConvForced      .... 1
 Energy Change          TolE            ....  1.000e-08 Eh
 1-El. energy change                    ....  1.000e-05 Eh
 Orbital Gradient       TolG            ....  1.000e-05
 Orbital Rotation angle TolX            ....  1.000e-05
 DIIS Error             TolErr          ....  5.000e-07


Diagonalization of the overlap matrix:
Smallest eigenvalue                        ... 9.505e-05
Time for diagonalization                   ...    0.446 sec
Threshold for overlap eigenvalues          ... 1.000e-08
Number of eigenvalues below threshold      ... 0
Time for construction of square roots      ...    0.319 sec
Total time needed                          ...    0.772 sec

-------------------
DFT GRID GENERATION
-------------------

General Integration Accuracy     IntAcc      ...  4.670
Radial Grid Type                 RadialGrid  ... Gauss-Chebyshev
Angular Grid (max. acc.)         AngularGrid ... Lebedev-302
Angular grid pruning method      GridPruning ... 3 (G Style)
Weight generation scheme         WeightScheme... Becke
Basis function cutoff            BFCut       ...    1.0000e-11
Integration weight cutoff        WCut        ...    1.0000e-14
Grids for H and He will be reduced by one unit

# of grid points (after initial pruning)     ... 806148 (   0.1 sec)
# of grid points (after weights+screening)   ... 684946 (  20.6 sec)
nearest neighbour list constructed           ...    0.0 sec
Grid point re-assignment to atoms done       ...    0.1 sec
Grid point division into batches done        ...    2.3 sec
Reduced shell lists constructed in    3.8 sec

Total number of grid points                  ...   684946
Total number of batches                      ...    10769
Average number of points per batch           ...       63
Average number of grid points per atom       ...     4628
Average number of shells per batch           ...    98.30 (12.41%)
Average number of basis functions per batch  ...   206.37 (11.81%)
Average number of large shells per batch     ...    60.24 (61.29%)
Average number of large basis fcns per batch ...   129.48 (62.74%)
Maximum spatial batch extension              ...  20.24, 21.59, 17.29 au
Average spatial batch extension              ...   0.31,  0.33,  0.28 au

Time for grid setup =   25.108 sec

------------------------------
INITIAL GUESS: MODEL POTENTIAL
------------------------------
Loading Hartree-Fock densities                     ... done
Calculating cut-offs                               ... done
Setting up the integral package                    ... done
Initializing the effective Hamiltonian             ... done
Starting the Coulomb interaction                   ... done (   3.2 sec)
Reading the grid                                   ... done
Mapping shells                                     ... done
Starting the XC term evaluation                    ... done (   2.2 sec)
  promolecular density results
     # of electrons  =    869.977639920
     EX              =   -940.845406802
     EC              =    -31.320595286
     EX+EC           =   -972.166002088
Transforming the Hamiltonian                       ... done (   0.2 sec)
Diagonalizing the Hamiltonian                      ... done (   0.4 sec)
Back transforming the eigenvectors                 ... done (   0.1 sec)
Now organizing SCF variables                       ... done
                      ------------------
                      INITIAL GUESS DONE (  31.5 sec)
                      ------------------
--------------------
COSX GRID GENERATION
--------------------

General Integration Accuracy     IntAcc      ...  3.340
Radial Grid Type                 RadialGrid  ... Gauss-Chebyshev
Angular Grid (max. acc.)         AngularGrid ... Lebedev-50
Angular grid pruning method      GridPruning ... 3 (G Style)
Weight generation scheme         WeightScheme... Becke
Basis function cutoff            BFCut       ...    1.0000e-11
Integration weight cutoff        WCut        ...    1.0000e-14
Grids for H and He will be reduced by one unit

# of grid points (after initial pruning)     ...  76612 (   0.0 sec)
# of grid points (after weights+screening)   ...  68341 (   1.9 sec)
nearest neighbour list constructed           ...    0.0 sec
Grid point re-assignment to atoms done       ...    0.0 sec
Grid point division into batches done        ...    0.0 sec
Reduced shell lists constructed in    0.2 sec

Total number of grid points                  ...    68341
Total number of batches                      ...     1151
Average number of points per batch           ...       59
Average number of grid points per atom       ...      462
Average number of shells per batch           ...   113.16 (14.29%)
Average number of basis functions per batch  ...   239.00 (13.67%)
Average number of large shells per batch     ...    68.68 (60.69%)
Average number of large basis fcns per batch ...   149.27 (62.46%)
Maximum spatial batch extension              ...  16.03, 33.22, 18.02 au
Average spatial batch extension              ...   0.61,  0.78,  0.53 au

Overlap Fitting                  UseSFitting ... on
Constructing numerical overlap ... done (      0.2 sec)
Inverting numerical overlap    ... done (      0.1 sec)
Obtaining analytic overlap     ... done (      0.0 sec)
Final contraction and storage  ... done (      0.2 sec)


General Integration Accuracy     IntAcc      ...  3.670
Radial Grid Type                 RadialGrid  ... Gauss-Chebyshev
Angular Grid (max. acc.)         AngularGrid ... Lebedev-50
Angular grid pruning method      GridPruning ... 3 (G Style)
Weight generation scheme         WeightScheme... Becke
Basis function cutoff            BFCut       ...    1.0000e-11
Integration weight cutoff        WCut        ...    1.0000e-14
Grids for H and He will be reduced by one unit

# of grid points (after initial pruning)     ...  95560 (   0.0 sec)
# of grid points (after weights+screening)   ...  84938 (   2.4 sec)
nearest neighbour list constructed           ...    0.0 sec
Grid point re-assignment to atoms done       ...    0.0 sec
Grid point division into batches done        ...    0.0 sec
Reduced shell lists constructed in    0.3 sec

Total number of grid points                  ...    84938
Total number of batches                      ...     1389
Average number of points per batch           ...       61
Average number of grid points per atom       ...      574
Average number of shells per batch           ...   113.95 (14.39%)
Average number of basis functions per batch  ...   240.62 (13.77%)
Average number of large shells per batch     ...    68.67 (60.26%)
Average number of large basis fcns per batch ...   149.15 (61.99%)
Maximum spatial batch extension              ...  15.46, 18.73, 14.90 au
Average spatial batch extension              ...   0.59,  0.73,  0.51 au

Overlap Fitting                  UseSFitting ... on
Constructing numerical overlap ... done (      0.2 sec)
Inverting numerical overlap    ... done (      0.1 sec)
Obtaining analytic overlap     ... done (      0.0 sec)
Final contraction and storage  ... done (      0.2 sec)


General Integration Accuracy     IntAcc      ...  4.010
Radial Grid Type                 RadialGrid  ... Gauss-Chebyshev
Angular Grid (max. acc.)         AngularGrid ... Lebedev-110
Angular grid pruning method      GridPruning ... 3 (G Style)
Weight generation scheme         WeightScheme... Becke
Basis function cutoff            BFCut       ...    1.0000e-11
Integration weight cutoff        WCut        ...    1.0000e-14
Grids for H and He will be reduced by one unit

# of grid points (after initial pruning)     ... 184884 (   0.0 sec)
# of grid points (after weights+screening)   ... 162165 (   4.9 sec)
nearest neighbour list constructed           ...    0.0 sec
Grid point re-assignment to atoms done       ...    0.0 sec
Grid point division into batches done        ...    0.1 sec
Reduced shell lists constructed in    0.5 sec

Total number of grid points                  ...   162165
Total number of batches                      ...     2609
Average number of points per batch           ...       62
Average number of grid points per atom       ...     1096
Average number of shells per batch           ...   107.41 (13.56%)
Average number of basis functions per batch  ...   226.51 (12.96%)
Average number of large shells per batch     ...    65.74 (61.21%)
Average number of large basis fcns per batch ...   142.48 (62.90%)
Maximum spatial batch extension              ...  19.39, 31.52, 20.03 au
Average spatial batch extension              ...   0.47,  0.55,  0.43 au

Overlap Fitting                  UseSFitting ... on
Constructing numerical overlap ... done (      0.3 sec)
Inverting numerical overlap    ... done (      0.1 sec)
Obtaining analytic overlap     ... done (      0.0 sec)
Final contraction and storage  ... done (      0.2 sec)

Time for X-Grid setup             =   12.241 sec
--------------
SCF ITERATIONS
--------------
ITER       Energy         Delta-E        Max-DP      RMS-DP      [F,P]     Damp
               ***  Starting incremental Fock matrix formation  ***
  0 -11123.8026585619   0.000000000000 0.06505173  0.00072706  0.1538628 0.7000
  1 -11124.5580698648  -0.755411302885 0.04246860  0.00050561  0.0885053 0.7000
[...]
  24   4.342     285.5   0.009860   0.008417   1.693138   0.903501     0.66 ( 138-> 141)    0.10 ( 138-> 142)    0.03 ( 135-> 139)
  25   4.353     284.8   0.033510   0.030095  -23.567350  -24.143511     0.65 ( 124-> 139)    0.10 ( 128-> 139)    0.03 ( 122-> 139)
  26   4.385     282.7   0.015655   0.014031  21.912727  22.471147     0.63 ( 122-> 139)    0.08 ( 127-> 139)    0.06 ( 124-> 139)
  27   4.419     280.6   0.068924   0.073691  133.631790  147.953017     0.30 ( 137-> 145)    0.14 ( 136-> 142)    0.11 ( 122-> 139)
  28   4.513     274.7   0.528740   0.442426  -71.202546  -73.325473     0.25 ( 135-> 143)    0.21 ( 138-> 146)    0.21 ( 134-> 143)
  29   4.527     273.9   0.015052   0.012283  -2.621719  -1.899342     0.69 ( 120-> 139)    0.04 ( 118-> 139)    0.02 ( 124-> 139)
  30   4.571     271.3   0.006932   0.003974  -23.583682  -17.686382     0.33 ( 118-> 139)    0.20 ( 119-> 139)    0.11 ( 126-> 140)
  31   4.572     271.2   0.010386   0.008519  16.397400  17.498058     0.77 ( 126-> 140)    0.05 ( 118-> 139)    0.04 ( 119-> 139)
  32   4.588     270.2   0.033814   0.031641  -1.365161   4.119731     0.25 ( 119-> 139)    0.13 ( 130-> 140)    0.08 ( 127-> 140)
  33   4.604     269.3   0.035819   0.032515  -50.985393  -44.128479     0.23 ( 118-> 139)    0.21 ( 119-> 139)    0.15 ( 130-> 140)
  34   4.629     267.9   0.012639   0.011380  -48.575428  -45.827333     0.20 ( 117-> 139)    0.15 ( 116-> 139)    0.09 ( 130-> 140)
  35   4.647     266.8   0.032136   0.027766  -67.850662  -74.357774     0.44 ( 125-> 140)    0.13 ( 138-> 149)    0.08 ( 131-> 140)
  36   4.661     266.0   0.173327   0.145390  171.250890  191.888269     0.13 ( 121-> 140)    0.12 ( 119-> 139)    0.08 ( 135-> 141)
  37   4.682     264.8   0.030180   0.025355   2.212702  -2.413856     0.46 ( 113-> 139)    0.13 ( 115-> 139)    0.12 ( 118-> 139)
  38   4.698     263.9   0.111014   0.097766  -133.148448  -141.355595     0.15 ( 130-> 140)    0.14 ( 121-> 140)    0.11 ( 127-> 140)
  39   4.738     261.7   0.041109   0.035757  -0.359482   0.340753     0.70 ( 133-> 139)    0.19 ( 138-> 149)    0.04 ( 125-> 140)
  40   4.747     261.2   0.122290   0.106169  -42.865591  -37.045895     0.48 ( 138-> 149)    0.27 ( 133-> 139)    0.07 ( 125-> 140)
  41   4.772     259.8   0.071360   0.058893  28.371506  23.178135     0.24 ( 137-> 147)    0.19 ( 136-> 147)    0.09 ( 136-> 142)
  42   4.787     259.0   0.198410   0.168307  -124.793950  -108.451599     0.13 ( 136-> 147)    0.09 ( 137-> 147)    0.08 ( 114-> 139)
  43   4.798     258.4   0.046524   0.039283  189.453599  182.061962     0.26 ( 137-> 143)    0.21 ( 136-> 143)    0.05 ( 121-> 140)
  44   4.817     257.4   0.041100   0.031905  12.724628  10.656280     0.54 ( 137-> 148)    0.15 ( 136-> 148)    0.06 ( 114-> 139)
  45   4.827     256.9   0.130460   0.099128  115.210059  95.172878     0.27 ( 114-> 139)    0.11 ( 137-> 148)    0.10 ( 121-> 139)
  46   4.861     255.1   0.033480   0.026714  91.837793  85.593797     0.19 ( 127-> 140)    0.15 ( 137-> 143)    0.13 ( 116-> 140)
  47   4.901     253.0   0.049380   0.039136  78.661852  70.714582     0.11 ( 123-> 140)    0.09 ( 134-> 141)    0.07 ( 135-> 141)
  48   4.915     252.3   0.042321   0.034559  -138.279814  -127.945381     0.37 ( 123-> 140)    0.15 ( 121-> 140)    0.07 ( 125-> 140)
  49   4.946     250.7   0.096792   0.073332   9.351411   8.671330     0.25 ( 130-> 141)    0.12 ( 131-> 139)    0.11 ( 121-> 139)
  50   4.961     249.9   0.066724   0.054425  -51.273020  -40.379496     0.33 ( 138-> 142)    0.15 ( 132-> 142)    0.11 ( 128-> 142)
  51   4.965     249.7   0.055400   0.044741   0.116849   4.596190     0.48 ( 138-> 142)    0.14 ( 132-> 142)    0.09 ( 128-> 142)
  52   4.976     249.1   0.014564   0.011688  -21.513274  -16.818902     0.69 ( 131-> 139)    0.03 ( 130-> 139)    0.02 ( 135-> 141)
  53   4.991     248.4   0.033065   0.024011  11.964290  12.659883     0.29 ( 133-> 143)    0.13 ( 123-> 140)    0.13 ( 117-> 140)

-----------------------------------------------------------------------------
         ABSORPTION SPECTRUM VIA TRANSITION ELECTRIC DIPOLE MOMENTS
-----------------------------------------------------------------------------
State   Energy  Wavelength   fosc         T2         TX        TY        TZ  
        (cm-1)    (nm)                  (au**2)     (au)      (au)      (au) 
-----------------------------------------------------------------------------
   0   19139.4    522.5   1.072015640  18.43944  -3.64322  -1.53821  -1.67340
   1   21382.1    467.7   0.191127326   2.94272  -0.17382  -0.40679  -1.65741
   2   22141.5    451.6   0.308934201   4.59340  -0.70076  -2.00167  -0.30925
   3   24517.8    407.9   0.583069544   7.82914  -2.43517  -0.83542  -1.09598
   4   25863.0    386.7   0.024745678   0.31499  -0.40612  -0.08930  -0.37693
   5   26963.2    370.9   0.004004361   0.04889  -0.20975   0.05523  -0.04299
   6   27812.7    359.5   0.541890493   6.41423  -2.26364  -0.51901  -1.01034
   7   29020.0    344.6   0.134111834   1.52141  -0.21648   0.95947   0.74429
   8   29101.5    343.6   0.425445507   4.81286   1.12795  -1.54516  -1.07381
   9   29151.8    343.0   0.867793873   9.80002   1.09139   1.23541  -2.66132
  10   30359.4    329.4   0.036661172   0.39755  -0.28155  -0.00850   0.56410
  11   31998.2    312.5   0.009475664   0.09749   0.03466  -0.04394  -0.30718
  12   32045.9    312.1   0.044976956   0.46205  -0.52996  -0.04069   0.42372
  13   32071.0    311.8   0.001096192   0.01125   0.08728   0.05962  -0.00897
  14   32235.8    310.2   0.016633506   0.16987  -0.09415  -0.05029   0.39809
  15   32509.1    307.6   0.013389600   0.13559  -0.00657  -0.04396   0.36554
  16   32588.0    306.9   0.000133060   0.00134   0.00210  -0.01526   0.03327
  17   33120.9    301.9   0.016118238   0.16021  -0.00129   0.36651   0.16087
  18   33148.2    301.7   0.030184422   0.29978  -0.47354  -0.26464  -0.07420
  19   33587.0    297.7   0.056889701   0.55762   0.00977   0.03569   0.74582
  20   34075.9    293.5   0.361639608   3.49385   1.46944   1.05207   0.47723
  21   34487.4    290.0   0.269333628   2.57102   1.50000   0.39109   0.40996
  22   34691.9    288.3   0.015147047   0.14374   0.32625   0.17280   0.08626
  23   34976.1    285.9   0.063138392   0.59429   0.70337  -0.02769   0.31430
  24   35020.4    285.5   0.009859925   0.09269  -0.25969  -0.09751  -0.12547
  25   35108.6    284.8   0.033510108   0.31422   0.18006   0.02767   0.53013
  26   35368.8    282.7   0.015654617   0.14571  -0.07894   0.06168   0.36834
  27   35639.3    280.6   0.068923554   0.63667  -0.04155  -0.16381  -0.77981
  28   36399.9    274.7   0.528739981   4.78209  -1.97967  -0.21744  -0.90318
  29   36514.2    273.9   0.015051631   0.13571   0.12043  -0.00467   0.34811
  30   36864.2    271.3   0.006932114   0.06191  -0.24562   0.02018  -0.03418
  31   36874.3    271.2   0.010385880   0.09272  -0.20381   0.08920  -0.20791
  32   37004.3    270.2   0.033814049   0.30083   0.18694   0.51526   0.01967
  33   37134.9    269.3   0.035818540   0.31754  -0.19681  -0.52572  -0.04928
  34   37334.1    267.9   0.012639112   0.11145   0.19218  -0.14821   0.22924
  35   37476.8    266.8   0.032136359   0.28230   0.13257  -0.30310   0.41576
  36   37595.5    266.0   0.173326720   1.51777  -1.18185   0.34238   0.06143
  37   37764.1    264.8   0.030179699   0.26309   0.41437  -0.08736   0.28942
  38   37893.0    263.9   0.111013937   0.96448   0.47170   0.86112   0.02121
  39   38217.7    261.7   0.041109463   0.35412   0.56647   0.01273   0.18187
  40   38290.7    261.2   0.122290206   1.05142   0.95965   0.07851   0.35261
  41   38486.9    259.8   0.071360077   0.61041   0.48121   0.15264   0.59627
  42   38608.9    259.0   0.198409681   1.69181   0.41297   0.05045   1.23236
  43   38698.7    258.4   0.046524323   0.39578   0.45807  -0.30717  -0.30266
  44   38851.7    257.4   0.041100161   0.34826   0.53651   0.15529  -0.19053
  45   38930.2    256.9   0.130460151   1.10323   0.71968  -0.05272  -0.76323
  46   39206.5    255.1   0.033479517   0.28112  -0.36381   0.37687   0.08204
  47   39529.9    253.0   0.049379597   0.41124  -0.60840  -0.17570   0.10108
  48   39639.3    252.3   0.042321135   0.35149  -0.14470   0.55424   0.15287
  49   39893.6    250.7   0.096791871   0.79875   0.03529   0.12050   0.88486
  50   40017.2    249.9   0.066723852   0.54892   0.60978   0.35714  -0.22259
  51   40043.5    249.7   0.055399673   0.45546   0.57304   0.27639  -0.22515
  52   40137.0    249.1   0.014563967   0.11946  -0.23466   0.03944  -0.25068
  53   40257.4    248.4   0.033065341   0.27040  -0.51549   0.05314   0.04299

-----------------------------------------------------------------------------
         ABSORPTION SPECTRUM VIA TRANSITION VELOCITY DIPOLE MOMENTS
-----------------------------------------------------------------------------
State   Energy  Wavelength   fosc         P2         PX        PY        PZ  
        (cm-1)    (nm)                  (au**2)     (au)      (au)      (au) 
-----------------------------------------------------------------------------
   0   19139.4    522.5   1.173758542   0.15354  -0.33204  -0.14085  -0.15312
   1   21382.1    467.7   0.185365047   0.02709  -0.01918  -0.04045  -0.15838
   2   22141.5    451.6   0.325967795   0.04933  -0.07452  -0.20647  -0.03382
   3   24517.8    407.9   0.554359537   0.09289  -0.26554  -0.09031  -0.11927
   4   25863.0    386.7   0.023463791   0.00415  -0.04633  -0.01408  -0.04245
   5   26963.2    370.9   0.003130791   0.00058  -0.02244   0.00777  -0.00358
   6   27812.7    359.5   0.488649034   0.09289  -0.27262  -0.06246  -0.12108
   7   29020.0    344.6   0.128287257   0.02544  -0.02903   0.12486   0.09492
   8   29101.5    343.6   0.408897875   0.08133   0.15021  -0.20212  -0.13384
   9   29151.8    343.0   0.807482168   0.16088   0.13579   0.16244  -0.34067
  10   30359.4    329.4   0.029415876   0.00610  -0.03486   0.00089   0.06991
  11   31998.2    312.5   0.008087156   0.00177  -0.00041  -0.00773  -0.04134
  12   32045.9    312.1   0.038964064   0.00853  -0.06913  -0.00198   0.06125
  13   32071.0    311.8   0.001193254   0.00026   0.01326   0.00893   0.00241
  14   32235.8    310.2   0.014205285   0.00313  -0.01777  -0.01112   0.05187
  15   32509.1    307.6   0.012541869   0.00279   0.00477  -0.00527   0.05231
  16   32588.0    306.9   0.000323431   0.00007   0.00118  -0.00185   0.00820
  17   33120.9    301.9   0.014169828   0.00321   0.00124   0.05206   0.02226
  18   33148.2    301.7   0.022671680   0.00514  -0.06044  -0.03682  -0.01132
  19   33587.0    297.7   0.040662471   0.00933  -0.00039   0.00330   0.09656
  20   34075.9    293.5   0.317286600   0.07389   0.21928   0.14478   0.06965
  21   34487.4    290.0   0.234664860   0.05531   0.22105   0.05729   0.05625
  22   34691.9    288.3   0.011427009   0.00271   0.04182   0.02918   0.01045
  23   34976.1    285.9   0.052268104   0.01249   0.10240  -0.00595   0.04442
  24   35020.4    285.5   0.008417404   0.00201  -0.03805  -0.01528  -0.01826
  25   35108.6    284.8   0.030095063   0.00722   0.02885   0.00585   0.07972
  26   35368.8    282.7   0.014031080   0.00339  -0.01355   0.00759   0.05613
  27   35639.3    280.6   0.073690981   0.01795  -0.00232  -0.02416  -0.13176
  28   36399.9    274.7   0.442425607   0.11006  -0.29982  -0.03351  -0.13801
  29   36514.2    273.9   0.012283487   0.00307   0.01737   0.00082   0.05257
  30   36864.2    271.3   0.003974337   0.00100  -0.03149  -0.00014  -0.00316
  31   36874.3    271.2   0.008519374   0.00215  -0.03051   0.01583  -0.03108
  32   37004.3    270.2   0.031641017   0.00800   0.02995   0.08415   0.00494
  33   37134.9    269.3   0.032514843   0.00825  -0.03547  -0.08312  -0.00927
  34   37334.1    267.9   0.011379964   0.00290   0.03072  -0.02447   0.03689
  35   37476.8    266.8   0.027765640   0.00711   0.02130  -0.04578   0.06755
  36   37595.5    266.0   0.145390229   0.03736  -0.18411   0.05645   0.01653
  37   37764.1    264.8   0.025354554   0.00654   0.06361  -0.01226   0.04845
  38   37893.0    263.9   0.097766014   0.02532   0.07777   0.13882   0.00046
  39   38217.7    261.7   0.035757372   0.00934   0.09208   0.00186   0.02929
  40   38290.7    261.2   0.106169255   0.02778   0.15628   0.01204   0.05671
  41   38486.9    259.8   0.058893010   0.01549   0.07399   0.02839   0.09597
  42   38608.9    259.0   0.168307177   0.04441   0.06597   0.00632   0.20005
  43   38698.7    258.4   0.039282577   0.01039   0.07421  -0.04780  -0.05098
  44   38851.7    257.4   0.031904868   0.00847   0.08541   0.02117  -0.02699
  45   38930.2    256.9   0.099127668   0.02637   0.11373  -0.00885  -0.11559
  46   39206.5    255.1   0.026713643   0.00716  -0.05790   0.05999   0.01435
  47   39529.9    253.0   0.039135732   0.01057  -0.09745  -0.02798   0.01716
  48   39639.3    252.3   0.034559416   0.00936  -0.02247   0.09085   0.02458
  49   39893.6    250.7   0.073331583   0.01999   0.00429   0.01861   0.14010
  50   40017.2    249.9   0.054425190   0.01489   0.10168   0.05814  -0.03416
  51   40043.5    249.7   0.044741336   0.01224   0.09538   0.04485  -0.03372
  52   40137.0    249.1   0.011688484   0.00321  -0.03860   0.00754  -0.04073
  53   40257.4    248.4   0.024011039   0.00661  -0.08015   0.01064   0.00834

-------------------------------------------------------------------
                             CD SPECTRUM
-------------------------------------------------------------------
State   Energy Wavelength       R         MX        MY        MZ   
        (cm-1)   (nm)       (1e40*cgs)   (au)      (au)      (au)  
-------------------------------------------------------------------
   0   19139.4    522.5    -24.45012   1.17537  -4.67221   1.67381
   1   21382.1    467.7    227.12832   0.26130  -2.40242   1.14360
   2   22141.5    451.6    -138.57699  -1.07059  -1.10356   7.66789
   3   24517.8    407.9    -81.24708   0.11287  -1.25814   0.39375
   4   25863.0    386.7      8.71969   0.39593  -0.93550  -0.10682
   5   26963.2    370.9      5.62806   0.23105  -0.11309  -0.71720
   6   27812.7    359.5    -56.17647   1.51544  -2.67729  -2.25587
   7   29020.0    344.6    -367.26028  -1.06402   5.91965  -5.84723
   8   29101.5    343.6    3561.97416  -2.80745   0.14695  10.91178
   9   29151.8    343.0    -3109.41244   1.27472  -3.33094  -5.98006
  10   30359.4    329.4     43.05984  -0.07741   0.98824  -0.34758
  11   31998.2    312.5     12.27135   0.09024  -0.59736   0.26510
  12   32045.9    312.1     38.54202  -0.30510   1.50657  -0.62280
  13   32071.0    311.8     -0.90645  -0.12091   0.21554  -0.17243
  14   32235.8    310.2    -20.06986   0.21263  -0.06839   0.25553
  15   32509.1    307.6    -14.57053  -0.42625   1.25974   0.31293
  16   32588.0    306.9     -0.18839  -0.12479   0.34116   0.18833
  17   33120.9    301.9    -14.96095  -0.02958   1.23835  -2.42702
  18   33148.2    301.7      8.12838  -0.56980   0.92022   0.81906
  19   33587.0    297.7      2.34187   0.20614   0.41444  -0.03585
  20   34075.9    293.5    -93.29896   0.17166   1.41967  -2.82890
  21   34487.4    290.0    -95.75363   0.04022   0.50407   0.36284
  22   34691.9    288.3      5.44030   0.12410  -0.01495  -0.70695
  23   34976.1    285.9    -39.90608  -0.31430   0.63127   1.29760
  24   35020.4    285.5      1.69314   0.19431  -0.44466   0.00066
  25   35108.6    284.8    -23.56735   0.25621   0.53008   0.07391
  26   35368.8    282.7     21.91273  -0.22564   0.85252  -0.44348
  27   35639.3    280.6    133.63179  -0.27445  -1.37951   1.03139
  28   36399.9    274.7    -71.20255   1.70236  -3.09021  -3.32186
  29   36514.2    273.9     -2.62172   0.17443  -0.12829  -0.03012
  30   36864.2    271.3    -23.58368  -0.44688   0.28507   0.45245
  31   36874.3    271.2     16.39740   0.52775  -0.82042  -0.53473
  32   37004.3    270.2     -1.36516   0.16479   0.03540  -2.19879
  33   37134.9    269.3    -50.98539  -0.15430  -0.55584   2.15699
  34   37334.1    267.9    -48.57543  -0.04326   0.17038   1.04536
  35   37476.8    266.8    -67.85066  -1.12370   1.97077   2.48734
  36   37595.5    266.0    171.25089   0.52324   0.39330  -3.95167
  37   37764.1    264.8      2.21270  -0.25231   0.79587   0.56905
  38   37893.0    263.9    -133.14845   0.37631   0.54813  -3.99196
  39   38217.7    261.7     -0.35948  -0.47095   0.49168   1.44085
  40   38290.7    261.2    -42.86559  -0.71694   0.77221   2.29499
  41   38486.9    259.8     28.37151   0.21506   0.75264  -0.56809
  42   38608.9    259.0    -124.79395  -0.48286   2.95340   0.47049
  43   38698.7    258.4    189.45360  -0.50050  -0.58016   2.48686
  44   38851.7    257.4     12.72463  -0.03242   0.06143   0.24208
  45   38930.2    256.9    115.21006   0.20925  -1.63409   0.95057
  46   39206.5    255.1     91.83779   0.43215  -0.13574  -2.20904
  47   39529.9    253.0     78.66185   0.57991  -0.41535  -0.53287
  48   39639.3    252.3    -138.27981  -0.06127   2.15660  -4.03930
  49   39893.6    250.7      9.35141  -0.68385   2.76764  -0.39446
  50   40017.2    249.9    -51.27302  -0.98630   1.75381  -0.86519
  51   40043.5    249.7      0.11685  -0.90294   1.49122  -0.46528
  52   40137.0    249.1    -21.51327   0.65067  -1.29661  -1.17715
  53   40257.4    248.4     11.96429  -0.01232   0.71857  -2.21670

sTD-DFT done

Total run time:       10.549 sec

           *** ORCA-CIS/TD-DFT FINISHED WITHOUT ERROR ***

-------------------------   --------------------
FINAL SINGLE POINT ENERGY    -11125.515785542531
-------------------------   --------------------


                            ***************************************
                            *     ORCA property calculations      *
                            ***************************************

                                    ---------------------
                                    Active property flags
                                    ---------------------
   (+) Dipole Moment


------------------------------------------------------------------------------
                       ORCA ELECTRIC PROPERTIES CALCULATION
------------------------------------------------------------------------------

Dipole Moment Calculation                       ... on
Quadrupole Moment Calculation                   ... off
Polarizability Calculation                      ... off
GBWName                                         ... xtbopt.gbw
Electron density file                           ... xtbopt.scfp
The origin for moment calculation is the CENTER OF MASS  = (23.490055,  6.699789  0.095216)

-------------
DIPOLE MOMENT
-------------
                                X             Y             Z
Electronic contribution:      4.56000      17.66520     -23.57123
Nuclear contribution   :     -5.79617     -20.21151      25.25032
                        -----------------------------------------
Total Dipole Moment    :     -1.23616      -2.54632       1.67909
                        -----------------------------------------
Magnitude (a.u.)       :      3.29108
Magnitude (Debye)      :      8.36525



--------------------
Rotational spectrum 
--------------------
 
Rotational constants in cm-1:     0.000694     0.000097     0.000094 
Rotational constants in MHz :    20.817156     2.912617     2.806207 

 Dipole components along the rotational axes: 
x,y,z [a.u.] :     1.370646     2.189332     2.039444 
x,y,z [Debye]:     3.483904     5.564839     5.183856 

 

Timings for individual modules:

Sum of individual times         ...     1698.969 sec (=  28.316 min)
GTO integral calculation        ...        5.537 sec (=   0.092 min)   0.3 %
SCF iterations                  ...     1681.120 sec (=  28.019 min)  98.9 %
CIS module                      ...       12.311 sec (=   0.205 min)   0.7 %
                             ****ORCA TERMINATED NORMALLY****
TOTAL RUN TIME: 0 days 0 hours 28 minutes 21 seconds 242 msec
