
                                 *****************
                                 * O   R   C   A *
                                 *****************

           --- An Ab Initio, DFT and Semiempirical electronic structure package ---

                  #######################################################
                  #                        -***-                        #
                  #          Department of theory and spectroscopy      #
                  #               Directorship: Frank Neese             #
                  #        Max Planck Institute fuer Kohlenforschung    #
                  #                Kaiser Wilhelm Platz 1               #
                  #                 D-45470 Muelheim/Ruhr               #
                  #                      Germany                        #
                  #                                                     #
                  #                  All rights reserved                #
                  #                        -***-                        #
                  #######################################################


                         Program Version 4.2.0 -  RELEASE  -


 With contributions from (in alphabetic order):
   Daniel Aravena         : Magnetic Suceptibility
   Michael Atanasov       : Ab Initio Ligand Field Theory (pilot matlab implementation)
   Alexander A. Auer      : GIAO ZORA, VPT2
   Ute Becker             : Parallelization
   Giovanni Bistoni       : ED, misc. LED, open-shell LED, HFLED
   Martin Brehm           : Molecular dynamics
   Dmytro Bykov           : SCF Hessian
   Vijay G. Chilkuri      : MRCI spin determinant printing, contributions to CSF-ICE
   Dipayan Datta          : RHF DLPNO-CCSD density
   Achintya Kumar Dutta   : EOM-CC, STEOM-CC
   Dmitry Ganyushin       : Spin-Orbit,Spin-Spin,Magnetic field MRCI
   Miquel Garcia          : C-PCM Hessian, Gaussian charge scheme
   Yang Guo               : DLPNO-NEVPT2, CIM, IAO-localization
   Andreas Hansen         : Spin unrestricted coupled pair/coupled cluster methods
   Benjamin Helmich-Paris : CASSCF linear response (MC-RPA)
   Lee Huntington         : MR-EOM, pCC
   Robert Izsak           : Overlap fitted RIJCOSX, COSX-SCS-MP3, EOM
   Christian Kollmar      : KDIIS, OOCD, Brueckner-CCSD(T), CCSD density
   Simone Kossmann        : Meta GGA functionals, TD-DFT gradient, OOMP2, MP2 Hessian
   Martin Krupicka        : AUTO-CI
   Lucas Lang             : DCDCAS
   Dagmar Lenk            : GEPOL surface, SMD
   Dimitrios Liakos       : Extrapolation schemes; Compound Job, initial MDCI parallelization
   Dimitrios Manganas     : Further ROCIS development; embedding schemes
   Dimitrios Pantazis     : SARC Basis sets
   Taras Petrenko         : DFT Hessian,TD-DFT gradient, ASA, ECA, R-Raman, ABS, FL, XAS/XES, NRVS
   Peter Pinski           : DLPNO-MP2, DLPNO-MP2 Gradient
   Christoph Reimann      : Effective Core Potentials
   Marius Retegan         : Local ZFS, SOC
   Christoph Riplinger    : Optimizer, TS searches, QM/MM, DLPNO-CCSD(T), (RO)-DLPNO pert. Triples
   Tobias Risthaus        : Range-separated hybrids, TD-DFT gradient, RPA, STAB
   Michael Roemelt        : Original ROCIS implementation
   Masaaki Saitow         : Open-shell DLPNO-CCSD energy and density
   Barbara Sandhoefer     : DKH picture change effects
   Avijit Sen             : IP-ROCIS
   Kantharuban Sivalingam : CASSCF convergence, NEVPT2, FIC-MRCI
   Bernardo de Souza      : ESD, SOC TD-DFT
   Georgi Stoychev        : AutoAux, RI-MP2 NMR
   Willem Van den Heuvel  : Paramagnetic NMR
   Boris Wezisla          : Elementary symmetry handling
   Frank Wennmohs         : Technical directorship


 We gratefully acknowledge several colleagues who have allowed us to
 interface, adapt or use parts of their codes:
   Stefan Grimme, W. Hujo, H. Kruse,             : VdW corrections, initial TS optimization,
                  C. Bannwarth                     DFT functionals, gCP, sTDA/sTD-DF
   Ed Valeev, F. Pavosevic, A. Kumar             : LibInt (2-el integral package), F12 methods
   Garnet Chan, S. Sharma, J. Yang, R. Olivares  : DMRG
   Ulf Ekstrom                                   : XCFun DFT Library
   Mihaly Kallay                                 : mrcc  (arbitrary order and MRCC methods)
   Andreas Klamt, Michael Diedenhofen            : otool_cosmo (COSMO solvation model)
   Jiri Pittner, Ondrej Demel                    : Mk-CCSD
   Frank Weinhold                                : gennbo (NPA and NBO analysis)
   Christopher J. Cramer and Donald G. Truhlar   : smd solvation model
   Lars Goerigk                                  : TD-DFT with DH, B97 family of functionals
   V. Asgeirsson, H. Jonsson                     : NEB implementation
   FAccTs GmbH                                   : IRC, NEB, NEB-TS, Multilevel, MM, QM/MM, CI optimization
   S Lehtola, MJT Oliveira, MAL Marques          : LibXC Library


 Your calculation uses the libint2 library for the computation of 2-el integrals
 For citations please refer to: http://libint.valeyev.net

 Your ORCA version has been built with support for libXC version: 4.2.3
 For citations please refer to: https://tddft.org/programs/libxc/

 This ORCA versions uses:
   CBLAS   interface :  Fast vector & matrix operations
   LAPACKE interface :  Fast linear algebra routines
   SCALAPACK package :  Parallel linear algebra routines


XCFun DFT library Copyright 2009-2010 Ulf Ekstrom and contributors.
See http://admol.org/xcfun for more information. This is free soft-
ware; see the source code for copying conditions. There is ABSOLUTELY
NO WARRANTY; not even for MERCHANTABILITY or FITNESS FOR A PARTICULAR
PURPOSE. For details see the documentation. Scientific users of this 
library should cite U. Ekstrom, L. Visscher, R. Bast, A. J. Thorvald-
sen and K. Ruud; J.Chem.Theor.Comp. 2010, DOI: 10.1021/ct100117s
XCFun Version 0.99 
----- Orbital basis set information -----
Your calculation utilizes the basis: def2-SVP
   F. Weigend and R. Ahlrichs, Phys. Chem. Chem. Phys. 7, 3297 (2005).

----- AuxJ basis set information -----
Your calculation utilizes the auxiliary basis: def2/J
   F. Weigend, Phys. Chem. Chem. Phys. 8, 1057 (2006).

================================================================================
                                        WARNINGS
                       Please study these warnings very carefully!
================================================================================

INFO   : Checking CIS options ...

WARNING: CIS/ROCIS methods need fully converged wavefunctions
  ===> : Setting SCFConvForced true
         You can overwrite this default with %scf ConvForced false 


INFO   : the flag for use of LIBINT has been found!

================================================================================
                                       INPUT FILE
================================================================================
NAME = xtbopt.inp
|  1> # ORCA input file
|  2> # SCF done       -186.325543564650          0.000764454911
|  3> ! CAM-B3LYP def2-SVP def2/J RIJCOSX Grid4 TightSCF
|  4> %maxcore 5000
|  5> %tddft
|  6>     Mode sTDDFT
|  7>     Ethresh 5.0
|  8>     maxcore 5000
|  9> end
| 10> 
| 11> %pal
| 12>   nprocs 6
| 13>   end
| 14> * xyz 0 1
| 15>    C       -1.07205        -1.21312         0.28845
| 16>    O       -0.68424        -2.31757        -0.02124
| 17>    C       -0.21263        -0.04460         0.58097
| 18>    C       -1.00852         1.08650         0.82918
| 19>    C       -0.39975         2.30161         1.11370
| 20>    C        0.98447         2.36264         1.14995
| 21>    C        1.75086         1.22987         0.90480
| 22>    C        1.16583         0.00586         0.61177
| 23>   Br        3.64475         1.36227         0.97227
| 24>    C       -2.41246         0.70347         0.72676
| 25>    C       -3.47993         1.51178         1.01036
| 26>    C       -3.36622         2.86735         1.38729
| 27>    N       -3.33842         3.97288         1.69392
| 28>    C       -4.83389         1.11068         0.99754
| 29>    N       -5.95454         0.86367         1.02659
| 30>    C       -2.46440        -0.70335         0.35503
| 31>    C       -3.57674        -1.36384        -0.06800
| 32>    C       -3.72949        -2.76414        -0.34700
| 33>    C       -3.05260        -3.75690         0.38160
| 34>    C       -3.27736        -5.07984         0.08808
| 35>    C       -4.19300        -5.43829        -0.92009
| 36>    C       -4.87722        -4.46545        -1.63883
| 37>    C       -4.65334        -3.14110        -1.33688
| 38>    C       -4.30045        -6.87912        -0.96019
| 39>    C       -3.46211        -7.41405         0.03143
| 40>    C       -2.70163        -6.31568         0.74293
| 41>    C       -1.20423        -6.50974         0.40585
| 42>    C       -0.25133        -5.46166         0.96353
| 43>    C       -2.95119        -6.33112         2.25890
| 44>    C       -4.43537        -6.29420         2.60583
| 45>    C       -3.39827        -8.77177         0.23325
| 46>    C       -4.18439        -9.62469        -0.55317
| 47>    C       -5.01785        -9.07827        -1.53615
| 48>    C       -5.07879        -7.71583        -1.74770
| 49>    C       -4.13978       -11.06664        -0.34246
| 50>    C       -3.03762       -11.72618         0.16226
| 51>    C       -2.99692       -13.10852         0.39629
| 52>    C       -4.05915       -13.95438         0.14655
| 53>    C       -5.21514       -13.32701        -0.39382
| 54>    C       -5.24937       -11.90318        -0.64106
| 55>    N       -6.44299       -11.62734        -1.13102
| 56>    O       -7.10444       -12.77754        -1.19087
| 57>    N       -6.38723       -13.81293        -0.75341
| 58>    C       -4.02410       -15.36309         0.41503
| 59>    C       -5.02803       -16.26043         0.17283
| 60>    C       -4.72165       -17.58745         0.56357
| 61>    C       -3.41967       -17.65657         1.12536
| 62>    S       -2.62122       -16.11203         1.14076
| 63>    C       -2.80636       -18.79526         1.63365
| 64>    O       -1.55926       -18.58622         2.10781
| 65>    C       -0.79106       -19.62265         2.67485
| 66>    C       -3.56128       -19.98924         1.58731
| 67>    C       -4.86070       -19.92037         1.01367
| 68>    C       -5.46703       -18.78290         0.49949
| 69>    O       -6.71267       -18.99613         0.00927
| 70>    C       -7.46037       -17.96798        -0.59475
| 71>    S       -5.67274       -21.45710         1.02116
| 72>    C       -4.29002       -22.19900         1.80021
| 73>    C       -3.27354       -21.30101         2.02263
| 74>    C       -4.29947       -23.57430         2.14123
| 75>    C       -5.41973       -24.47876         1.86008
| 76>    N       -5.24424       -25.70093         2.26011
| 77>    C       -4.00758       -25.72019         2.83739
| 78>    C       -3.37652       -24.38403         2.77528
| 79>    C       -2.08074       -24.43450         3.39339
| 80>    S       -0.96262       -23.24549         3.59496
| 81>    C       -1.94044       -25.80816         3.83401
| 82>    C       -3.15396       -26.57877         3.47148
| 83>    N       -3.03618       -27.86856         3.88486
| 84>    C       -1.86477       -27.93807         4.46243
| 85>    C       -1.12545       -26.68799         4.46891
| 86>    H       -0.97424         3.19380         1.30061
| 87>    H        1.47365         3.29921         1.36937
| 88>    H        1.75478        -0.87699         0.41682
| 89>    H       -4.46458        -0.77065        -0.25586
| 90>    H       -2.41091        -3.47023         1.19767
| 91>    H       -5.58698        -4.74290        -2.40318
| 92>    H       -5.18168        -2.36884        -1.87710
| 93>    H       -1.10797        -6.52850        -0.68286
| 94>    H       -0.90908        -7.49367         0.77937
| 95>    H       -0.45596        -4.48186         0.54441
| 96>    H        0.76822        -5.73264         0.69724
| 97>    H       -0.30985        -5.40778         2.04762
| 98>    H       -2.46009        -5.46786         2.70881
| 99>    H       -2.50109        -7.23230         2.68057
|100>    H       -4.90177        -5.39758         2.20305
|101>    H       -4.56727        -6.29410         3.68537
|102>    H       -4.95083        -7.16043         2.19684
|103>    H       -2.77920        -9.17831         1.01875
|104>    H       -5.62126        -9.74031        -2.13557
|105>    H       -5.72536        -7.31188        -2.51165
|106>    H       -2.14328       -11.16188         0.37781
|107>    H       -2.08767       -13.53410         0.79522
|108>    H       -5.94791       -15.93089        -0.26831
|109>    H       -0.59153       -20.41797         1.95296
|110>    H       -1.26804       -20.03685         3.56606
|111>    H        0.15044       -19.15450         2.95923
|112>    H       -8.37762       -18.44843        -0.93373
|113>    H       -6.93784       -17.54251        -1.45545
|114>    H       -7.71193       -17.17995         0.12002
|115>    H       -2.36366       -21.62124         2.49368
|116>    H       -6.32746       -24.18155         1.36307
|117>    H       -1.52049       -28.86665         4.88372
|118>    H       -0.15205       -26.54008         4.89362
|119> *
|120> 
|121>                          ****END OF INPUT****
================================================================================

                       ****************************
                       * Single Point Calculation *
                       ****************************

---------------------------------
CARTESIAN COORDINATES (ANGSTROEM)
---------------------------------
  C     -1.072050   -1.213120    0.288450
  O     -0.684240   -2.317570   -0.021240
  C     -0.212630   -0.044600    0.580970
  C     -1.008520    1.086500    0.829180
  C     -0.399750    2.301610    1.113700
  C      0.984470    2.362640    1.149950
  C      1.750860    1.229870    0.904800
  C      1.165830    0.005860    0.611770
  Br     3.644750    1.362270    0.972270
  C     -2.412460    0.703470    0.726760
  C     -3.479930    1.511780    1.010360
  C     -3.366220    2.867350    1.387290
  N     -3.338420    3.972880    1.693920
  C     -4.833890    1.110680    0.997540
  N     -5.954540    0.863670    1.026590
  C     -2.464400   -0.703350    0.355030
  C     -3.576740   -1.363840   -0.068000
  C     -3.729490   -2.764140   -0.347000
  C     -3.052600   -3.756900    0.381600
  C     -3.277360   -5.079840    0.088080
  C     -4.193000   -5.438290   -0.920090
  C     -4.877220   -4.465450   -1.638830
  C     -4.653340   -3.141100   -1.336880
  C     -4.300450   -6.879120   -0.960190
  C     -3.462110   -7.414050    0.031430
  C     -2.701630   -6.315680    0.742930
  C     -1.204230   -6.509740    0.405850
  C     -0.251330   -5.461660    0.963530
  C     -2.951190   -6.331120    2.258900
  C     -4.435370   -6.294200    2.605830
  C     -3.398270   -8.771770    0.233250
  C     -4.184390   -9.624690   -0.553170
  C     -5.017850   -9.078270   -1.536150
  C     -5.078790   -7.715830   -1.747700
  C     -4.139780  -11.066640   -0.342460
  C     -3.037620  -11.726180    0.162260
  C     -2.996920  -13.108520    0.396290
  C     -4.059150  -13.954380    0.146550
  C     -5.215140  -13.327010   -0.393820
  C     -5.249370  -11.903180   -0.641060
  N     -6.442990  -11.627340   -1.131020
  O     -7.104440  -12.777540   -1.190870
  N     -6.387230  -13.812930   -0.753410
  C     -4.024100  -15.363090    0.415030
  C     -5.028030  -16.260430    0.172830
  C     -4.721650  -17.587450    0.563570
  C     -3.419670  -17.656570    1.125360
  S     -2.621220  -16.112030    1.140760
  C     -2.806360  -18.795260    1.633650
  O     -1.559260  -18.586220    2.107810
  C     -0.791060  -19.622650    2.674850
  C     -3.561280  -19.989240    1.587310
  C     -4.860700  -19.920370    1.013670
  C     -5.467030  -18.782900    0.499490
  O     -6.712670  -18.996130    0.009270
  C     -7.460370  -17.967980   -0.594750
  S     -5.672740  -21.457100    1.021160
  C     -4.290020  -22.199000    1.800210
  C     -3.273540  -21.301010    2.022630
  C     -4.299470  -23.574300    2.141230
  C     -5.419730  -24.478760    1.860080
  N     -5.244240  -25.700930    2.260110
  C     -4.007580  -25.720190    2.837390
  C     -3.376520  -24.384030    2.775280
  C     -2.080740  -24.434500    3.393390
  S     -0.962620  -23.245490    3.594960
  C     -1.940440  -25.808160    3.834010
  C     -3.153960  -26.578770    3.471480
  N     -3.036180  -27.868560    3.884860
  C     -1.864770  -27.938070    4.462430
  C     -1.125450  -26.687990    4.468910
  H     -0.974240    3.193800    1.300610
  H      1.473650    3.299210    1.369370
  H      1.754780   -0.876990    0.416820
  H     -4.464580   -0.770650   -0.255860
  H     -2.410910   -3.470230    1.197670
  H     -5.586980   -4.742900   -2.403180
  H     -5.181680   -2.368840   -1.877100
  H     -1.107970   -6.528500   -0.682860
  H     -0.909080   -7.493670    0.779370
  H     -0.455960   -4.481860    0.544410
  H      0.768220   -5.732640    0.697240
  H     -0.309850   -5.407780    2.047620
  H     -2.460090   -5.467860    2.708810
  H     -2.501090   -7.232300    2.680570
  H     -4.901770   -5.397580    2.203050
  H     -4.567270   -6.294100    3.685370
  H     -4.950830   -7.160430    2.196840
  H     -2.779200   -9.178310    1.018750
  H     -5.621260   -9.740310   -2.135570
  H     -5.725360   -7.311880   -2.511650
  H     -2.143280  -11.161880    0.377810
  H     -2.087670  -13.534100    0.795220
  H     -5.947910  -15.930890   -0.268310
  H     -0.591530  -20.417970    1.952960
  H     -1.268040  -20.036850    3.566060
  H      0.150440  -19.154500    2.959230
  H     -8.377620  -18.448430   -0.933730
  H     -6.937840  -17.542510   -1.455450
  H     -7.711930  -17.179950    0.120020
  H     -2.363660  -21.621240    2.493680
  H     -6.327460  -24.181550    1.363070
  H     -1.520490  -28.866650    4.883720
  H     -0.152050  -26.540080    4.893620

----------------------------
CARTESIAN COORDINATES (A.U.)
----------------------------
  NO LB      ZA    FRAG     MASS         X           Y           Z
   0 C     6.0000    0    12.011   -2.025881   -2.292465    0.545092
   1 O     8.0000    0    15.999   -1.293026   -4.379573   -0.040138
   2 C     6.0000    0    12.011   -0.401812   -0.084282    1.097874
   3 C     6.0000    0    12.011   -1.905827    2.053187    1.566923
   4 C     6.0000    0    12.011   -0.755418    4.349413    2.104588
   5 C     6.0000    0    12.011    1.860379    4.464743    2.173091
   6 C     6.0000    0    12.011    3.308646    2.324117    1.709824
   7 C     6.0000    0    12.011    2.203099    0.011074    1.156078
   8 Br   35.0000    0    79.900    6.887579    2.574317    1.837324
   9 C     6.0000    0    12.011   -4.558889    1.329366    1.373377
  10 C     6.0000    0    12.011   -6.576115    2.856850    1.909304
  11 C     6.0000    0    12.011   -6.361234    5.418506    2.621598
  12 N     7.0000    0    14.007   -6.308700    7.507655    3.201045
  13 C     6.0000    0    12.011   -9.134728    2.098881    1.885077
  14 N     7.0000    0    14.007  -11.252450    1.632100    1.939974
  15 C     6.0000    0    12.011   -4.657041   -1.329139    0.670909
  16 C     6.0000    0    12.011   -6.759059   -2.577284   -0.128501
  17 C     6.0000    0    12.011   -7.047715   -5.223468   -0.655735
  18 C     6.0000    0    12.011   -5.768578   -7.099512    0.721119
  19 C     6.0000    0    12.011   -6.193313   -9.599506    0.166447
  20 C     6.0000    0    12.011   -7.923622  -10.276879   -1.738718
  21 C     6.0000    0    12.011   -9.216610   -8.438478   -3.096940
  22 C     6.0000    0    12.011   -8.793538   -5.935819   -2.526337
  23 C     6.0000    0    12.011   -8.126673  -12.999653   -1.814496
  24 C     6.0000    0    12.011   -6.542440  -14.010524    0.059394
  25 C     6.0000    0    12.011   -5.105341  -11.934906    1.403934
  26 C     6.0000    0    12.011   -2.275665  -12.301626    0.766945
  27 C     6.0000    0    12.011   -0.474945  -10.321042    1.820808
  28 C     6.0000    0    12.011   -5.576941  -11.964083    4.268702
  29 C     6.0000    0    12.011   -8.381635  -11.894314    4.924305
  30 C     6.0000    0    12.011   -6.421800  -16.576243    0.440779
  31 C     6.0000    0    12.011   -7.907351  -18.188028   -1.045340
  32 C     6.0000    0    12.011   -9.482362  -17.155444   -2.902903
  33 C     6.0000    0    12.011   -9.597522  -14.580806   -3.302674
  34 C     6.0000    0    12.011   -7.823050  -20.912919   -0.647156
  35 C     6.0000    0    12.011   -5.740270  -22.159269    0.306627
  36 C     6.0000    0    12.011   -5.663358  -24.771513    0.748880
  37 C     6.0000    0    12.011   -7.670682  -26.369957    0.276939
  38 C     6.0000    0    12.011   -9.855186  -25.184399   -0.744212
  39 C     6.0000    0    12.011   -9.919872  -22.493750   -1.211428
  40 N     7.0000    0    14.007  -12.175487  -21.972488   -2.137318
  41 O     8.0000    0    15.999  -13.425446  -24.146051   -2.250418
  42 N     7.0000    0    14.007  -12.070115  -26.102655   -1.423739
  43 C     6.0000    0    12.011   -7.604447  -29.032033    0.784293
  44 C     6.0000    0    12.011   -9.501600  -30.727760    0.326601
  45 C     6.0000    0    12.011   -8.922625  -33.235464    1.064993
  46 C     6.0000    0    12.011   -6.462240  -33.366082    2.126622
  47 S    16.0000    0    32.060   -4.953388  -30.447324    2.155724
  48 C     6.0000    0    12.011   -5.303252  -35.517894    3.087151
  49 O     8.0000    0    15.999   -2.946574  -35.122866    3.983184
  50 C     6.0000    0    12.011   -1.494887  -37.081435    5.054734
  51 C     6.0000    0    12.011   -6.729844  -37.774189    2.999581
  52 C     6.0000    0    12.011   -9.185392  -37.644044    1.915559
  53 C     6.0000    0    12.011  -10.331189  -35.494537    0.943899
  54 O     8.0000    0    15.999  -12.685108  -35.897483    0.017518
  55 C     6.0000    0    12.011  -14.098056  -33.954561   -1.123915
  56 S    16.0000    0    32.060  -10.719925  -40.548043    1.929713
  57 C     6.0000    0    12.011   -8.106963  -41.950030    3.401904
  58 C     6.0000    0    12.011   -6.186094  -40.253075    3.822217
  59 C     6.0000    0    12.011   -8.124821  -44.548971    4.046338
  60 C     6.0000    0    12.011  -10.241805  -46.258152    3.515042
  61 N     7.0000    0    14.007   -9.910177  -48.567719    4.270989
  62 C     6.0000    0    12.011   -7.573229  -48.604115    5.361890
  63 C     6.0000    0    12.011   -6.380698  -46.079139    5.244519
  64 C     6.0000    0    12.011   -3.932029  -46.174513    6.412578
  65 S    16.0000    0    32.060   -1.819088  -43.927610    6.793490
  66 C     6.0000    0    12.011   -3.666900  -48.770354    7.245229
  67 C     6.0000    0    12.011   -5.960121  -50.226596    6.560146
  68 N     7.0000    0    14.007   -5.737549  -52.663946    7.341321
  69 C     6.0000    0    12.011   -3.523905  -52.795301    8.432771
  70 C     6.0000    0    12.011   -2.126792  -50.432992    8.445016
  71 H     1.0000    0     1.008   -1.841047    6.035407    2.457797
  72 H     1.0000    0     1.008    2.784795    6.234603    2.587734
  73 H     1.0000    0     1.008    3.316054   -1.657271    0.787676
  74 H     1.0000    0     1.008   -8.436834   -1.456317   -0.483505
  75 H     1.0000    0     1.008   -4.555960   -6.557784    2.263268
  76 H     1.0000    0     1.008  -10.557862   -8.962782   -4.541352
  77 H     1.0000    0     1.008   -9.791956   -4.476459   -3.547205
  78 H     1.0000    0     1.008   -2.093760  -12.337077   -1.290418
  79 H     1.0000    0     1.008   -1.717912  -14.160984    1.472796
  80 H     1.0000    0     1.008   -0.861640   -8.469488    1.028786
  81 H     1.0000    0     1.008    1.451725  -10.833120    1.317593
  82 H     1.0000    0     1.008   -0.585532  -10.219223    3.869441
  83 H     1.0000    0     1.008   -4.648896  -10.332758    5.118909
  84 H     1.0000    0     1.008   -4.726375  -13.667066    5.065543
  85 H     1.0000    0     1.008   -9.263003  -10.199948    4.163161
  86 H     1.0000    0     1.008   -8.630889  -11.894125    6.964340
  87 H     1.0000    0     1.008   -9.355713  -13.531252    4.151426
  88 H     1.0000    0     1.008   -5.251927  -17.344492    1.925158
  89 H     1.0000    0     1.008  -10.622642  -18.406518   -4.035642
  90 H     1.0000    0     1.008  -10.819362  -13.817451   -4.746331
  91 H     1.0000    0     1.008   -4.050212  -21.092896    0.713957
  92 H     1.0000    0     1.008   -3.945125  -25.575742    1.502748
  93 H     1.0000    0     1.008  -11.239921  -30.105019   -0.507032
  94 H     1.0000    0     1.008   -1.117830  -38.584372    3.690560
  95 H     1.0000    0     1.008   -2.396248  -37.864159    6.738877
  96 H     1.0000    0     1.008    0.284290  -36.196759    5.592134
  97 H     1.0000    0     1.008  -15.831407  -34.862480   -1.764494
  98 H     1.0000    0     1.008  -13.110618  -33.150540   -2.750402
  99 H     1.0000    0     1.008  -14.573436  -32.465400    0.226805
 100 H     1.0000    0     1.008   -4.466670  -40.858222    4.712372
 101 H     1.0000    0     1.008  -11.957167  -45.696507    2.575829
 102 H     1.0000    0     1.008   -2.873310  -54.550063    9.228893
 103 H     1.0000    0     1.008   -0.287333  -50.153483    9.247602

--------------------------------
INTERNAL COORDINATES (ANGSTROEM)
--------------------------------
 C      0   0   0     0.000000000000     0.00000000     0.00000000
 O      1   0   0     1.210832067093     0.00000000     0.00000000
 C      1   2   0     1.479732974965   125.79200987     0.00000000
 C      3   1   2     1.405146364689   109.97575431   176.64957145
 C      4   3   1     1.388540548706   119.49152267   180.62511281
 C      5   4   3     1.386038863741   118.79913007   359.75029027
 C      6   5   4     1.389467533806   120.68618118     0.07246580
 C      3   1   2     1.379727082868   127.84694092   357.19348227
 Br     7   6   5     1.899710844576   119.13018793   180.22741814
 C      4   3   1     1.458852069574   108.74397647     0.70872294
 C     10   4   3     1.368680465631   125.51831633   174.38927394
 C     11  10   4     1.411586417440   124.03110618     3.10964453
 N     12  11  10     1.147602447627   176.76742498   176.47506585
 C     11  10   4     1.412180315682   125.32055810   184.55692309
 N     14  11  10     1.147917359874   175.47729459   169.26264633
 C     10   4   3     1.456030037087   107.81445402   357.92067062
 C     16  10   4     1.361066382143   125.26624822   192.43772449
 C     17  16  10     1.435971327186   128.35571428   185.49958634
 C     18  17  16     1.405208329644   122.47655203    34.50002418
 C     19  18  17     1.373623416952   119.39351756   177.99015588
 C     20  19  18     1.408293208462   120.29774812   359.04301914
 C     21  20  19     1.389662499170   120.81029939     0.37820843
 C     22  21  20     1.376662260469   118.68157498   359.32879604
 C     21  20  19     1.445387353411   108.77911058   183.69782623
 C     24  21  20     1.404376831516   108.40516287     0.58016164
 C     20  19  18     1.512479441513   129.20853675   181.54021661
 C     26  20  19     1.547090485395   112.12233872   288.60934680
 C     27  26  20     1.522332775316   116.08267631    66.54016134
 C     26  20  19     1.536451635457   111.93632807    55.14830349
 C     29  26  20     1.524635623256   112.48174434    59.52662306
 C     25  24  21     1.374121703635   120.51701609   178.39708579
 C     31  25  24     1.401397016266   119.52975258   359.57797054
 C     32  31  25     1.399814297827   119.37246097     0.28154588
 C     33  32  31     1.380112256195   121.28422635     0.11868437
 C     32  31  25     1.457946692681   120.24353044   180.67009026
 C     35  32  31     1.380033316844   123.36470653   332.39492993
 C     36  35  32     1.402601299907   123.72522664   178.50395811
 C     37  36  35     1.380645421569   123.45613677   359.92088520
 C     38  37  36     1.421937317149   115.08154999     0.95187300
 C     35  32  31     1.421320196050   121.86083909   152.05232424
 N     40  35  32     1.319423060129   131.39212168     0.56112624
 O     41  40  35     1.328178513981   106.63153364   181.02883653
 N     39  38  37     1.318794215410   131.57391916   179.65708704
 C     38  37  36     1.434494293122   123.29775132   181.43622477
 C     44  38  37     1.368121105933   126.37305235   181.14613101
 C     45  44  38     1.416872800360   114.00410013   181.12431772
 C     46  45  44     1.419696269946   110.67299897     0.14449509
 S     47  46  45     1.738782152571   112.41934342   359.47933271
 C     47  46  45     1.389648443420   126.11304469   178.82097880
 O     49  47  46     1.350475411550   114.15117698   179.86052163
 C     50  49  47     1.409202876274   122.06209454   179.27272223
 C     49  47  46     1.413378874329   116.39059139   359.69057281
 C     52  49  47     1.422075336577   117.41095908     0.81361248
 C     53  52  49     1.387751830192   126.04243516   359.51817212
 O     54  53  52     1.355507908830   113.98905472   179.89174575
 C     55  54  53     1.407475709524   121.90202133   182.29133600
 S     53  52  49     1.738103608707   112.47906999   179.95660485
 C     57  53  52     1.751927256167    90.43486666     0.40401611
 C     58  57  53     1.374441081640   112.27079669   359.59650444
 C     58  57  53     1.416980604278   120.84893633   179.11758762
 C     60  58  57     1.466995460695   123.87428310     1.16806249
 N     61  60  58     1.297890692585   114.72392392   180.58479510
 C     62  61  60     1.364899667228   105.43555083     0.04933040
 C     60  58  57     1.381853385096   132.43168303   181.76755351
 C     64  60  58     1.436542029110   145.13251121     0.04861243
 S     65  64  60     1.644556955353   129.83717552   359.07356596
 C     65  64  60     1.449403970603   104.56124728   178.87976050
 C     63  62  61     1.366710228578   140.44284776   179.12163248
 N     68  63  62     1.359526901867   142.29451917     0.03672683
 C     69  68  63     1.307906775386   105.20568479   180.63452437
 C     67  65  64     1.356984723201   144.57341306   180.92907538
 H      5   4   3     1.077486475228   121.76215955   179.41928836
 H      6   5   4     1.079168927323   119.75087294   179.98788201
 H      8   3   1     1.079023506463   120.75444678   359.44220245
 H     17  16  10     1.084170476124   117.23265067     7.71450471
 H     19  18  17     1.076993960011   119.46144117     1.52941896
 H     22  21  20     1.079337149643   120.66960858   180.71428397
 H     23  22  21     1.080447273864   119.89476580   180.57020120
 H     27  26  20     1.093118195485   107.72120783   304.38127997
 H     27  26  20     1.093045725393   107.44626443   188.80031587
 H     28  27  26     1.085146557521   111.22957049   296.29126224
 H     28  27  26     1.088036179086   108.99122121   177.47109725
 H     28  27  26     1.087004495345   111.45543631    58.52623530
 H     29  26  20     1.090328411856   109.02744388   298.51376937
 H     29  26  20     1.092026094606   108.80412527   180.99493614
 H     30  29  26     1.087974316241   110.67256021   300.51155708
 H     30  29  26     1.087568035389   110.11671519   180.69501399
 H     30  29  26     1.087807999879   110.88186170    60.71470839
 H     31  25  24     1.079598391301   120.36945022   182.13030478
 H     33  32  31     1.077824162886   118.95336830   180.14037869
 H     34  33  32     1.079281228365   120.29396712   179.85658658
 H     36  35  32     1.079231359858   119.01127415   357.39703264
 H     37  36  35     1.080277299493   118.31402966   180.07558628
 H     45  44  38     1.072091565866   120.05659112     0.63541251
 H     51  50  49     1.092461118484   111.66023229    61.81885274
 H     51  50  49     1.092394994725   111.66133095   298.13487435
 H     51  50  49     1.089246830108   105.07850068   179.98257221
 H     56  55  54     1.089535316270   104.98863883   176.86881871
 H     56  55  54     1.093099634892   111.61071767    58.67136785
 H     56  55  54     1.093238248233   111.60534742   294.95180097
 H     59  58  57     1.073460278632   120.19653216   180.04593875
 H     61  60  58     1.076720240870   124.19904186     0.60361592
 H     70  69  68     1.076231758916   120.34642745   179.99984317
 H     71  67  65     1.072270260802   129.87330973   359.47508879

---------------------------
INTERNAL COORDINATES (A.U.)
---------------------------
 C      0   0   0     0.000000000000     0.00000000     0.00000000
 O      1   0   0     2.288141000975     0.00000000     0.00000000
 C      1   2   0     2.796290074017   125.79200987     0.00000000
 C      3   1   2     2.655341807338   109.97575431   176.64957145
 C      4   3   1     2.623961362899   119.49152267   180.62511281
 C      5   4   3     2.619233863442   118.79913007   359.75029027
 C      6   5   4     2.625713110868   120.68618118     0.07246580
 C      3   1   2     2.607306326175   127.84694092   357.19348227
 Br     7   6   5     3.589933229889   119.13018793   180.22741814
 C      4   3   1     2.756830881399   108.74397647     0.70872294
 C     10   4   3     2.586431244890   125.51831633   174.38927394
 C     11  10   4     2.667511743324   124.03110618     3.10964453
 N     12  11  10     2.168654336633   176.76742498   176.47506585
 C     11  10   4     2.668634048354   125.32055810   184.55692309
 N     14  11  10     2.169249434536   175.47729459   169.26264633
 C     10   4   3     2.751498012858   107.81445402   357.92067062
 C     16  10   4     2.572042712337   125.26624822   192.43772449
 C     17  16  10     2.713592544545   128.35571428   185.49958634
 C     18  17  16     2.655458904132   122.47655203    34.50002418
 C     19  18  17     2.595772069181   119.39351756   177.99015588
 C     20  19  18     2.661288480254   120.29774812   359.04301914
 C     21  20  19     2.626081542012   120.81029939     0.37820843
 C     22  21  20     2.601514651192   118.68157498   359.32879604
 C     21  20  19     2.731386255380   108.77911058   183.69782623
 C     24  21  20     2.653887600390   108.40516287     0.58016164
 C     20  19  18     2.858171927646   129.20853675   181.54021661
 C     26  20  19     2.923577321792   112.12233872   288.60934680
 C     27  26  20     2.876792030039   116.08267631    66.54016134
 C     26  20  19     2.903472809030   111.93632807    55.14830349
 C     29  26  20     2.881143781973   112.48174434    59.52662306
 C     25  24  21     2.596713694547   120.51701609   178.39708579
 C     31  25  24     2.648256565638   119.52975258   359.57797054
 C     32  31  25     2.645265661240   119.37246097     0.28154588
 C     33  32  31     2.608034198277   121.28422635     0.11868437
 C     32  31  25     2.755119967024   120.24353044   180.67009026
 C     35  32  31     2.607885024523   123.36470653   332.39492993
 C     36  35  32     2.650532331906   123.72522664   178.50395811
 C     37  36  35     2.609041734818   123.45613677   359.92088520
 C     38  37  36     2.687072109014   115.08154999     0.95187300
 C     35  32  31     2.685905919146   121.86083909   152.05232424
 N     40  35  32     2.493348238424   131.39212168     0.56112624
 O     41  40  35     2.509893648382   106.63153364   181.02883653
 N     39  38  37     2.492159894125   131.57391916   179.65708704
 C     38  37  36     2.710801354674   123.29775132   181.43622477
 C     44  38  37     2.585374208251   126.37305235   181.14613101
 C     45  44  38     2.677501559282   114.00410013   181.12431772
 C     46  45  44     2.682837143548   110.67299897     0.14449509
 S     47  46  45     3.285822074910   112.41934342   359.47933271
 C     47  46  45     2.626054980494   126.11304469   178.82097880
 O     49  47  46     2.552028678423   114.15117698   179.86052163
 C     50  49  47     2.663007503293   122.06209454   179.27272223
 C     49  47  46     2.670898995952   116.39059139   359.69057281
 C     52  49  47     2.687332927934   117.41095908     0.81361248
 C     53  52  49     2.622470900910   126.04243516   359.51817212
 O     54  53  52     2.561538720053   113.98905472   179.89174575
 C     55  54  53     2.659743631147   121.90202133   182.29133600
 S     53  52  49     3.284539812836   112.47906999   179.95660485
 C     57  53  52     3.310662720707    90.43486666     0.40401611
 C     58  57  53     2.597317231510   112.27079669   359.59650444
 C     58  57  53     2.677705279164   120.84893633   179.11758762
 C     60  58  57     2.772219660419   123.87428310     1.16806249
 N     61  60  58     2.452657960752   114.72392392   180.58479510
 C     62  61  60     2.579286571342   105.43555083     0.04933040
 C     60  58  57     2.611324455063   132.43168303   181.76755351
 C     64  60  58     2.714671014886   145.13251121     0.04861243
 S     65  64  60     3.107762257253   129.83717552   359.07356596
 C     65  64  60     2.738976561858   104.56124728   178.87976050
 C     63  62  61     2.582708036442   140.44284776   179.12163248
 N     68  63  62     2.569133516227   142.29451917     0.03672683
 C     69  68  63     2.471585614179   105.20568479   180.63452437
 C     67  65  64     2.564329494764   144.57341306   180.92907538
 H      5   4   3     2.036154351186   121.76215955   179.41928836
 H      6   5   4     2.039333724878   119.75087294   179.98788201
 H      8   3   1     2.039058919279   120.75444678   359.44220245
 H     17  16  10     2.048785282358   117.23265067     7.71450471
 H     19  18  17     2.035223632308   119.46144117     1.52941896
 H     22  21  20     2.039651618993   120.66960858   180.71428397
 H     23  22  21     2.041749449745   119.89476580   180.57020120
 H     27  26  20     2.065694021473   107.72120783   304.38127997
 H     27  26  20     2.065557072846   107.44626443   188.80031587
 H     28  27  26     2.050629808882   111.22957049   296.29126224
 H     28  27  26     2.056090402271   108.99122121   177.47109725
 H     28  27  26     2.054140802543   111.45543631    58.52623530
 H     29  26  20     2.060422094441   109.02744388   298.51376937
 H     29  26  20     2.063630249901   108.80412527   180.99493614
 H     30  29  26     2.055973498436   110.67256021   300.51155708
 H     30  29  26     2.055205738892   110.11671519   180.69501399
 H     30  29  26     2.055659206059   110.88186170    60.71470839
 H     31  25  24     2.040145294181   120.36945022   182.13030478
 H     33  32  31     2.036792488377   118.95336830   180.14037869
 H     34  33  32     2.039545943091   120.29396712   179.85658658
 H     36  35  32     2.039451705270   119.01127415   357.39703264
 H     37  36  35     2.041428244734   118.31402966   180.07558628
 H     45  44  38     2.025959449973   120.05659112     0.63541251
 H     51  50  49     2.064452325893   111.66023229    61.81885274
 H     51  50  49     2.064327370096   111.66133095   298.13487435
 H     51  50  49     2.058378201146   105.07850068   179.98257221
 H     56  55  54     2.058923360986   104.98863883   176.86881871
 H     56  55  54     2.065658947034   111.61071767    58.67136785
 H     56  55  54     2.065920888289   111.60534742   294.95180097
 H     59  58  57     2.028545942257   120.19653216   180.04593875
 H     61  60  58     2.034706378095   124.19904186     0.60361592
 H     70  69  68     2.033783280980   120.34642745   179.99984317
 H     71  67  65     2.026297134464   129.87330973   359.47508879

---------------------
BASIS SET INFORMATION
---------------------
There are 6 groups of distinct atoms

 Group   1 Type C   : 7s4p1d contracted to 3s2p1d pattern {511/31/1}
 Group   2 Type O   : 7s4p1d contracted to 3s2p1d pattern {511/31/1}
 Group   3 Type Br  : 14s10p6d contracted to 5s4p3d pattern {63311/5311/411}
 Group   4 Type N   : 7s4p1d contracted to 3s2p1d pattern {511/31/1}
 Group   5 Type S   : 10s7p1d contracted to 4s3p1d pattern {5311/511/1}
 Group   6 Type H   : 4s1p contracted to 2s1p pattern {31/1}

Atom   0C    basis set group =>   1
Atom   1O    basis set group =>   2
Atom   2C    basis set group =>   1
Atom   3C    basis set group =>   1
Atom   4C    basis set group =>   1
Atom   5C    basis set group =>   1
Atom   6C    basis set group =>   1
Atom   7C    basis set group =>   1
Atom   8Br   basis set group =>   3
Atom   9C    basis set group =>   1
Atom  10C    basis set group =>   1
Atom  11C    basis set group =>   1
Atom  12N    basis set group =>   4
Atom  13C    basis set group =>   1
Atom  14N    basis set group =>   4
Atom  15C    basis set group =>   1
Atom  16C    basis set group =>   1
Atom  17C    basis set group =>   1
Atom  18C    basis set group =>   1
Atom  19C    basis set group =>   1
Atom  20C    basis set group =>   1
Atom  21C    basis set group =>   1
Atom  22C    basis set group =>   1
Atom  23C    basis set group =>   1
Atom  24C    basis set group =>   1
Atom  25C    basis set group =>   1
Atom  26C    basis set group =>   1
Atom  27C    basis set group =>   1
Atom  28C    basis set group =>   1
Atom  29C    basis set group =>   1
Atom  30C    basis set group =>   1
Atom  31C    basis set group =>   1
Atom  32C    basis set group =>   1
Atom  33C    basis set group =>   1
Atom  34C    basis set group =>   1
Atom  35C    basis set group =>   1
Atom  36C    basis set group =>   1
Atom  37C    basis set group =>   1
Atom  38C    basis set group =>   1
Atom  39C    basis set group =>   1
Atom  40N    basis set group =>   4
Atom  41O    basis set group =>   2
Atom  42N    basis set group =>   4
Atom  43C    basis set group =>   1
Atom  44C    basis set group =>   1
Atom  45C    basis set group =>   1
Atom  46C    basis set group =>   1
Atom  47S    basis set group =>   5
Atom  48C    basis set group =>   1
Atom  49O    basis set group =>   2
Atom  50C    basis set group =>   1
Atom  51C    basis set group =>   1
Atom  52C    basis set group =>   1
Atom  53C    basis set group =>   1
Atom  54O    basis set group =>   2
Atom  55C    basis set group =>   1
Atom  56S    basis set group =>   5
Atom  57C    basis set group =>   1
Atom  58C    basis set group =>   1
Atom  59C    basis set group =>   1
Atom  60C    basis set group =>   1
Atom  61N    basis set group =>   4
Atom  62C    basis set group =>   1
Atom  63C    basis set group =>   1
Atom  64C    basis set group =>   1
Atom  65S    basis set group =>   5
Atom  66C    basis set group =>   1
Atom  67C    basis set group =>   1
Atom  68N    basis set group =>   4
Atom  69C    basis set group =>   1
Atom  70C    basis set group =>   1
Atom  71H    basis set group =>   6
Atom  72H    basis set group =>   6
Atom  73H    basis set group =>   6
Atom  74H    basis set group =>   6
Atom  75H    basis set group =>   6
Atom  76H    basis set group =>   6
Atom  77H    basis set group =>   6
Atom  78H    basis set group =>   6
Atom  79H    basis set group =>   6
Atom  80H    basis set group =>   6
Atom  81H    basis set group =>   6
Atom  82H    basis set group =>   6
Atom  83H    basis set group =>   6
Atom  84H    basis set group =>   6
Atom  85H    basis set group =>   6
Atom  86H    basis set group =>   6
Atom  87H    basis set group =>   6
Atom  88H    basis set group =>   6
Atom  89H    basis set group =>   6
Atom  90H    basis set group =>   6
Atom  91H    basis set group =>   6
Atom  92H    basis set group =>   6
Atom  93H    basis set group =>   6
Atom  94H    basis set group =>   6
Atom  95H    basis set group =>   6
Atom  96H    basis set group =>   6
Atom  97H    basis set group =>   6
Atom  98H    basis set group =>   6
Atom  99H    basis set group =>   6
Atom 100H    basis set group =>   6
Atom 101H    basis set group =>   6
Atom 102H    basis set group =>   6
Atom 103H    basis set group =>   6
---------------------------------
AUXILIARY/J BASIS SET INFORMATION
---------------------------------
There are 6 groups of distinct atoms

 Group   1 Type C   : 12s5p4d2f1g contracted to 6s4p3d1f1g pattern {711111/2111/211/2/1}
 Group   2 Type O   : 12s5p4d2f1g contracted to 6s4p3d1f1g pattern {711111/2111/211/2/1}
 Group   3 Type Br  : 19s5p5d3f1g contracted to 8s4p3d2f1g pattern {121111111/2111/311/21/1}
 Group   4 Type N   : 12s5p4d2f1g contracted to 6s4p3d1f1g pattern {711111/2111/211/2/1}
 Group   5 Type S   : 14s5p5d2f1g contracted to 8s4p3d1f1g pattern {71111111/2111/311/2/1}
 Group   6 Type H   : 5s2p1d contracted to 3s1p1d pattern {311/2/1}

Atom   0C    basis set group =>   1
Atom   1O    basis set group =>   2
Atom   2C    basis set group =>   1
Atom   3C    basis set group =>   1
Atom   4C    basis set group =>   1
Atom   5C    basis set group =>   1
Atom   6C    basis set group =>   1
Atom   7C    basis set group =>   1
Atom   8Br   basis set group =>   3
Atom   9C    basis set group =>   1
Atom  10C    basis set group =>   1
Atom  11C    basis set group =>   1
Atom  12N    basis set group =>   4
Atom  13C    basis set group =>   1
Atom  14N    basis set group =>   4
Atom  15C    basis set group =>   1
Atom  16C    basis set group =>   1
Atom  17C    basis set group =>   1
Atom  18C    basis set group =>   1
Atom  19C    basis set group =>   1
Atom  20C    basis set group =>   1
Atom  21C    basis set group =>   1
Atom  22C    basis set group =>   1
Atom  23C    basis set group =>   1
Atom  24C    basis set group =>   1
Atom  25C    basis set group =>   1
Atom  26C    basis set group =>   1
Atom  27C    basis set group =>   1
Atom  28C    basis set group =>   1
Atom  29C    basis set group =>   1
Atom  30C    basis set group =>   1
Atom  31C    basis set group =>   1
Atom  32C    basis set group =>   1
Atom  33C    basis set group =>   1
Atom  34C    basis set group =>   1
Atom  35C    basis set group =>   1
Atom  36C    basis set group =>   1
Atom  37C    basis set group =>   1
Atom  38C    basis set group =>   1
Atom  39C    basis set group =>   1
Atom  40N    basis set group =>   4
Atom  41O    basis set group =>   2
Atom  42N    basis set group =>   4
Atom  43C    basis set group =>   1
Atom  44C    basis set group =>   1
Atom  45C    basis set group =>   1
Atom  46C    basis set group =>   1
Atom  47S    basis set group =>   5
Atom  48C    basis set group =>   1
Atom  49O    basis set group =>   2
Atom  50C    basis set group =>   1
Atom  51C    basis set group =>   1
Atom  52C    basis set group =>   1
Atom  53C    basis set group =>   1
Atom  54O    basis set group =>   2
Atom  55C    basis set group =>   1
Atom  56S    basis set group =>   5
Atom  57C    basis set group =>   1
Atom  58C    basis set group =>   1
Atom  59C    basis set group =>   1
Atom  60C    basis set group =>   1
Atom  61N    basis set group =>   4
Atom  62C    basis set group =>   1
Atom  63C    basis set group =>   1
Atom  64C    basis set group =>   1
Atom  65S    basis set group =>   5
Atom  66C    basis set group =>   1
Atom  67C    basis set group =>   1
Atom  68N    basis set group =>   4
Atom  69C    basis set group =>   1
Atom  70C    basis set group =>   1
Atom  71H    basis set group =>   6
Atom  72H    basis set group =>   6
Atom  73H    basis set group =>   6
Atom  74H    basis set group =>   6
Atom  75H    basis set group =>   6
Atom  76H    basis set group =>   6
Atom  77H    basis set group =>   6
Atom  78H    basis set group =>   6
Atom  79H    basis set group =>   6
Atom  80H    basis set group =>   6
Atom  81H    basis set group =>   6
Atom  82H    basis set group =>   6
Atom  83H    basis set group =>   6
Atom  84H    basis set group =>   6
Atom  85H    basis set group =>   6
Atom  86H    basis set group =>   6
Atom  87H    basis set group =>   6
Atom  88H    basis set group =>   6
Atom  89H    basis set group =>   6
Atom  90H    basis set group =>   6
Atom  91H    basis set group =>   6
Atom  92H    basis set group =>   6
Atom  93H    basis set group =>   6
Atom  94H    basis set group =>   6
Atom  95H    basis set group =>   6
Atom  96H    basis set group =>   6
Atom  97H    basis set group =>   6
Atom  98H    basis set group =>   6
Atom  99H    basis set group =>   6
Atom 100H    basis set group =>   6
Atom 101H    basis set group =>   6
Atom 102H    basis set group =>   6
Atom 103H    basis set group =>   6


           ************************************************************
           *        Program running with 6 parallel MPI-processes     *
           *              working on a common directory               *
           ************************************************************
------------------------------------------------------------------------------
                           ORCA GTO INTEGRAL CALCULATION
                           -- RI-GTO INTEGRALS CHOSEN --
------------------------------------------------------------------------------

                         BASIS SET STATISTICS AND STARTUP INFO

Gaussian basis set:
 # of primitive gaussian shells          ... 1053
 # of primitive gaussian functions       ... 2021
 # of contracted shells                  ...  537
 # of contracted basis functions         ... 1189
 Highest angular momentum                ...    2
 Maximum contraction depth               ...    6
Auxiliary gaussian basis set:
 # of primitive gaussian shells          ... 1986
 # of primitive gaussian functions       ... 5538
 # of contracted shells                  ... 1239
 # of contracted aux-basis functions     ... 3857
 Highest angular momentum                ...    4
 Maximum contraction depth               ...   12
Ratio of auxiliary to basis functions    ...  3.24
Integral package used                  ... LIBINT
 One Electron integrals                  ... done
 Ordering auxiliary basis shells         ... done
 Integral threshhold             Thresh  ...  2.500e-11
 Primitive cut-off               TCut    ...  2.500e-12
 Pre-screening matrix                    ... done
 Shell pair data                         ... 
 Ordering of the shell pairs             ... done (   0.010 sec) 46178 of 144453 pairs
 Determination of significant pairs      ... done (   0.000 sec)
 Creation of shell pair data             ... done (   0.006 sec)
 Storage of shell pair data              ... done (   0.022 sec)
 Shell pair data done in (   0.039 sec)
 Computing two index integrals           ... done
 Cholesky decomposition of the V-matrix  ... done


Timings:
 Total evaluation time                   ...   2.381 sec (  0.040 min)
 One electron matrix time                ...   0.609 sec (  0.010 min) = 25.6%
 Schwartz matrix evaluation time         ...   0.731 sec (  0.012 min) = 30.7%
 Two index repulsion integral time       ...   0.353 sec (  0.006 min) = 14.8%
 Cholesky decomposition of V             ...   0.632 sec (  0.011 min) = 26.5%
 Three index repulsion integral time     ...   0.000 sec (  0.000 min) =  0.0%



           ************************************************************
           *        Program running with 6 parallel MPI-processes     *
           *              working on a common directory               *
           ************************************************************
-------------------------------------------------------------------------------
                                 ORCA SCF
-------------------------------------------------------------------------------

------------
SCF SETTINGS
------------
Hamiltonian:
 Density Functional     Method          .... DFT(GTOs)
 Exchange Functional    Exchange        .... WB88
 Correlation Functional Correlation     .... LYP
 LDA part of GGA corr.  LDAOpt          .... VWN-5
 Gradients option       PostSCFGGA      .... off
 Hybrid DFT is turned on
   Fraction HF Exchange ScalHFX         ....  0.190000
   Scaling of DF-GGA-X  ScalDFX         ....  0.350000
   Scaling of DF-GGA-C  ScalDFC         ....  0.810000
   Scaling of DF-LDA-C  ScalLDAC        ....  1.000000
   Perturbative correction              ....  0.000000
   Density functional embedding theory  .... OFF
 Long-range corrected/Screened/Range-Separated Hybrid DFT is turned on
   Amount of maximum screened exact exchange              ....  0.460000
   Range separation parameter mu (erf(mu*r12)/r12)        ....  0.330000
 RI-approximation to the Coulomb term is turned on
   Number of auxiliary basis functions  .... 3857
   RIJ-COSX (HFX calculated with COS-X)).... on


General Settings:
 Integral files         IntName         .... xtbopt
 Hartree-Fock type      HFTyp           .... RHF
 Total Charge           Charge          ....    0
 Multiplicity           Mult            ....    1
 Number of Electrons    NEL             ....  532
 Basis Dimension        Dim             .... 1189
 Nuclear Repulsion      ENuc            ....  10267.0695036560 Eh

Convergence Acceleration:
 DIIS                   CNVDIIS         .... on
   Start iteration      DIISMaxIt       ....    12
   Startup error        DIISStart       ....  0.200000
   # of expansion vecs  DIISMaxEq       ....     5
   Bias factor          DIISBfac        ....   1.050
   Max. coefficient     DIISMaxC        ....  10.000
 Newton-Raphson         CNVNR           .... off
 SOSCF                  CNVSOSCF        .... on
   Start iteration      SOSCFMaxIt      ....   150
   Startup grad/error   SOSCFStart      ....  0.003300
 Level Shifting         CNVShift        .... on
   Level shift para.    LevelShift      ....    0.2500
   Turn off err/grad.   ShiftErr        ....    0.0010
 Zerner damping         CNVZerner       .... off
 Static damping         CNVDamp         .... on
   Fraction old density DampFac         ....    0.7000
   Max. Damping (<1)    DampMax         ....    0.9800
   Min. Damping (>=0)   DampMin         ....    0.0000
   Turn off err/grad.   DampErr         ....    0.1000
 Fernandez-Rico         CNVRico         .... off

SCF Procedure:
 Maximum # iterations   MaxIter         ....   125
 SCF integral mode      SCFMode         .... Direct
   Integral package                     .... LIBINT
 Reset frequency        DirectResetFreq ....    20
 Integral Threshold     Thresh          ....  2.500e-11 Eh
 Primitive CutOff       TCut            ....  2.500e-12 Eh

Convergence Tolerance:
 Convergence Check Mode ConvCheckMode   .... Total+1el-Energy
 Convergence forced     ConvForced      .... 1
 Energy Change          TolE            ....  1.000e-08 Eh
 1-El. energy change                    ....  1.000e-05 Eh
 Orbital Gradient       TolG            ....  1.000e-05
 Orbital Rotation angle TolX            ....  1.000e-05
 DIIS Error             TolErr          ....  5.000e-07


Diagonalization of the overlap matrix:
Smallest eigenvalue                        ... 1.325e-04
Time for diagonalization                   ...    0.241 sec
Threshold for overlap eigenvalues          ... 1.000e-08
Number of eigenvalues below threshold      ... 0
Time for construction of square roots      ...    0.172 sec
Total time needed                          ...    0.416 sec

-------------------
DFT GRID GENERATION
-------------------

General Integration Accuracy     IntAcc      ...  4.670
Radial Grid Type                 RadialGrid  ... Gauss-Chebyshev
Angular Grid (max. acc.)         AngularGrid ... Lebedev-302
Angular grid pruning method      GridPruning ... 3 (G Style)
Weight generation scheme         WeightScheme... Becke
Basis function cutoff            BFCut       ...    1.0000e-11
Integration weight cutoff        WCut        ...    1.0000e-14
Grids for H and He will be reduced by one unit

# of grid points (after initial pruning)     ... 558360 (   0.0 sec)
# of grid points (after weights+screening)   ... 477718 (   7.5 sec)
nearest neighbour list constructed           ...    0.0 sec
Grid point re-assignment to atoms done       ...    0.1 sec
Grid point division into batches done        ...    1.7 sec
Reduced shell lists constructed in    2.7 sec

Total number of grid points                  ...   477718
Total number of batches                      ...     7517
Average number of points per batch           ...       63
Average number of grid points per atom       ...     4593
Average number of shells per batch           ...    84.16 (15.67%)
Average number of basis functions per batch  ...   176.62 (14.85%)
Average number of large shells per batch     ...    51.98 (61.77%)
Average number of large basis fcns per batch ...   112.09 (63.46%)
Maximum spatial batch extension              ...  20.41, 18.76, 22.18 au
Average spatial batch extension              ...   0.33,  0.34,  0.38 au

Time for grid setup =   10.586 sec

------------------------------
INITIAL GUESS: MODEL POTENTIAL
------------------------------
Loading Hartree-Fock densities                     ... done
Calculating cut-offs                               ... done
Setting up the integral package                    ... done
Initializing the effective Hamiltonian             ... done
Starting the Coulomb interaction                   ... done (   1.4 sec)
Reading the grid                                   ... done
Mapping shells                                     ... done
Starting the XC term evaluation                    ... done (   1.6 sec)
  promolecular density results
     # of electrons  =    531.983373860
     EX              =   -537.433143937
     EC              =    -18.876916749
     EX+EC           =   -556.310060685
Transforming the Hamiltonian                       ... done (   0.1 sec)
Diagonalizing the Hamiltonian                      ... done (   0.2 sec)
Back transforming the eigenvectors                 ... done (   0.1 sec)
Now organizing SCF variables                       ... done
                      ------------------
                      INITIAL GUESS DONE (  14.1 sec)
                      ------------------
--------------------
COSX GRID GENERATION
--------------------

General Integration Accuracy     IntAcc      ...  3.340
Radial Grid Type                 RadialGrid  ... Gauss-Chebyshev
Angular Grid (max. acc.)         AngularGrid ... Lebedev-50
Angular grid pruning method      GridPruning ... 3 (G Style)
Weight generation scheme         WeightScheme... Becke
Basis function cutoff            BFCut       ...    1.0000e-11
Integration weight cutoff        WCut        ...    1.0000e-14
Grids for H and He will be reduced by one unit

# of grid points (after initial pruning)     ...  52496 (   0.0 sec)
# of grid points (after weights+screening)   ...  46953 (   0.7 sec)
nearest neighbour list constructed           ...    0.0 sec
Grid point re-assignment to atoms done       ...    0.0 sec
Grid point division into batches done        ...    0.0 sec
Reduced shell lists constructed in    0.1 sec

Total number of grid points                  ...    46953
Total number of batches                      ...      791
Average number of points per batch           ...       59
Average number of grid points per atom       ...      451
Average number of shells per batch           ...   101.75 (18.95%)
Average number of basis functions per batch  ...   214.62 (18.05%)
Average number of large shells per batch     ...    61.98 (60.91%)
Average number of large basis fcns per batch ...   135.14 (62.96%)
Maximum spatial batch extension              ...  15.59, 20.33, 23.49 au
Average spatial batch extension              ...   0.63,  0.71,  0.96 au

Overlap Fitting                  UseSFitting ... on
Constructing numerical overlap ... done (      0.1 sec)
Inverting numerical overlap    ... done (      0.1 sec)
Obtaining analytic overlap     ... done (      0.0 sec)
Final contraction and storage  ... done (      0.1 sec)


General Integration Accuracy     IntAcc      ...  3.670
Radial Grid Type                 RadialGrid  ... Gauss-Chebyshev
Angular Grid (max. acc.)         AngularGrid ... Lebedev-50
Angular grid pruning method      GridPruning ... 3 (G Style)
Weight generation scheme         WeightScheme... Becke
Basis function cutoff            BFCut       ...    1.0000e-11
Integration weight cutoff        WCut        ...    1.0000e-14
Grids for H and He will be reduced by one unit

# of grid points (after initial pruning)     ...  65602 (   0.0 sec)
# of grid points (after weights+screening)   ...  58447 (   0.9 sec)
nearest neighbour list constructed           ...    0.0 sec
Grid point re-assignment to atoms done       ...    0.0 sec
Grid point division into batches done        ...    0.0 sec
Reduced shell lists constructed in    0.2 sec

Total number of grid points                  ...    58447
Total number of batches                      ...      962
Average number of points per batch           ...       60
Average number of grid points per atom       ...      562
Average number of shells per batch           ...   100.77 (18.77%)
Average number of basis functions per batch  ...   212.51 (17.87%)
Average number of large shells per batch     ...    61.56 (61.08%)
Average number of large basis fcns per batch ...   134.48 (63.28%)
Maximum spatial batch extension              ...  16.63, 20.67, 23.67 au
Average spatial batch extension              ...   0.61,  0.66,  0.87 au

Overlap Fitting                  UseSFitting ... on
Constructing numerical overlap ... done (      0.1 sec)
Inverting numerical overlap    ... done (      0.1 sec)
Obtaining analytic overlap     ... done (      0.0 sec)
Final contraction and storage  ... done (      0.1 sec)


General Integration Accuracy     IntAcc      ...  4.010
Radial Grid Type                 RadialGrid  ... Gauss-Chebyshev
Angular Grid (max. acc.)         AngularGrid ... Lebedev-110
Angular grid pruning method      GridPruning ... 3 (G Style)
Weight generation scheme         WeightScheme... Becke
Basis function cutoff            BFCut       ...    1.0000e-11
Integration weight cutoff        WCut        ...    1.0000e-14
Grids for H and He will be reduced by one unit

# of grid points (after initial pruning)     ... 127694 (   0.0 sec)
# of grid points (after weights+screening)   ... 112611 (   1.8 sec)
nearest neighbour list constructed           ...    0.0 sec
Grid point re-assignment to atoms done       ...    0.0 sec
Grid point division into batches done        ...    0.1 sec
Reduced shell lists constructed in    0.3 sec

Total number of grid points                  ...   112611
Total number of batches                      ...     1817
Average number of points per batch           ...       61
Average number of grid points per atom       ...     1083
Average number of shells per batch           ...    93.20 (17.36%)
Average number of basis functions per batch  ...   196.82 (16.55%)
Average number of large shells per batch     ...    57.55 (61.75%)
Average number of large basis fcns per batch ...   125.38 (63.70%)
Maximum spatial batch extension              ...  16.16, 19.52, 18.70 au
Average spatial batch extension              ...   0.50,  0.53,  0.66 au

Overlap Fitting                  UseSFitting ... on
Constructing numerical overlap ... done (      0.2 sec)
Inverting numerical overlap    ... done (      0.1 sec)
Obtaining analytic overlap     ... done (      0.0 sec)
Final contraction and storage  ... done (      0.1 sec)

Time for X-Grid setup             =    5.125 sec
--------------
SCF ITERATIONS
--------------
ITER       Energy         Delta-E        Max-DP      RMS-DP      [F,P]     Damp
               ***  Starting incremental Fock matrix formation  ***
  0  -6584.6482417844   0.000000000000 0.08383223  0.00090831  0.2391253 0.7000
  1  -6585.1275859963  -0.479344211886 0.05181889  0.00065231  0.0977815 0.7000
                               ***Turning on DIIS***
  2  -6585.3459921857  -0.218406189382 0.09642148  0.00125750  0.0427507 0.0000
  3  -6585.7078390081  -0.361846822412 0.04986159  0.00045379  0.0498147 0.0000
  4  -6585.7702232483  -0.062384240207 0.01764304  0.00013921  0.0258250 0.0000
  5  -6585.7750481832  -0.004824934887 0.00749305  0.00006035  0.0116189 0.0000
  6  -6585.7764046630  -0.001356479879 0.00287199  0.00003738  0.0014593 0.0000
  7  -6585.7770077974  -0.000603134351 0.00238622  0.00002520  0.0011283 0.0000
  8  -6585.7773465658  -0.000338768421 0.00521698  0.00005315  0.0008311 0.0000
               *** Restarting incremental Fock matrix formation ***
                                   *** Resetting DIIS ***
                      *** Initiating the SOSCF procedure ***
                           *** Shutting down DIIS ***
                      *** Re-Reading the Fockian *** 
                      *** Removing any level shift *** 
ITER      Energy       Delta-E        Grad      Rot      Max-DP    RMS-DP
  9  -6585.77770023  -0.0003536632  0.000977  0.000977  0.002232  0.000022
               *** Restarting incremental Fock matrix formation ***
 10  -6585.77773337  -0.0000331402  0.000819  0.006657  0.002822  0.000022
 11  -6585.77770224   0.0000311274  0.001295  0.000904  0.001490  0.000013
 12  -6585.77777136  -0.0000691170  0.000153  0.001372  0.000717  0.000005
 13  -6585.77777199  -0.0000006354  0.000226  0.001164  0.000370  0.000003
 14  -6585.77777463  -0.0000026331  0.000036  0.000477  0.000193  0.000002
 15  -6585.77777463  -0.0000000023  0.000041  0.000063  0.000121  0.000001
 16  -6585.77777484  -0.0000002056  0.000006  0.000029  0.000032  0.000000
 17  -6585.77777478   0.0000000507  0.000006  0.000019  0.000016  0.000000
                  ***Gradient check signals convergence***
              ***Rediagonalizing the Fockian in SOSCF/NRSCF***

               *****************************************************
               *                     SUCCESS                       *
               *           SCF CONVERGED AFTER  18 CYCLES          *
               *****************************************************

Setting up the final grid:

General Integration Accuracy     IntAcc      ...  5.010
Radial Grid Type                 RadialGrid  ... Gauss-Chebyshev
Angular Grid (max. acc.)         AngularGrid ... Lebedev-434
Angular grid pruning method      GridPruning ... 3 (G Style)
Weight generation scheme         WeightScheme... Becke
Basis function cutoff            BFCut       ...    1.0000e-11
Integration weight cutoff        WCut        ...    1.0000e-14
Grids for H and He will be reduced by one unit

# of grid points (after initial pruning)     ... 988724 (   0.1 sec)
# of grid points (after weights+screening)   ... 842863 (  12.9 sec)
nearest neighbour list constructed           ...    0.0 sec
Grid point re-assignment to atoms done       ...    0.1 sec
Grid point division into batches done        ...    5.5 sec
Reduced shell lists constructed in    7.2 sec

Total number of grid points                  ...   842863
Total number of batches                      ...    13218
Average number of points per batch           ...       63
Average number of grid points per atom       ...     8104
Average number of shells per batch           ...    82.79 (15.42%)
Average number of basis functions per batch  ...   173.40 (14.58%)
Average number of large shells per batch     ...    51.16 (61.79%)
Average number of large basis fcns per batch ...   110.09 (63.49%)
Maximum spatial batch extension              ...  17.53, 17.52, 23.29 au
Average spatial batch extension              ...   0.28,  0.28,  0.31 au

Final grid set up in   20.7 sec
Final integration                            ... done (   3.5 sec)
Change in XC energy                          ...    -0.000174013
Integrated number of electrons               ...   532.000138730
Previous integrated no of electrons          ...   531.999779695
Old exchange energy                            =   -145.258442349 Eh
New exchange energy                            =   -145.257653704 Eh
Exchange energy change after final integration =      0.000788644 Eh
Total energy after final integration           =  -6585.777160180 Eh
Final COS-X integration done in                =    64.825 sec

----------------
TOTAL SCF ENERGY
----------------

Total Energy       :        -6585.77716018 Eh         -179208.10729 eV

Components:
Nuclear Repulsion  :        10267.06950366 Eh          279381.16466 eV
Electronic Energy  :       -16852.84666384 Eh         -458589.27195 eV
One Electron Energy:       -29506.63363838 Eh         -802916.32078 eV
Two Electron Energy:        12653.78697454 Eh          344327.04883 eV

Virial components:
Potential Energy   :       -13139.44171154 Eh         -357542.38607 eV
Kinetic Energy     :         6553.66455136 Eh          178334.27878 eV
Virial Ratio       :            2.00489995


DFT components:
N(Alpha)           :      266.000069365142 electrons
N(Beta)            :      266.000069365142 electrons
N(Total)           :      532.000138730284 electrons
E(XC)              :     -419.311377099959 Eh       
DFET-embed. en.    :        0.000000000000 Eh       

---------------
SCF CONVERGENCE
---------------

  Last Energy change         ...   -2.6446e-08  Tolerance :   1.0000e-08
  Last MAX-Density change    ...    8.4377e-15  Tolerance :   1.0000e-07
  Last RMS-Density change    ...    3.5894e-17  Tolerance :   5.0000e-09
  Last Orbital Gradient      ...    1.0994e-06  Tolerance :   1.0000e-05
  Last Orbital Rotation      ...    8.7648e-06  Tolerance :   1.0000e-05

             **** THE GBW FILE WAS UPDATED (xtbopt.gbw) ****
             **** DENSITY FILE WAS UPDATED (xtbopt.scfp) ****
             **** ENERGY FILE WAS UPDATED (xtbopt.en.tmp) ****
             **** THE GBW FILE WAS UPDATED (xtbopt.gbw) ****
             **** DENSITY FILE WAS UPDATED (xtbopt.scfp) ****
----------------
ORBITAL ENERGIES
----------------

  NO   OCC          E(Eh)            E(eV) 
   0   2.0000    -482.876243    -13139.7306 
   1   2.0000     -88.949509     -2420.4392 
   2   2.0000     -88.947437     -2420.3828 
   3   2.0000     -88.902632     -2419.1636 
   4   2.0000     -62.553940     -1702.1793 
   5   2.0000     -56.387783     -1534.3896 
   6   2.0000     -56.385254     -1534.3208 
   7   2.0000     -56.385240     -1534.3204 
   8   2.0000     -19.358699      -526.7770 
   9   2.0000     -19.250899      -523.8436 
  10   2.0000     -19.250233      -523.8255 
  11   2.0000     -19.226643      -523.1836 
  12   2.0000     -14.484305      -394.1380 
  13   2.0000     -14.483649      -394.1201 
  14   2.0000     -14.420555      -392.4033 
  15   2.0000     -14.420098      -392.3908 
  16   2.0000     -14.419566      -392.3764 
  17   2.0000     -14.410239      -392.1225 
  18   2.0000     -10.378182      -282.4047 
  19   2.0000     -10.349650      -281.6283 
  20   2.0000     -10.349411      -281.6218 
  21   2.0000     -10.347075      -281.5582 
  22   2.0000     -10.345863      -281.5253 
  23   2.0000     -10.340898      -281.3901 
  24   2.0000     -10.338788      -281.3327 
  25   2.0000     -10.338666      -281.3294 
  26   2.0000     -10.334614      -281.2191 
  27   2.0000     -10.330213      -281.0994 
  28   2.0000     -10.329976      -281.0929 
  29   2.0000     -10.328646      -281.0568 
  30   2.0000     -10.326339      -280.9940 
  31   2.0000     -10.323799      -280.9248 
  32   2.0000     -10.322982      -280.9026 
  33   2.0000     -10.322606      -280.8924 
  34   2.0000     -10.322190      -280.8811 
  35   2.0000     -10.321612      -280.8653 
  36   2.0000     -10.315334      -280.6945 
  37   2.0000     -10.313221      -280.6370 
  38   2.0000     -10.312156      -280.6080 
  39   2.0000     -10.309129      -280.5257 
  40   2.0000     -10.308442      -280.5070 
  41   2.0000     -10.308008      -280.4952 
  42   2.0000     -10.307519      -280.4819 
  43   2.0000     -10.307167      -280.4723 
  44   2.0000     -10.306743      -280.4607 
  45   2.0000     -10.304075      -280.3881 
  46   2.0000     -10.303596      -280.3751 
  47   2.0000     -10.298164      -280.2273 
  48   2.0000     -10.298050      -280.2242 
  49   2.0000     -10.297451      -280.2079 
  50   2.0000     -10.297189      -280.2008 
  51   2.0000     -10.296581      -280.1842 
  52   2.0000     -10.296247      -280.1751 
  53   2.0000     -10.295058      -280.1428 
  54   2.0000     -10.292349      -280.0690 
  55   2.0000     -10.291149      -280.0364 
  56   2.0000     -10.290338      -280.0143 
  57   2.0000     -10.289885      -280.0020 
  58   2.0000     -10.287757      -279.9441 
  59   2.0000     -10.287418      -279.9349 
  60   2.0000     -10.284504      -279.8556 
  61   2.0000     -10.284468      -279.8546 
  62   2.0000     -10.281265      -279.7675 
  63   2.0000     -10.278842      -279.7015 
  64   2.0000     -10.278734      -279.6986 
  65   2.0000     -10.278600      -279.6949 
  66   2.0000     -10.278257      -279.6856 
  67   2.0000     -10.277835      -279.6741 
  68   2.0000     -10.276869      -279.6478 
  69   2.0000     -10.276488      -279.6375 
  70   2.0000     -10.273435      -279.5544 
  71   2.0000     -10.267503      -279.3930 
  72   2.0000     -10.265023      -279.3255 
  73   2.0000     -10.250620      -278.9335 
  74   2.0000     -10.244838      -278.7762 
  75   2.0000      -8.783214      -239.0034 
  76   2.0000      -8.044657      -218.9063 
  77   2.0000      -8.042617      -218.8507 
  78   2.0000      -7.998183      -217.6416 
  79   2.0000      -6.619075      -180.1142 
  80   2.0000      -6.605324      -179.7400 
  81   2.0000      -6.604877      -179.7278 
  82   2.0000      -6.014315      -163.6578 
  83   2.0000      -6.012267      -163.6021 
  84   2.0000      -6.010240      -163.5469 
  85   2.0000      -6.008216      -163.4919 
  86   2.0000      -6.005963      -163.4306 
  87   2.0000      -6.003913      -163.3748 
  88   2.0000      -5.966957      -162.3691 
  89   2.0000      -5.966513      -162.3571 
  90   2.0000      -5.957787      -162.1196 
  91   2.0000      -2.734990       -74.4229 
  92   2.0000      -2.731249       -74.3211 
  93   2.0000      -2.730908       -74.3118 
  94   2.0000      -2.719988       -74.0146 
  95   2.0000      -2.719957       -74.0138 
  96   2.0000      -1.312098       -35.7040 
  97   2.0000      -1.155910       -31.4539 
  98   2.0000      -1.154100       -31.4046 
  99   2.0000      -1.142482       -31.0885 
 100   2.0000      -1.084359       -29.5069 
 101   2.0000      -1.063510       -28.9396 
 102   2.0000      -1.024987       -27.8913 
 103   2.0000      -1.016680       -27.6653 
 104   2.0000      -1.008032       -27.4300 
 105   2.0000      -1.006568       -27.3901 
 106   2.0000      -0.998818       -27.1792 
 107   2.0000      -0.996521       -27.1167 
 108   2.0000      -0.994173       -27.0528 
 109   2.0000      -0.976659       -26.5762 
 110   2.0000      -0.970460       -26.4076 
 111   2.0000      -0.962643       -26.1948 
 112   2.0000      -0.955552       -26.0019 
 113   2.0000      -0.930849       -25.3297 
 114   2.0000      -0.925465       -25.1832 
 115   2.0000      -0.915500       -24.9120 
 116   2.0000      -0.912687       -24.8355 
 117   2.0000      -0.904952       -24.6250 
 118   2.0000      -0.894435       -24.3388 
 119   2.0000      -0.885111       -24.0851 
 120   2.0000      -0.876194       -23.8424 
 121   2.0000      -0.871607       -23.7176 
 122   2.0000      -0.869068       -23.6486 
 123   2.0000      -0.862406       -23.4673 
 124   2.0000      -0.851363       -23.1668 
 125   2.0000      -0.846713       -23.0402 
 126   2.0000      -0.842394       -22.9227 
 127   2.0000      -0.842265       -22.9192 
 128   2.0000      -0.837995       -22.8030 
 129   2.0000      -0.836708       -22.7680 
 130   2.0000      -0.821316       -22.3491 
 131   2.0000      -0.813267       -22.1301 
 132   2.0000      -0.798717       -21.7342 
 133   2.0000      -0.797388       -21.6980 
 134   2.0000      -0.781169       -21.2567 
 135   2.0000      -0.774651       -21.0793 
 136   2.0000      -0.772755       -21.0277 
 137   2.0000      -0.770230       -20.9590 
 138   2.0000      -0.765452       -20.8290 
 139   2.0000      -0.753471       -20.5030 
 140   2.0000      -0.743611       -20.2347 
 141   2.0000      -0.740431       -20.1481 
 142   2.0000      -0.736784       -20.0489 
 143   2.0000      -0.718156       -19.5420 
 144   2.0000      -0.709806       -19.3148 
 145   2.0000      -0.702637       -19.1197 
 146   2.0000      -0.700263       -19.0551 
 147   2.0000      -0.696682       -18.9577 
 148   2.0000      -0.693710       -18.8768 
 149   2.0000      -0.685731       -18.6597 
 150   2.0000      -0.680775       -18.5248 
 151   2.0000      -0.674473       -18.3534 
 152   2.0000      -0.671279       -18.2664 
 153   2.0000      -0.666967       -18.1491 
 154   2.0000      -0.663967       -18.0674 
 155   2.0000      -0.648205       -17.6385 
 156   2.0000      -0.642595       -17.4859 
 157   2.0000      -0.641153       -17.4467 
 158   2.0000      -0.634559       -17.2672 
 159   2.0000      -0.629259       -17.1230 
 160   2.0000      -0.627010       -17.0618 
 161   2.0000      -0.621334       -16.9074 
 162   2.0000      -0.620784       -16.8924 
 163   2.0000      -0.610531       -16.6134 
 164   2.0000      -0.606051       -16.4915 
 165   2.0000      -0.603629       -16.4256 
 166   2.0000      -0.598466       -16.2851 
 167   2.0000      -0.590220       -16.0607 
 168   2.0000      -0.588040       -16.0014 
 169   2.0000      -0.583167       -15.8688 
 170   2.0000      -0.576841       -15.6966 
 171   2.0000      -0.574655       -15.6372 
 172   2.0000      -0.568479       -15.4691 
 173   2.0000      -0.565116       -15.3776 
 174   2.0000      -0.561782       -15.2869 
 175   2.0000      -0.560071       -15.2403 
 176   2.0000      -0.554078       -15.0772 
 177   2.0000      -0.552445       -15.0328 
 178   2.0000      -0.551372       -15.0036 
 179   2.0000      -0.546832       -14.8800 
 180   2.0000      -0.544945       -14.8287 
 181   2.0000      -0.543473       -14.7886 
 182   2.0000      -0.543364       -14.7857 
 183   2.0000      -0.538340       -14.6490 
 184   2.0000      -0.535708       -14.5774 
 185   2.0000      -0.532443       -14.4885 
 186   2.0000      -0.531738       -14.4693 
 187   2.0000      -0.530556       -14.4372 
 188   2.0000      -0.530089       -14.4245 
 189   2.0000      -0.524216       -14.2646 
 190   2.0000      -0.523390       -14.2422 
 191   2.0000      -0.520878       -14.1738 
 192   2.0000      -0.514003       -13.9867 
 193   2.0000      -0.509403       -13.8616 
 194   2.0000      -0.507722       -13.8158 
 195   2.0000      -0.503742       -13.7075 
 196   2.0000      -0.501562       -13.6482 
 197   2.0000      -0.498720       -13.5709 
 198   2.0000      -0.496649       -13.5145 
 199   2.0000      -0.496063       -13.4986 
 200   2.0000      -0.493387       -13.4257 
 201   2.0000      -0.492620       -13.4049 
 202   2.0000      -0.489597       -13.3226 
 203   2.0000      -0.485207       -13.2032 
 204   2.0000      -0.481668       -13.1068 
 205   2.0000      -0.479295       -13.0423 
 206   2.0000      -0.478795       -13.0287 
 207   2.0000      -0.474814       -12.9203 
 208   2.0000      -0.473042       -12.8721 
 209   2.0000      -0.471891       -12.8408 
 210   2.0000      -0.469959       -12.7882 
 211   2.0000      -0.462974       -12.5982 
 212   2.0000      -0.461938       -12.5700 
 213   2.0000      -0.460548       -12.5322 
 214   2.0000      -0.460066       -12.5190 
 215   2.0000      -0.456115       -12.4115 
 216   2.0000      -0.452836       -12.3223 
 217   2.0000      -0.451721       -12.2920 
 218   2.0000      -0.449460       -12.2304 
 219   2.0000      -0.447216       -12.1694 
 220   2.0000      -0.444923       -12.1070 
 221   2.0000      -0.441147       -12.0042 
 222   2.0000      -0.438276       -11.9261 
 223   2.0000      -0.437286       -11.8992 
 224   2.0000      -0.436315       -11.8727 
 225   2.0000      -0.432034       -11.7562 
 226   2.0000      -0.431312       -11.7366 
 227   2.0000      -0.429608       -11.6902 
 228   2.0000      -0.428227       -11.6526 
 229   2.0000      -0.428135       -11.6501 
 230   2.0000      -0.426142       -11.5959 
 231   2.0000      -0.424607       -11.5541 
[...]
  13   3.319     373.5   0.001734   0.003003   0.699906   1.371887     0.96 (  80->  98)    0.01 (  82->  98)    0.01 (  80->  99)
  14   3.348     370.3   0.018859   0.017807  -12.887342  -11.565005     0.26 (  96-> 102)    0.12 (  95-> 101)    0.10 (  97-> 102)
  15   3.609     343.6   0.053213   0.045513  20.055003  34.407235     0.15 (  97-> 102)    0.12 (  97-> 101)    0.08 (  96->  99)
  16   3.645     340.1   0.148920   0.133772  32.943463   1.079585     0.19 (  86->  98)    0.12 (  95->  98)    0.06 (  97-> 102)
  17   3.728     332.5   0.220930   0.203442  -3.569771   5.452932     0.15 (  96-> 100)    0.12 (  86->  98)    0.12 (  97-> 104)
  18   3.734     332.0   0.032544   0.030069  -51.939565  -54.132243     0.27 (  97-> 102)    0.13 (  97-> 101)    0.10 (  96-> 102)
  19   3.813     325.2   0.025396   0.026322  -59.712899  -54.328684     0.31 (  85->  98)    0.12 (  88->  98)    0.11 (  97-> 104)
  20   3.870     320.4   0.110394   0.111494  -222.492596  -211.451653     0.13 (  92->  99)    0.12 (  93->  99)    0.08 (  96-> 101)
  21   3.883     319.3   0.223425   0.203887  154.147132  149.686160     0.39 (  97-> 104)    0.10 (  93-> 100)    0.09 (  92->  99)
  22   3.908     317.2   0.066699   0.058308  96.198821  94.060458     0.29 (  92->  99)    0.09 (  97-> 104)    0.08 (  95-> 101)
  23   3.981     311.4   0.020879   0.019554  -8.093592  -6.790857     0.16 (  83-> 102)    0.15 (  83-> 101)    0.11 (  90->  99)
  24   4.031     307.6   0.129027   0.118093  -20.218815  -18.091855     0.14 (  95-> 102)    0.13 (  95-> 101)    0.13 (  90->  99)
  25   4.108     301.8   0.051872   0.044571  47.947505  44.439174     0.20 (  93->  98)    0.16 (  85->  98)    0.13 (  86->  98)
  26   4.172     297.2   0.027083   0.019989  -34.634130  -30.553495     0.30 (  90->  99)    0.13 (  83->  99)    0.12 (  90-> 101)
  27   4.248     291.9   0.065738   0.060178   0.472868   0.217938     0.15 (  83->  99)    0.15 (  93-> 101)    0.09 (  95->  99)
  28   4.293     288.8   0.028414   0.019750  -41.888345  -43.051725     0.21 (  83->  99)    0.09 (  88->  99)    0.07 (  93->  99)
  29   4.355     284.7   0.557125   0.481358  153.138855  142.299365     0.23 (  92-> 101)    0.19 (  92-> 102)    0.08 (  92->  99)
  30   4.376     283.3   0.010184   0.009512  -7.318696  -6.558562     0.44 (  87->  98)    0.10 (  86-> 100)    0.06 (  85-> 100)
  31   4.460     278.0   0.001611   0.001467   0.562723   0.670867     0.70 (  82-> 100)    0.18 (  82-> 101)    0.05 (  82->  98)
  32   4.478     276.8   0.006182   0.004441   7.516940   7.150824     0.15 (  96-> 102)    0.13 (  95-> 102)    0.11 (  96-> 101)
  33   4.497     275.7   0.005597   0.005743  145.778807  127.865675     0.09 (  86-> 100)    0.08 (  88->  98)    0.06 (  93->  98)
  34   4.502     275.4   0.000044   0.000046   0.701219   0.697453     0.46 (  94->  99)    0.28 (  94-> 101)    0.14 (  94-> 102)
  35   4.544     272.9   0.210722   0.173610  -251.882717  -226.107619     0.12 (  95->  99)    0.11 (  97-> 103)    0.10 (  93->  99)
  36   4.574     271.1   0.001567   0.001409  -2.668887  -1.154981     0.75 (  80-> 100)    0.18 (  80-> 101)    0.04 (  80-> 102)
  37   4.613     268.8   0.132277   0.117113  43.309013  40.645137     0.25 (  97-> 103)    0.08 (  95-> 101)    0.07 (  93-> 100)
  38   4.644     267.0   0.148191   0.120624  49.559722  43.763921     0.10 (  93-> 102)    0.09 (  95-> 100)    0.08 (  93-> 101)
  39   4.653     266.5   0.062000   0.051319  -22.457153  -18.564173     0.15 (  90-> 102)    0.12 (  90-> 100)    0.12 (  90->  99)
  40   4.763     260.3   0.213381   0.167084  -121.649440  -110.783715     0.17 (  96-> 104)    0.09 (  91-> 100)    0.07 (  92->  98)
  41   4.782     259.3   0.025493   0.020038  -12.440128  -11.030656     0.13 (  90-> 101)    0.12 (  83-> 101)    0.11 (  90-> 102)
  42   4.788     258.9   0.073795   0.060964  -4.451813  -5.909349     0.13 (  93-> 100)    0.08 (  91-> 100)    0.06 (  89-> 101)
  43   4.845     255.9   0.370783   0.300487  10.004462  -6.371082     0.23 (  91-> 100)    0.15 (  92->  98)    0.07 (  86->  98)
  44   4.870     254.6   0.143104   0.109863  -53.459316  -47.305709     0.13 (  92->  98)    0.10 (  85-> 100)    0.08 (  93-> 101)
  45   4.879     254.1   0.001622   0.001249   0.277944  -0.044865     0.50 (  94->  99)    0.18 (  94-> 101)    0.17 (  94-> 100)
  46   4.892     253.4   0.269788   0.228417  99.886609  81.294653     0.19 (  96-> 104)    0.11 (  97-> 103)    0.08 (  96-> 103)
  47   4.920     252.0   0.002035   0.002534  -2.843736  -10.610263     0.08 (  96-> 104)    0.08 (  90->  98)    0.06 (  93-> 101)
  48   4.962     249.8   0.037306   0.028722  -44.272543  -38.510478     0.54 (  90->  98)    0.09 (  81->  99)    0.06 (  92->  98)
  49   4.965     249.7   0.077520   0.054794  286.007817  247.702183     0.48 (  81->  99)    0.08 (  90->  98)    0.05 (  95-> 102)

-----------------------------------------------------------------------------
         ABSORPTION SPECTRUM VIA TRANSITION ELECTRIC DIPOLE MOMENTS
-----------------------------------------------------------------------------
State   Energy  Wavelength   fosc         T2         TX        TY        TZ  
        (cm-1)    (nm)                  (au**2)     (au)      (au)      (au) 
-----------------------------------------------------------------------------
   0   11981.1    834.6   0.154420426   4.24311  -0.01519   2.00919  -0.45389
   1   16729.7    597.7   0.175147449   3.44659   0.31869   1.81965  -0.18414
   2   17376.6    575.5   0.000200675   0.00380   0.01118   0.04674  -0.03863
   3   18836.2    530.9   0.810232211  14.16092   0.11316  -3.70916   0.62469
   4   19537.2    511.8   0.000138962   0.00234   0.04310  -0.02181   0.00282
   5   19966.9    500.8   0.050888571   0.83904  -0.71785   0.19742  -0.53363
   6   22038.7    453.7   1.174850832  17.54977   0.01035   4.18582  -0.16898
   7   22682.4    440.9   0.195161077   2.83256  -0.61660  -1.46271  -0.55932
   8   23961.4    417.3   0.123219294   1.69294  -0.56877   0.84706  -0.80742
   9   25130.1    397.9   0.102723586   1.34571  -0.53747  -0.96737  -0.34789
  10   25453.9    392.9   0.044187670   0.57151  -0.44783   0.50237  -0.34435
  11   25782.3    387.9   0.001673536   0.02137   0.04888  -0.02453  -0.13557
  12   26212.8    381.5   0.009336033   0.11725  -0.00792  -0.00748   0.34225
  13   26773.4    373.5   0.001733884   0.02132   0.06844  -0.04045  -0.12248
  14   27005.0    370.3   0.018858765   0.22990   0.47798   0.02115   0.03148
  15   29104.9    343.6   0.053213218   0.60191  -0.01977  -0.74683   0.20918
  16   29401.0    340.1   0.148920078   1.66750  -0.77048   0.79435  -0.66548
  17   30072.4    332.5   0.220929729   2.41859   0.13720   1.53347  -0.21965
  18   30120.6    332.0   0.032543763   0.35570  -0.56864   0.11233  -0.14044
  19   30752.9    325.2   0.025395926   0.27187  -0.41273  -0.31843  -0.01110
  20   31210.3    320.4   0.110393691   1.16445  -0.70123   0.81280   0.10996
  21   31319.0    319.3   0.223425343   2.34855   0.78811   1.27037  -0.33703
  22   31522.0    317.2   0.066698892   0.69660  -0.81250   0.19006   0.01759
  23   32108.9    311.4   0.020878804   0.21407  -0.30971  -0.33701   0.06766
  24   32513.3    307.6   0.129026800   1.30646   0.88312   0.57786   0.43891
  25   33133.6    301.8   0.051872460   0.51540  -0.55194  -0.37618  -0.26315
  26   33646.4    297.2   0.027083185   0.26499  -0.31325   0.31770  -0.25678
  27   34262.9    291.9   0.065737682   0.63163  -0.29208   0.73631   0.06461
  28   34623.1    288.8   0.028413713   0.27017  -0.28642   0.41921   0.11134
  29   35124.8    284.7   0.557125098   5.22173   2.22662  -0.45640  -0.23579
  30   35297.1    283.3   0.010184425   0.09499   0.25976  -0.05619   0.15607
  31   35973.3    278.0   0.001611203   0.01475  -0.03874   0.03113   0.11079
  32   36121.0    276.8   0.006182136   0.05634  -0.10782  -0.21109   0.01266
  33   36272.1    275.7   0.005596659   0.05080   0.03087   0.13038  -0.18123
  34   36314.9    275.4   0.000044091   0.00040   0.00499  -0.01162   0.01548
  35   36647.9    272.9   0.210722311   1.89294   1.03286  -0.78444   0.45913
  36   36887.8    271.1   0.001566724   0.01398   0.04352  -0.03851  -0.10298
  37   37208.0    268.8   0.132277319   1.17037  -0.47322  -0.95139  -0.20318
  38   37452.6    267.0   0.148190538   1.30261  -0.41357  -1.06375  -0.00199
  39   37529.7    266.5   0.061999789   0.54386   0.60082   0.39972   0.15199
  40   38413.3    260.3   0.213381367   1.82873  -1.18380   0.37230  -0.53736
  41   38572.5    259.3   0.025493382   0.21758  -0.02313   0.40585  -0.22876
  42   38617.9    258.9   0.073794587   0.62909   0.13170  -0.75116   0.21796
  43   39074.0    255.9   0.370782738   3.12397  -0.22793  -1.72045   0.33479
  44   39275.7    254.6   0.143103788   1.19951  -0.71658  -0.82714  -0.04298
  45   39348.0    254.1   0.001622491   0.01357   0.07942   0.08524  -0.00079
  46   39457.3    253.4   0.269788453   2.25098   0.02249   1.46663  -0.31540
  47   39683.7    252.0   0.002035193   0.01688  -0.08656   0.08484  -0.04683
  48   40024.6    249.8   0.037305596   0.30685   0.47188  -0.28833   0.03226
  49   40048.5    249.7   0.077519638   0.63724   0.52913  -0.52267  -0.28996

-----------------------------------------------------------------------------
         ABSORPTION SPECTRUM VIA TRANSITION VELOCITY DIPOLE MOMENTS
-----------------------------------------------------------------------------
State   Energy  Wavelength   fosc         P2         PX        PY        PZ  
        (cm-1)    (nm)                  (au**2)     (au)      (au)      (au) 
-----------------------------------------------------------------------------
   0   11981.1    834.6   0.250655393   0.02052   0.00109   0.13989  -0.03091
   1   16729.7    597.7   0.212532220   0.02430   0.02625   0.15280  -0.01627
   2   17376.6    575.5   0.000188414   0.00002   0.00021   0.00443  -0.00166
   3   18836.2    530.9   0.893218610   0.11499   0.01022  -0.33415   0.05685
   4   19537.2    511.8   0.000270832   0.00004   0.00507  -0.00276  -0.00169
   5   19966.9    500.8   0.052936510   0.00722  -0.06497   0.02192  -0.05023
   6   22038.7    453.7   1.174886361   0.17697   0.00091   0.42043  -0.01432
   7   22682.4    440.9   0.188038069   0.02915  -0.05813  -0.14967  -0.05807
   8   23961.4    417.3   0.119777897   0.01962  -0.06399   0.08677  -0.08939
   9   25130.1    397.9   0.107777828   0.01851  -0.06050  -0.11505  -0.04018
  10   25453.9    392.9   0.052220867   0.00908  -0.05127   0.06844  -0.04209
  11   25782.3    387.9   0.002945306   0.00052   0.00768  -0.00416  -0.02104
  12   26212.8    381.5   0.009122374   0.00163  -0.00323   0.00344   0.04015
  13   26773.4    373.5   0.003003286   0.00055   0.01106  -0.00669  -0.01955
  14   27005.0    370.3   0.017806865   0.00329   0.05679   0.00482   0.00615
  15   29104.9    343.6   0.045512982   0.00905  -0.00367  -0.09063   0.02873
  16   29401.0    340.1   0.133771728   0.02688  -0.10114   0.09918  -0.08255
  17   30072.4    332.5   0.203441755   0.04181   0.01958   0.20134  -0.02987
  18   30120.6    332.0   0.030068669   0.00619  -0.07575   0.01321  -0.01664
  19   30752.9    325.2   0.026321699   0.00553  -0.05857  -0.04575  -0.00296
  20   31210.3    320.4   0.111493915   0.02378  -0.09782   0.11872   0.01095
  21   31319.0    319.3   0.203887075   0.04364   0.10944   0.17216  -0.04501
  22   31522.0    317.2   0.058307923   0.01256  -0.10883   0.02649   0.00396
  23   32108.9    311.4   0.019554061   0.00429  -0.04453  -0.04691   0.01037
  24   32513.3    307.6   0.118092586   0.02624   0.12419   0.08498   0.05997
  25   33133.6    301.8   0.044571318   0.01009  -0.07604  -0.05505  -0.03579
  26   33646.4    297.2   0.019988839   0.00460  -0.04068   0.04363  -0.03222
  27   34262.9    291.9   0.060177860   0.01409  -0.04338   0.11016   0.00865
  28   34623.1    288.8   0.019749552   0.00467  -0.03748   0.05360   0.01990
  29   35124.8    284.7   0.481358471   0.11556   0.33196  -0.06503  -0.03360
  30   35297.1    283.3   0.009512337   0.00229   0.04001  -0.00958   0.02454
  31   35973.3    278.0   0.001466584   0.00036  -0.00628   0.00419   0.01742
  32   36121.0    276.8   0.004440937   0.00110  -0.01456  -0.02974  -0.00008
  33   36272.1    275.7   0.005743103   0.00142  -0.00113   0.02314  -0.02978
  34   36314.9    275.4   0.000046290   0.00001   0.00090  -0.00197   0.00261
  35   36647.9    272.9   0.173609575   0.04348   0.15723  -0.11768   0.07010
  36   36887.8    271.1   0.001409283   0.00036   0.00771  -0.00637  -0.01598
  37   37208.0    268.8   0.117112747   0.02978  -0.07635  -0.15111  -0.03345
  38   37452.6    267.0   0.120623833   0.03088  -0.05866  -0.16562   0.00172
  39   37529.7    266.5   0.051319227   0.01316   0.09175   0.06478   0.02342
  40   38413.3    260.3   0.167083540   0.04387  -0.18120   0.06418  -0.08314
  41   38572.5    259.3   0.020038046   0.00528  -0.00352   0.06329  -0.03556
  42   38617.9    258.9   0.060963528   0.01609   0.02438  -0.11905   0.03638
  43   39074.0    255.9   0.300487428   0.08025  -0.02550  -0.27599   0.05850
  44   39275.7    254.6   0.109862836   0.02949  -0.11178  -0.13021  -0.00637
  45   39348.0    254.1   0.001249025   0.00034   0.01266   0.01324  -0.00046
  46   39457.3    253.4   0.228417059   0.06160   0.00160   0.24294  -0.05076
  47   39683.7    252.0   0.002534095   0.00069  -0.01825   0.01704  -0.00799
  48   40024.6    249.8   0.028721983   0.00786   0.07647  -0.04442   0.00605
  49   40048.5    249.7   0.054794176   0.01500   0.08442  -0.07585  -0.04601

-------------------------------------------------------------------
                             CD SPECTRUM
-------------------------------------------------------------------
State   Energy Wavelength       R         MX        MY        MZ   
        (cm-1)   (nm)       (1e40*cgs)   (au)      (au)      (au)  
-------------------------------------------------------------------
   0   11981.1    834.6     -6.31163  -1.04734   0.32993   1.43655
   1   16729.7    597.7     11.29104  -0.45510   0.09926   0.45340
   2   17376.6    575.5     -0.36682  -0.24585   0.05086  -0.04991
   3   18836.2    530.9    -22.01799   1.95403  -0.54257  -3.42597
   4   19537.2    511.8     -1.00935   0.39680   0.56882  -0.14717
   5   19966.9    500.8     30.25940  -1.60043   0.58499   2.60987
   6   22038.7    453.7    -252.40523  -2.00018   0.47021   5.18827
   7   22682.4    440.9    180.45649  -1.16898   0.68129   0.87575
   8   23961.4    417.3     36.14877  -1.60600   0.62186   1.97364
   9   25130.1    397.9     43.83116  -0.75446   0.36864   0.67502
  10   25453.9    392.9      4.78176  -1.37414   0.47577   2.54006
  11   25782.3    387.9     -2.32432  -1.32477   0.17779  -0.58255
  12   26212.8    381.5    -36.74535   0.04607  -0.15379   0.45317
  13   26773.4    373.5      0.69991  -1.13147   0.34201  -0.72098
  14   27005.0    370.3    -12.88734   0.12336  -0.19132  -0.00774
  15   29104.9    343.6     20.05500   1.35580  -0.53464  -2.18738
  16   29401.0    340.1     32.94346  -2.88649   1.00627   4.75306
  17   30072.4    332.5     -3.56977  -1.59063   0.52317   2.59002
  18   30120.6    332.0    -51.93957  -0.64941   0.30204   1.30212
  19   30752.9    325.2    -59.71290  -0.96569   0.36927   2.49245
  20   31210.3    320.4    -222.49260  -0.71711   0.35718   1.37056
  21   31319.0    319.3    154.14713  -0.89517   0.18643   0.54972
  22   31522.0    317.2     96.19882   0.47353   0.03212  -1.67476
  23   32108.9    311.4     -8.09359   0.22457  -0.35980  -0.25669
  24   32513.3    307.6    -20.21881   0.66583  -0.44771  -0.55483
  25   33133.6    301.8     47.94751  -1.51268   0.58616   3.10785
  26   33646.4    297.2    -34.63413  -0.47118   0.20851   0.26059
  27   34262.9    291.9      0.47287   0.00248   0.01165  -0.15253
  28   34623.1    288.8    -41.88835  -0.15698   0.03735   1.05158
  29   35124.8    284.7    153.13885  -0.27499  -0.28613   0.71226
  30   35297.1    283.3     -7.31870   0.74334  -0.28950  -1.14247
  31   35973.3    278.0      0.56272   1.07392  -0.15554   0.39765
  32   36121.0    276.8      7.51694  -0.27724   0.30317   0.17503
  33   36272.1    275.7    145.77881  -1.78026   0.54096   3.49830
  34   36314.9    275.4      0.70122   0.21325   0.02189  -0.24444
  35   36647.9    272.9    -251.88272   2.29575  -0.92082  -4.41045
  36   36887.8    271.1     -2.66889  -0.90738   0.17235  -0.55786
  37   37208.0    268.8     43.30901  -0.78840   0.40592   0.83977
  38   37452.6    267.0     49.55972   0.35844   0.05921  -0.49219
  39   37529.7    266.5    -22.45715   0.56235  -0.23422  -0.98021
  40   38413.3    260.3    -121.64944  -3.78059   1.49146   8.40152
  41   38572.5    259.3    -12.44013  -0.58012   0.30865   0.37554
  42   38617.9    258.9     -4.45181   1.17837  -0.24762  -1.47869
  43   39074.0    255.9     10.00446   0.82978   0.01388   0.50950
  44   39275.7    254.6    -53.45932  -1.32937   0.67156   3.96285
  45   39348.0    254.1      0.27794   0.10637  -0.11806  -0.54952
  46   39457.3    253.4     99.88661  -1.66204   0.41300   3.14543
  47   39683.7    252.0     -2.84374  -1.40494   0.46736   3.18639
  48   40024.6    249.8    -44.27254   0.29515  -0.19467  -0.23516
  49   40048.5    249.7    286.00782  -0.95154   0.17333   2.13564

sTD-DFT done

Total run time:        3.668 sec

           *** ORCA-CIS/TD-DFT FINISHED WITHOUT ERROR ***

-------------------------   --------------------
FINAL SINGLE POINT ENERGY     -6585.777160179703
-------------------------   --------------------


                            ***************************************
                            *     ORCA property calculations      *
                            ***************************************

                                    ---------------------
                                    Active property flags
                                    ---------------------
   (+) Dipole Moment


------------------------------------------------------------------------------
                       ORCA ELECTRIC PROPERTIES CALCULATION
------------------------------------------------------------------------------

Dipole Moment Calculation                       ... on
Quadrupole Moment Calculation                   ... off
Polarizability Calculation                      ... off
GBWName                                         ... xtbopt.gbw
Electron density file                           ... xtbopt.scfp
The origin for moment calculation is the CENTER OF MASS  = (-5.374785, -21.007927  1.830952)

-------------
DIPOLE MOMENT
-------------
                                X             Y             Z
Electronic contribution:     64.69853      96.95292      -1.70598
Nuclear contribution   :    -62.55913     -97.33844       1.49475
                        -----------------------------------------
Total Dipole Moment    :      2.13940      -0.38553      -0.21123
                        -----------------------------------------
Magnitude (a.u.)       :      2.18409
Magnitude (Debye)      :      5.55152



--------------------
Rotational spectrum 
--------------------
 
Rotational constants in cm-1:     0.002163     0.000166     0.000156 
Rotational constants in MHz :    64.855644     4.973977     4.691643 

 Dipole components along the rotational axes: 
x,y,z [a.u.] :     0.115065     1.944761     0.987384 
x,y,z [Debye]:     0.292471     4.943189     2.509731 

 

Timings for individual modules:

Sum of individual times         ...      693.584 sec (=  11.560 min)
GTO integral calculation        ...        3.100 sec (=   0.052 min)   0.4 %
SCF iterations                  ...      686.101 sec (=  11.435 min)  98.9 %
CIS module                      ...        4.383 sec (=   0.073 min)   0.6 %
                             ****ORCA TERMINATED NORMALLY****
TOTAL RUN TIME: 0 days 0 hours 11 minutes 34 seconds 656 msec
