
                                 *****************
                                 * O   R   C   A *
                                 *****************

           --- An Ab Initio, DFT and Semiempirical electronic structure package ---

                  #######################################################
                  #                        -***-                        #
                  #          Department of theory and spectroscopy      #
                  #               Directorship: Frank Neese             #
                  #        Max Planck Institute fuer Kohlenforschung    #
                  #                Kaiser Wilhelm Platz 1               #
                  #                 D-45470 Muelheim/Ruhr               #
                  #                      Germany                        #
                  #                                                     #
                  #                  All rights reserved                #
                  #                        -***-                        #
                  #######################################################


                         Program Version 4.2.0 -  RELEASE  -


 With contributions from (in alphabetic order):
   Daniel Aravena         : Magnetic Suceptibility
   Michael Atanasov       : Ab Initio Ligand Field Theory (pilot matlab implementation)
   Alexander A. Auer      : GIAO ZORA, VPT2
   Ute Becker             : Parallelization
   Giovanni Bistoni       : ED, misc. LED, open-shell LED, HFLED
   Martin Brehm           : Molecular dynamics
   Dmytro Bykov           : SCF Hessian
   Vijay G. Chilkuri      : MRCI spin determinant printing, contributions to CSF-ICE
   Dipayan Datta          : RHF DLPNO-CCSD density
   Achintya Kumar Dutta   : EOM-CC, STEOM-CC
   Dmitry Ganyushin       : Spin-Orbit,Spin-Spin,Magnetic field MRCI
   Miquel Garcia          : C-PCM Hessian, Gaussian charge scheme
   Yang Guo               : DLPNO-NEVPT2, CIM, IAO-localization
   Andreas Hansen         : Spin unrestricted coupled pair/coupled cluster methods
   Benjamin Helmich-Paris : CASSCF linear response (MC-RPA)
   Lee Huntington         : MR-EOM, pCC
   Robert Izsak           : Overlap fitted RIJCOSX, COSX-SCS-MP3, EOM
   Christian Kollmar      : KDIIS, OOCD, Brueckner-CCSD(T), CCSD density
   Simone Kossmann        : Meta GGA functionals, TD-DFT gradient, OOMP2, MP2 Hessian
   Martin Krupicka        : AUTO-CI
   Lucas Lang             : DCDCAS
   Dagmar Lenk            : GEPOL surface, SMD
   Dimitrios Liakos       : Extrapolation schemes; Compound Job, initial MDCI parallelization
   Dimitrios Manganas     : Further ROCIS development; embedding schemes
   Dimitrios Pantazis     : SARC Basis sets
   Taras Petrenko         : DFT Hessian,TD-DFT gradient, ASA, ECA, R-Raman, ABS, FL, XAS/XES, NRVS
   Peter Pinski           : DLPNO-MP2, DLPNO-MP2 Gradient
   Christoph Reimann      : Effective Core Potentials
   Marius Retegan         : Local ZFS, SOC
   Christoph Riplinger    : Optimizer, TS searches, QM/MM, DLPNO-CCSD(T), (RO)-DLPNO pert. Triples
   Tobias Risthaus        : Range-separated hybrids, TD-DFT gradient, RPA, STAB
   Michael Roemelt        : Original ROCIS implementation
   Masaaki Saitow         : Open-shell DLPNO-CCSD energy and density
   Barbara Sandhoefer     : DKH picture change effects
   Avijit Sen             : IP-ROCIS
   Kantharuban Sivalingam : CASSCF convergence, NEVPT2, FIC-MRCI
   Bernardo de Souza      : ESD, SOC TD-DFT
   Georgi Stoychev        : AutoAux, RI-MP2 NMR
   Willem Van den Heuvel  : Paramagnetic NMR
   Boris Wezisla          : Elementary symmetry handling
   Frank Wennmohs         : Technical directorship


 We gratefully acknowledge several colleagues who have allowed us to
 interface, adapt or use parts of their codes:
   Stefan Grimme, W. Hujo, H. Kruse,             : VdW corrections, initial TS optimization,
                  C. Bannwarth                     DFT functionals, gCP, sTDA/sTD-DF
   Ed Valeev, F. Pavosevic, A. Kumar             : LibInt (2-el integral package), F12 methods
   Garnet Chan, S. Sharma, J. Yang, R. Olivares  : DMRG
   Ulf Ekstrom                                   : XCFun DFT Library
   Mihaly Kallay                                 : mrcc  (arbitrary order and MRCC methods)
   Andreas Klamt, Michael Diedenhofen            : otool_cosmo (COSMO solvation model)
   Jiri Pittner, Ondrej Demel                    : Mk-CCSD
   Frank Weinhold                                : gennbo (NPA and NBO analysis)
   Christopher J. Cramer and Donald G. Truhlar   : smd solvation model
   Lars Goerigk                                  : TD-DFT with DH, B97 family of functionals
   V. Asgeirsson, H. Jonsson                     : NEB implementation
   FAccTs GmbH                                   : IRC, NEB, NEB-TS, Multilevel, MM, QM/MM, CI optimization
   S Lehtola, MJT Oliveira, MAL Marques          : LibXC Library


 Your calculation uses the libint2 library for the computation of 2-el integrals
 For citations please refer to: http://libint.valeyev.net

 Your ORCA version has been built with support for libXC version: 4.2.3
 For citations please refer to: https://tddft.org/programs/libxc/

 This ORCA versions uses:
   CBLAS   interface :  Fast vector & matrix operations
   LAPACKE interface :  Fast linear algebra routines
   SCALAPACK package :  Parallel linear algebra routines


XCFun DFT library Copyright 2009-2010 Ulf Ekstrom and contributors.
See http://admol.org/xcfun for more information. This is free soft-
ware; see the source code for copying conditions. There is ABSOLUTELY
NO WARRANTY; not even for MERCHANTABILITY or FITNESS FOR A PARTICULAR
PURPOSE. For details see the documentation. Scientific users of this 
library should cite U. Ekstrom, L. Visscher, R. Bast, A. J. Thorvald-
sen and K. Ruud; J.Chem.Theor.Comp. 2010, DOI: 10.1021/ct100117s
XCFun Version 0.99 
----- Orbital basis set information -----
Your calculation utilizes the basis: def2-SVP
   F. Weigend and R. Ahlrichs, Phys. Chem. Chem. Phys. 7, 3297 (2005).

----- AuxJ basis set information -----
Your calculation utilizes the auxiliary basis: def2/J
   F. Weigend, Phys. Chem. Chem. Phys. 8, 1057 (2006).

================================================================================
                                        WARNINGS
                       Please study these warnings very carefully!
================================================================================

INFO   : Checking CIS options ...

WARNING: CIS/ROCIS methods need fully converged wavefunctions
  ===> : Setting SCFConvForced true
         You can overwrite this default with %scf ConvForced false 


INFO   : the flag for use of LIBINT has been found!

================================================================================
                                       INPUT FILE
================================================================================
NAME = xtbopt.inp
|  1> # ORCA input file
|  2> # SCF done       -159.697771243360          0.000724762109
|  3> ! CAM-B3LYP def2-SVP def2/J RIJCOSX Grid4 TightSCF
|  4> %maxcore 5000
|  5> %tddft
|  6>     Mode sTDDFT
|  7>     Ethresh 5.0
|  8>     maxcore 5000
|  9> end
| 10> 
| 11> %pal
| 12>   nprocs 6
| 13>   end
| 14> * xyz 0 1
| 15>    C        0.18332        -3.10579       -17.39416
| 16>    S       -0.95231        -2.32772       -16.36935
| 17>    C       -0.18918        -2.94249       -14.95304
| 18>    C        0.91761        -3.73048       -15.27176
| 19>    C        1.12317        -3.81621       -16.69295
| 20>    C        2.22221        -4.58662       -17.18945
| 21>    C        2.45727        -4.69355       -18.63369
| 22>    O        1.78893        -4.17555       -19.49808
| 23>    O        3.52872        -5.45040       -18.94400
| 24>    C        3.04408        -5.21688       -16.28621
| 25>    C        2.83946        -5.12887       -14.90211
| 26>    C        1.79611        -4.40067       -14.38630
| 27>    O        1.57445        -4.29410       -13.04367
| 28>    N       -0.59625        -2.70350       -13.67504
| 29>    C       -1.60317        -1.93840       -13.19825
| 30>    S       -2.65793        -1.01827       -14.21558
| 31>    C       -3.45722        -0.40496       -12.79748
| 32>    N       -4.51076         0.47958       -12.97880
| 33>    O       -5.07172         0.91323       -11.98269
| 34>    O       -4.80499         0.76493       -14.13201
| 35>    C       -2.93512        -0.89294       -11.62339
| 36>    C       -1.87280        -1.78125       -11.82658
| 37>    C       -1.11698        -2.47003       -10.80944
| 38>    C       -1.11130        -2.15584        -9.50526
| 39>    N       -0.39088        -2.81976        -8.54025
| 40>    C        0.70659        -3.64507        -8.75648
| 41>    C        1.60084        -3.56195        -9.78133
| 42>    S        2.83171        -4.75854        -9.66985
| 43>    C        2.16076        -5.38172        -8.21532
| 44>    C        1.03489        -4.70635        -7.83980
| 45>    N        0.26231        -4.96093        -6.72684
| 46>    C        0.63191        -5.76135        -5.68827
| 47>    C       -0.17932        -6.07218        -4.64756
| 48>    C        0.16452        -6.87061        -3.53176
| 49>    C        1.33296        -7.53614        -3.26332
| 50>    C        1.59229        -8.30610        -2.09899
| 51>    C        2.82681        -8.87978        -2.05099
| 52>    C        3.63014        -8.60669        -3.17794
| 53>    S        2.75271        -7.58838        -4.30140
| 54>    C        4.91571        -9.01616        -3.46640
| 55>    C        5.79295        -9.81422        -2.70054
| 56>    C        7.00192       -10.02430        -3.29109
| 57>    C        7.15874        -9.41160        -4.56139
| 58>    S        5.68507        -8.54486        -4.96719
| 59>    C        8.27027        -9.47993        -5.35890
| 60>    C        8.46462        -8.90338        -6.63441
| 61>    C        7.60306        -8.12346        -7.40664
| 62>    C        8.25252        -7.79846        -8.62543
| 63>    C        7.83564        -7.06905        -9.71453
| 64>    C        8.72845        -6.93429       -10.79199
| 65>    C        8.61601        -6.28395       -12.01006
| 66>    C        9.82759        -6.45877       -12.75247
| 67>    C       10.69140        -7.21965       -11.98805
| 68>    C       10.04665        -7.54263       -10.75221
| 69>    C       10.46589        -8.26730        -9.66953
| 70>    C        9.56995        -8.40786        -8.58712
| 71>    C        9.68392        -9.06859        -7.38060
| 72>    C       10.03792        -5.90543       -14.06935
| 73>    C       11.14990        -6.02279       -14.79031
| 74>    H        0.10230        -2.99963       -18.45521
| 75>    H        3.62636        -5.47878       -19.90821
| 76>    H        3.87385        -5.80075       -16.65144
| 77>    H        3.51534        -5.64174       -14.23245
| 78>    H        2.24638        -4.79078       -12.55656
| 79>    H       -0.01805        -3.17107       -12.98084
| 80>    H       -3.33537        -0.61258       -10.66705
| 81>    H       -0.51967        -3.30885       -11.13364
| 82>    H       -1.72192        -1.35252        -9.12092
| 83>    H       -0.54834        -2.54167        -7.58393
| 84>    H        1.63214        -2.84680       -10.57647
| 85>    H        2.63294        -6.21661        -7.74090
| 86>    H       -0.67888        -4.59179        -6.72644
| 87>    H        1.64870        -6.10712        -5.73614
| 88>    H       -1.18795        -5.67644        -4.65097
| 89>    H       -0.60487        -6.97759        -2.77753
| 90>    H        0.84891        -8.40875        -1.32751
| 91>    H        3.17957        -9.49170        -1.23988
| 92>    H        5.50928       -10.20731        -1.74038
| 93>    H        7.79551       -10.60637        -2.85537
| 94>    H        9.10019       -10.05403        -4.96431
| 95>    H        6.61140        -7.80852        -7.14709
| 96>    H        6.85593        -6.61302        -9.74892
| 97>    H        7.76145        -5.72994       -12.35744
| 98>    H       11.68352        -7.53054       -12.25647
| 99>    H       11.44599        -8.72247        -9.63154
|100>    H       10.53748        -9.62534        -7.03545
|101>    H        9.19914        -5.35008       -14.47153
|102>    H       12.01013        -6.56033       -14.42982
|103>    H       11.23656        -5.58477       -15.76968
|104> *
|105> 
|106>                          ****END OF INPUT****
================================================================================

                       ****************************
                       * Single Point Calculation *
                       ****************************

---------------------------------
CARTESIAN COORDINATES (ANGSTROEM)
---------------------------------
  C      0.183320   -3.105790  -17.394160
  S     -0.952310   -2.327720  -16.369350
  C     -0.189180   -2.942490  -14.953040
  C      0.917610   -3.730480  -15.271760
  C      1.123170   -3.816210  -16.692950
  C      2.222210   -4.586620  -17.189450
  C      2.457270   -4.693550  -18.633690
  O      1.788930   -4.175550  -19.498080
  O      3.528720   -5.450400  -18.944000
  C      3.044080   -5.216880  -16.286210
  C      2.839460   -5.128870  -14.902110
  C      1.796110   -4.400670  -14.386300
  O      1.574450   -4.294100  -13.043670
  N     -0.596250   -2.703500  -13.675040
  C     -1.603170   -1.938400  -13.198250
  S     -2.657930   -1.018270  -14.215580
  C     -3.457220   -0.404960  -12.797480
  N     -4.510760    0.479580  -12.978800
  O     -5.071720    0.913230  -11.982690
  O     -4.804990    0.764930  -14.132010
  C     -2.935120   -0.892940  -11.623390
  C     -1.872800   -1.781250  -11.826580
  C     -1.116980   -2.470030  -10.809440
  C     -1.111300   -2.155840   -9.505260
  N     -0.390880   -2.819760   -8.540250
  C      0.706590   -3.645070   -8.756480
  C      1.600840   -3.561950   -9.781330
  S      2.831710   -4.758540   -9.669850
  C      2.160760   -5.381720   -8.215320
  C      1.034890   -4.706350   -7.839800
  N      0.262310   -4.960930   -6.726840
  C      0.631910   -5.761350   -5.688270
  C     -0.179320   -6.072180   -4.647560
  C      0.164520   -6.870610   -3.531760
  C      1.332960   -7.536140   -3.263320
  C      1.592290   -8.306100   -2.098990
  C      2.826810   -8.879780   -2.050990
  C      3.630140   -8.606690   -3.177940
  S      2.752710   -7.588380   -4.301400
  C      4.915710   -9.016160   -3.466400
  C      5.792950   -9.814220   -2.700540
  C      7.001920  -10.024300   -3.291090
  C      7.158740   -9.411600   -4.561390
  S      5.685070   -8.544860   -4.967190
  C      8.270270   -9.479930   -5.358900
  C      8.464620   -8.903380   -6.634410
  C      7.603060   -8.123460   -7.406640
  C      8.252520   -7.798460   -8.625430
  C      7.835640   -7.069050   -9.714530
  C      8.728450   -6.934290  -10.791990
  C      8.616010   -6.283950  -12.010060
  C      9.827590   -6.458770  -12.752470
  C     10.691400   -7.219650  -11.988050
  C     10.046650   -7.542630  -10.752210
  C     10.465890   -8.267300   -9.669530
  C      9.569950   -8.407860   -8.587120
  C      9.683920   -9.068590   -7.380600
  C     10.037920   -5.905430  -14.069350
  C     11.149900   -6.022790  -14.790310
  H      0.102300   -2.999630  -18.455210
  H      3.626360   -5.478780  -19.908210
  H      3.873850   -5.800750  -16.651440
  H      3.515340   -5.641740  -14.232450
  H      2.246380   -4.790780  -12.556560
  H     -0.018050   -3.171070  -12.980840
  H     -3.335370   -0.612580  -10.667050
  H     -0.519670   -3.308850  -11.133640
  H     -1.721920   -1.352520   -9.120920
  H     -0.548340   -2.541670   -7.583930
  H      1.632140   -2.846800  -10.576470
  H      2.632940   -6.216610   -7.740900
  H     -0.678880   -4.591790   -6.726440
  H      1.648700   -6.107120   -5.736140
  H     -1.187950   -5.676440   -4.650970
  H     -0.604870   -6.977590   -2.777530
  H      0.848910   -8.408750   -1.327510
  H      3.179570   -9.491700   -1.239880
  H      5.509280  -10.207310   -1.740380
  H      7.795510  -10.606370   -2.855370
  H      9.100190  -10.054030   -4.964310
  H      6.611400   -7.808520   -7.147090
  H      6.855930   -6.613020   -9.748920
  H      7.761450   -5.729940  -12.357440
  H     11.683520   -7.530540  -12.256470
  H     11.445990   -8.722470   -9.631540
  H     10.537480   -9.625340   -7.035450
  H      9.199140   -5.350080  -14.471530
  H     12.010130   -6.560330  -14.429820
  H     11.236560   -5.584770  -15.769680

----------------------------
CARTESIAN COORDINATES (A.U.)
----------------------------
  NO LB      ZA    FRAG     MASS         X           Y           Z
   0 C     6.0000    0    12.011    0.346425   -5.869093  -32.870199
   1 S    16.0000    0    32.060   -1.799605   -4.398753  -30.933588
   2 C     6.0000    0    12.011   -0.357498   -5.560500  -28.257150
   3 C     6.0000    0    12.011    1.734032   -7.049586  -28.859444
   4 C     6.0000    0    12.011    2.122484   -7.211592  -31.545104
   5 C     6.0000    0    12.011    4.199368   -8.667456  -32.483353
   6 C     6.0000    0    12.011    4.643567   -8.869524  -35.212571
   7 O     8.0000    0    15.999    3.380588   -7.890646  -36.846031
   8 O     8.0000    0    15.999    6.668314  -10.299763  -35.798972
   9 C     6.0000    0    12.011    5.752478   -9.858474  -30.776477
  10 C     6.0000    0    12.011    5.365802   -9.692160  -28.160907
  11 C     6.0000    0    12.011    3.394156   -8.316061  -27.186167
  12 O     8.0000    0    15.999    2.975279   -8.114673  -24.648964
  13 N     7.0000    0    14.007   -1.126749   -5.108875  -25.842080
  14 C     6.0000    0    12.011   -3.029552   -3.663045  -24.941078
  15 S    16.0000    0    32.060   -5.022760   -1.924251  -26.863553
  16 C     6.0000    0    12.011   -6.533199   -0.765263  -24.183732
  17 N     7.0000    0    14.007   -8.524101    0.906275  -24.526378
  18 O     8.0000    0    15.999   -9.584162    1.725755  -22.644002
  19 O     8.0000    0    15.999   -9.080115    1.445508  -26.705629
  20 C     6.0000    0    12.011   -5.546573   -1.687412  -21.965024
  21 C     6.0000    0    12.011   -3.539079   -3.366075  -22.348997
  22 C     6.0000    0    12.011   -2.110786   -4.667680  -20.426881
  23 C     6.0000    0    12.011   -2.100053   -4.073947  -17.962338
  24 N     7.0000    0    14.007   -0.738656   -5.328574  -16.138734
  25 C     6.0000    0    12.011    1.335262   -6.888184  -16.547349
  26 C     6.0000    0    12.011    3.025149   -6.731110  -18.484035
  27 S    16.0000    0    32.060    5.351156   -8.992337  -18.273368
  28 C     6.0000    0    12.011    4.083245  -10.169977  -15.524705
  29 C     6.0000    0    12.011    1.955659   -8.893713  -14.815075
  30 N     7.0000    0    14.007    0.495694   -9.374799  -12.711885
  31 C     6.0000    0    12.011    1.194137  -10.887374  -10.749272
  32 C     6.0000    0    12.011   -0.338866  -11.474757   -8.782616
  33 C     6.0000    0    12.011    0.310898  -12.983571   -6.674059
  34 C     6.0000    0    12.011    2.518929  -14.241241   -6.166781
  35 C     6.0000    0    12.011    3.008992  -15.696254   -3.966516
  36 C     6.0000    0    12.011    5.341897  -16.780352   -3.875809
  37 C     6.0000    0    12.011    6.859970  -16.264287   -6.005436
  38 S    16.0000    0    32.060    5.201868  -14.339960   -8.128468
  39 C     6.0000    0    12.011    9.289346  -17.038073   -6.550547
  40 C     6.0000    0    12.011   10.947089  -18.546188   -5.103281
  41 C     6.0000    0    12.011   13.231711  -18.943182   -6.219259
  42 C     6.0000    0    12.011   13.528058  -17.785346   -8.619778
  43 S    16.0000    0    32.060   10.743225  -16.147445   -9.386629
  44 C     6.0000    0    12.011   15.628545  -17.914471  -10.126853
  45 C     6.0000    0    12.011   15.995814  -16.824950  -12.537218
  46 C     6.0000    0    12.011   14.367701  -15.351115  -13.996521
  47 C     6.0000    0    12.011   15.595003  -14.736954  -16.299700
  48 C     6.0000    0    12.011   14.807214  -13.358569  -18.357801
  49 C     6.0000    0    12.011   16.494380  -13.103909  -20.393906
  50 C     6.0000    0    12.011   16.281899  -11.874945  -22.695724
  51 C     6.0000    0    12.011   18.571454  -12.205306  -24.098676
  52 C     6.0000    0    12.011   20.203818  -13.643161  -22.654131
  53 C     6.0000    0    12.011   18.985417  -14.253505  -20.318732
  54 C     6.0000    0    12.011   19.777666  -15.622933  -18.272764
  55 C     6.0000    0    12.011   18.084585  -15.888553  -16.227305
  56 C     6.0000    0    12.011   18.299957  -17.137152  -13.947313
  57 C     6.0000    0    12.011   18.968920  -11.159645  -26.587218
  58 C     6.0000    0    12.011   21.070257  -11.381424  -27.949635
  59 H     1.0000    0     1.008    0.193319   -5.668479  -34.875293
  60 H     1.0000    0     1.008    6.852827  -10.353394  -37.621065
  61 H     1.0000    0     1.008    7.320516  -10.961829  -31.466661
  62 H     1.0000    0     1.008    6.643030  -10.661344  -26.895433
  63 H     1.0000    0     1.008    4.245043   -9.053262  -23.728460
  64 H     1.0000    0     1.008   -0.034110   -5.992454  -24.530233
  65 H     1.0000    0     1.008   -6.302936   -1.157608  -20.157803
  66 H     1.0000    0     1.008   -0.982034   -6.252820  -21.039530
  67 H     1.0000    0     1.008   -3.253957   -2.555892  -17.236041
  68 H     1.0000    0     1.008   -1.036212   -4.803060  -14.331551
  69 H     1.0000    0     1.008    3.084298   -5.379672  -19.986632
  70 H     1.0000    0     1.008    4.975536  -11.747690  -14.628181
  71 H     1.0000    0     1.008   -1.282897   -8.677226  -12.711129
  72 H     1.0000    0     1.008    3.115591  -11.540784  -10.839734
  73 H     1.0000    0     1.008   -2.244900  -10.726917   -8.789060
  74 H     1.0000    0     1.008   -1.143039  -13.185734   -5.248771
  75 H     1.0000    0     1.008    1.604207  -15.890235   -2.508630
  76 H     1.0000    0     1.008    6.008517  -17.936714   -2.343034
  77 H     1.0000    0     1.008   10.411030  -19.289020   -3.288842
  78 H     1.0000    0     1.008   14.731379  -20.043135   -5.395867
  79 H     1.0000    0     1.008   17.196867  -18.999363   -9.381186
  80 H     1.0000    0     1.008   12.493735  -14.755964  -13.506043
  81 H     1.0000    0     1.008   12.955830  -12.496797  -18.422789
  82 H     1.0000    0     1.008   14.667015  -10.828017  -23.352177
  83 H     1.0000    0     1.008   22.078653  -14.230658  -23.161372
  84 H     1.0000    0     1.008   21.629786  -16.483080  -18.200973
  85 H     1.0000    0     1.008   19.912951  -18.189257  -13.295074
  86 H     1.0000    0     1.008   17.383855  -10.110186  -27.347228
  87 H     1.0000    0     1.008   22.695857  -12.397227  -27.268408
  88 H     1.0000    0     1.008   21.234021  -10.553686  -29.800376

--------------------------------
INTERNAL COORDINATES (ANGSTROEM)
--------------------------------
 C      0   0   0     0.000000000000     0.00000000     0.00000000
 S      1   0   0     1.716182961662     0.00000000     0.00000000
 C      2   1   0     1.722278597063    92.06453717     0.00000000
 C      3   2   1     1.395526704366   111.41727802     0.00000000
 C      1   2   3     1.371025186858   112.52751883   359.95728694
 C      5   1   2     1.431060005625   128.90078819   180.16014478
 C      6   5   1     1.467145666285   120.25236804   359.87233610
 O      7   6   5     1.209203220183   125.72584149   359.95667403
 O      7   6   5     1.348005682889   113.25801004   179.93510546
 C      6   5   1     1.374241777163   118.56555503   179.83555961
 C     10   6   5     1.401908668387   122.19702553     0.00000000
 C     11  10   6     1.372921854513   121.00737347     0.02800159
 O     12  11  10     1.364970929141   122.30143807   180.18276753
 N      3   2   1     1.362389887294   125.19771604   180.00611093
 C     14   3   2     1.351515667871   130.75636509   357.43881781
 S     15  14   3     1.730352046088   123.21368709   359.36743681
 C     16  15  14     1.739546282857    89.32820967   182.24579963
 N     17  16  15     1.387528192723   117.84692123   180.08979262
 O     18  17  16     1.222687031174   117.90424263   180.13221387
 O     18  17  16     1.223882845496   117.02017227     0.10584182
 C     17  16  15     1.374481799989   113.36903994   359.76298336
 C     21  17  16     1.399608736255   112.93166951   359.89019896
 C     22  21  17     1.442309100158   126.75996212   180.37469981
 C     23  22  21     1.341504040583   125.16743058   344.55517641
 N     24  23  22     1.375150552812   124.84564336   179.80203298
 C     25  24  23     1.390083598170   126.23449383    19.32879005
 C     26  25  24     1.362684673503   126.78935857    28.54958551
 S     27  26  25     1.720260554509   112.23354633   179.02313132
 C     28  27  26     1.718774195699    91.58900304   359.37898033
 C     29  28  27     1.365548667826   112.03956921     0.49233296
 N     30  29  28     1.378539369913   126.35232414   179.82690944
 C     31  30  29     1.362315668742   124.88582704    13.02974762
 C     32  31  30     1.355649920112   123.89093858   184.76346328
 C     33  32  31     1.414470236696   126.12468053   181.58081139
 C     34  33  32     1.371219256027   129.46004749   357.47093181
 C     35  34  33     1.419772798514   125.40865537   179.20591839
 C     36  35  34     1.362149908343   115.01395158   179.87822914
 C     37  36  35     1.410650041470   113.98093247   359.80956440
 S     38  37  36     1.751856453195   109.85420705     0.07344425
 C     38  37  36     1.379697458648   129.80644917   180.04214077
 C     40  38  37     1.411733445378   129.29764148   359.17806014
 C     41  40  38     1.361797110366   113.80394271   180.11262350
 C     42  41  40     1.419033435970   114.81588027   359.80605413
 S     40  38  37     1.751116536299   120.57661488   179.20341015
 C     43  42  41     1.369740898820   126.11078296   180.49638305
 C     45  43  42     1.413190569279   128.07979657   179.06415508
 C     46  45  43     1.395313589449   129.98971696     0.29832580
 C     47  46  45     1.418757327981   108.71290488   180.77061862
 C     48  47  46     1.375487801654   131.52366358   179.51010800
 C     49  48  47     1.405770253384   117.72458569   180.47017598
 C     50  49  48     1.385380595396   131.86254589   179.70626483
 C     51  50  49     1.431663625612   109.26458867   180.10278534
 C     52  51  50     1.381826337461   108.02275988   359.95616762
 C     53  52  51     1.430845606102   108.68772322     0.08930290
 C     54  53  52     1.368614178247   131.66332454   179.79491587
 C     55  54  53     1.412117914800   117.69246370   180.24216188
 C     56  55  54     1.380305692302   131.70293590   179.53689419
 C     52  51  50     1.443813283946   123.32989447   179.93425688
 C     58  52  51     1.330434595010   125.60590858   178.95629922
 H      1   2   3     1.069421006199   119.82369986   180.05622377
 H      9   7   6     0.969556557453   108.99038924   180.01972746
 H     10   6   5     1.078339177949   119.07180998   179.91099936
 H     11  10   6     1.080876462367   119.38171074   180.11368226
 H     13  12  11     0.967190311883   110.02803118     0.21886201
 H     14   3   2     1.017276061303   112.93491665   179.09170357
 H     21  17  16     1.073959025149   121.76299706   180.79282478
 H     23  22  21     1.079585044589   116.69307971   163.94304998
 H     24  23  22     1.079767124152   121.19107599     1.93048978
 H     25  24  23     1.008303348254   116.78235099   186.08205578
 H     27  26  25     1.069891037489   128.23701609     1.51651784
 H     29  28  27     1.070079249822   119.06633906   179.51555647
 H     31  30  29     1.010991155105   117.04114432   198.87503462
 H     32  31  30     1.075039689453   114.30728964     6.97089925
 H     33  32  31     1.083492617695   118.09269076     1.23397350
 H     34  33  32     1.082713528779   115.62963040   177.66709752
 H     36  35  34     1.076258443544   120.89126627   359.76489751
 H     37  36  35     1.075539462828   124.29418896   179.96488771
 H     41  40  38     1.075590834193   121.80249222     0.02330797
 H     42  41  40     1.076309663340   124.22548190   179.95204419
 H     45  43  42     1.083540162846   115.84559470   359.56198461
 H     47  46  45     1.072353934902   126.95650135     0.73689063
 H     49  48  47     1.081192728934   121.56624970     0.38872102
 H     51  50  49     1.076044951710   126.15619833     0.18706071
 H     53  52  51     1.073780230261   126.77828402   179.95738601
 H     55  54  53     1.081304295284   121.89299667     0.18592535
 H     57  56  55     1.075947841951   126.41264213     0.22886089
 H     58  52  51     1.083380940990   114.97737600   359.23155460
 H     59  58  52     1.076521223479   122.03648274   359.95167097
 H     59  58  52     1.076353600310   121.63230007   179.84674051

---------------------------
INTERNAL COORDINATES (A.U.)
---------------------------
 C      0   0   0     0.000000000000     0.00000000     0.00000000
 S      1   0   0     3.243115793244     0.00000000     0.00000000
 C      2   1   0     3.254634874762    92.06453717     0.00000000
 C      3   2   1     2.637163283826   111.41727802     0.00000000
 C      1   2   3     2.590862125871   112.52751883   359.95728694
 C      5   1   2     2.704311491839   128.90078819   180.16014478
 C      6   5   1     2.772503507849   120.25236804   359.87233610
 O      7   6   5     2.285062926401   125.72584149   359.95667403
 O      7   6   5     2.547361567629   113.25801004   179.93510546
 C      6   5   1     2.596940600631   118.56555503   179.83555961
 C     10   6   5     2.649223448023   122.19702553     0.00000000
 C     11  10   6     2.594446308305   121.00737347     0.02800159
 O     12  11  10     2.579421236840   122.30143807   180.18276753
 N      3   2   1     2.574543774609   125.19771604   180.00611093
 C     14   3   2     2.553994477979   130.75636509   357.43881781
 S     15  14   3     3.269891482376   123.21368709   359.36743681
 C     16  15  14     3.287266071880    89.32820967   182.24579963
 N     17  16  15     2.622048287340   117.84692123   180.08979262
 O     18  17  16     2.310543636415   117.90424263   180.13221387
 O     18  17  16     2.312803397992   117.02017227     0.10584182
 C     17  16  15     2.597394178038   113.36903994   359.76298336
 C     21  17  16     2.644877206165   112.93166951   359.89019896
 C     22  21  17     2.725569199762   126.75996212   180.37469981
 C     23  22  21     2.535075244250   125.16743058   344.55517641
 N     24  23  22     2.598657937726   124.84564336   179.80203298
 C     25  24  23     2.626877303796   126.23449383    19.32879005
 C     26  25  24     2.575100839813   126.78935857    28.54958551
 S     27  26  25     3.250821327010   112.23354633   179.02313132
 C     28  27  26     3.248012515921    91.58900304   359.37898033
 C     29  28  27     2.580513004731   112.03956921     0.49233296
 N     30  29  28     2.605061873964   126.35232414   179.82690944
 C     31  30  29     2.574403521872   124.88582704    13.02974762
 C     32  31  30     2.561807082484   123.89093858   184.76346328
 C     33  32  31     2.672961371939   126.12468053   181.58081139
 C     34  33  32     2.591228863451   129.46004749   357.47093181
 C     35  34  33     2.682981761582   125.40865537   179.20591839
 C     36  35  34     2.574090280115   115.01395158   179.87822914
 C     37  36  35     2.665742249183   113.98093247   359.80956440
 S     38  37  36     3.310528922481   109.85420705     0.07344425
 C     38  37  36     2.607250344512   129.80644917   180.04214077
 C     40  38  37     2.667789585862   129.29764148   359.17806014
 C     41  40  38     2.573423588556   113.80394271   180.11262350
 C     42  41  40     2.681584568860   114.81588027   359.80605413
 S     40  38  37     3.309130682186   120.57661488   179.20341015
 C     43  42  41     2.588435173201   126.11078296   180.49638305
 C     45  43  42     2.670543150978   128.07979657   179.06415508
 C     46  45  43     2.636760554997   129.98971696     0.29832580
 C     47  46  45     2.681062800378   108.71290488   180.77061862
 C     48  47  46     2.599295245676   131.52366358   179.51010800
 C     49  48  47     2.656520786109   117.72458569   180.47017598
 C     50  49  48     2.617989916547   131.86254589   179.70626483
 C     51  50  49     2.705452168303   109.26458867   180.10278534
 C     52  51  50     2.611273342440   108.02275988   359.95616762
 C     53  52  51     2.703906335456   108.68772322     0.08930290
 C     54  53  52     2.586305979889   131.66332454   179.79491587
 C     55  54  53     2.668516127777   117.69246370   180.24216188
 C     56  55  54     2.608399739542   131.70293590   179.53689419
 C     52  51  50     2.728411695176   123.32989447   179.93425688
 C     58  52  51     2.514157023664   125.60590858   178.95629922
 H      1   2   3     2.020912823579   119.82369986   180.05622377
 H      9   7   6     1.832196364934   108.99038924   180.01972746
 H     10   6   5     2.037765725802   119.07180998   179.91099936
 H     11  10   6     2.042560498476   119.38171074   180.11368226
 H     13  12  11     1.827724808840   110.02803118     0.21886201
 H     14   3   2     1.922373158457   112.93491665   179.09170357
 H     21  17  16     2.029488436586   121.76299706   180.79282478
 H     23  22  21     2.040120072550   116.69307971   163.94304998
 H     24  23  22     2.040464153059   121.19107599     1.93048978
 H     25  24  23     1.905417188116   116.78235099   186.08205578
 H     27  26  25     2.021801053992   128.23701609     1.51651784
 H     29  28  27     2.022156723756   119.06633906   179.51555647
 H     31  30  29     1.910496406965   117.04114432   198.87503462
 H     32  31  30     2.031530596163   114.30728964     6.97089925
 H     33  32  31     2.047504315569   118.09269076     1.23397350
 H     34  33  32     2.046032050883   115.62963040   177.66709752
 H     36  35  34     2.033833707619   120.89126627   359.76489751
 H     37  36  35     2.032475030969   124.29418896   179.96488771
 H     41  40  38     2.032572108781   121.80249222     0.02330797
 H     42  41  40     2.033930499006   124.22548190   179.95204419
 H     45  43  42     2.047594162883   115.84559470   359.56198461
 H     47  46  45     2.026455255598   126.95650135     0.73689063
 H     49  48  47     2.043158155672   121.56624970     0.38872102
 H     51  50  49     2.033430266520   126.15619833     0.18706071
 H     53  52  51     2.029150563213   126.77828402   179.95738601
 H     55  54  53     2.043368985520   121.89299667     0.18592535
 H     57  56  55     2.033246755672   126.41264213     0.22886089
 H     58  52  51     2.047293277181   114.97737600   359.23155460
 H     59  58  52     2.034330289729   122.03648274   359.95167097
 H     59  58  52     2.034013527846   121.63230007   179.84674051

---------------------
BASIS SET INFORMATION
---------------------
There are 5 groups of distinct atoms

 Group   1 Type C   : 7s4p1d contracted to 3s2p1d pattern {511/31/1}
 Group   2 Type S   : 10s7p1d contracted to 4s3p1d pattern {5311/511/1}
 Group   3 Type O   : 7s4p1d contracted to 3s2p1d pattern {511/31/1}
 Group   4 Type N   : 7s4p1d contracted to 3s2p1d pattern {511/31/1}
 Group   5 Type H   : 4s1p contracted to 2s1p pattern {31/1}

Atom   0C    basis set group =>   1
Atom   1S    basis set group =>   2
Atom   2C    basis set group =>   1
Atom   3C    basis set group =>   1
Atom   4C    basis set group =>   1
Atom   5C    basis set group =>   1
Atom   6C    basis set group =>   1
Atom   7O    basis set group =>   3
Atom   8O    basis set group =>   3
Atom   9C    basis set group =>   1
Atom  10C    basis set group =>   1
Atom  11C    basis set group =>   1
Atom  12O    basis set group =>   3
Atom  13N    basis set group =>   4
Atom  14C    basis set group =>   1
Atom  15S    basis set group =>   2
Atom  16C    basis set group =>   1
Atom  17N    basis set group =>   4
Atom  18O    basis set group =>   3
Atom  19O    basis set group =>   3
Atom  20C    basis set group =>   1
Atom  21C    basis set group =>   1
Atom  22C    basis set group =>   1
Atom  23C    basis set group =>   1
Atom  24N    basis set group =>   4
Atom  25C    basis set group =>   1
Atom  26C    basis set group =>   1
Atom  27S    basis set group =>   2
Atom  28C    basis set group =>   1
Atom  29C    basis set group =>   1
Atom  30N    basis set group =>   4
Atom  31C    basis set group =>   1
Atom  32C    basis set group =>   1
Atom  33C    basis set group =>   1
Atom  34C    basis set group =>   1
Atom  35C    basis set group =>   1
Atom  36C    basis set group =>   1
Atom  37C    basis set group =>   1
Atom  38S    basis set group =>   2
Atom  39C    basis set group =>   1
Atom  40C    basis set group =>   1
Atom  41C    basis set group =>   1
Atom  42C    basis set group =>   1
Atom  43S    basis set group =>   2
Atom  44C    basis set group =>   1
Atom  45C    basis set group =>   1
Atom  46C    basis set group =>   1
Atom  47C    basis set group =>   1
Atom  48C    basis set group =>   1
Atom  49C    basis set group =>   1
Atom  50C    basis set group =>   1
Atom  51C    basis set group =>   1
Atom  52C    basis set group =>   1
Atom  53C    basis set group =>   1
Atom  54C    basis set group =>   1
Atom  55C    basis set group =>   1
Atom  56C    basis set group =>   1
Atom  57C    basis set group =>   1
Atom  58C    basis set group =>   1
Atom  59H    basis set group =>   5
Atom  60H    basis set group =>   5
Atom  61H    basis set group =>   5
Atom  62H    basis set group =>   5
Atom  63H    basis set group =>   5
Atom  64H    basis set group =>   5
Atom  65H    basis set group =>   5
Atom  66H    basis set group =>   5
Atom  67H    basis set group =>   5
Atom  68H    basis set group =>   5
Atom  69H    basis set group =>   5
Atom  70H    basis set group =>   5
Atom  71H    basis set group =>   5
Atom  72H    basis set group =>   5
Atom  73H    basis set group =>   5
Atom  74H    basis set group =>   5
Atom  75H    basis set group =>   5
Atom  76H    basis set group =>   5
Atom  77H    basis set group =>   5
Atom  78H    basis set group =>   5
Atom  79H    basis set group =>   5
Atom  80H    basis set group =>   5
Atom  81H    basis set group =>   5
Atom  82H    basis set group =>   5
Atom  83H    basis set group =>   5
Atom  84H    basis set group =>   5
Atom  85H    basis set group =>   5
Atom  86H    basis set group =>   5
Atom  87H    basis set group =>   5
Atom  88H    basis set group =>   5
---------------------------------
AUXILIARY/J BASIS SET INFORMATION
---------------------------------
There are 5 groups of distinct atoms

 Group   1 Type C   : 12s5p4d2f1g contracted to 6s4p3d1f1g pattern {711111/2111/211/2/1}
 Group   2 Type S   : 14s5p5d2f1g contracted to 8s4p3d1f1g pattern {71111111/2111/311/2/1}
 Group   3 Type O   : 12s5p4d2f1g contracted to 6s4p3d1f1g pattern {711111/2111/211/2/1}
 Group   4 Type N   : 12s5p4d2f1g contracted to 6s4p3d1f1g pattern {711111/2111/211/2/1}
 Group   5 Type H   : 5s2p1d contracted to 3s1p1d pattern {311/2/1}

Atom   0C    basis set group =>   1
Atom   1S    basis set group =>   2
Atom   2C    basis set group =>   1
Atom   3C    basis set group =>   1
Atom   4C    basis set group =>   1
Atom   5C    basis set group =>   1
Atom   6C    basis set group =>   1
Atom   7O    basis set group =>   3
Atom   8O    basis set group =>   3
Atom   9C    basis set group =>   1
Atom  10C    basis set group =>   1
Atom  11C    basis set group =>   1
Atom  12O    basis set group =>   3
Atom  13N    basis set group =>   4
Atom  14C    basis set group =>   1
Atom  15S    basis set group =>   2
Atom  16C    basis set group =>   1
Atom  17N    basis set group =>   4
Atom  18O    basis set group =>   3
Atom  19O    basis set group =>   3
Atom  20C    basis set group =>   1
Atom  21C    basis set group =>   1
Atom  22C    basis set group =>   1
Atom  23C    basis set group =>   1
Atom  24N    basis set group =>   4
Atom  25C    basis set group =>   1
Atom  26C    basis set group =>   1
Atom  27S    basis set group =>   2
Atom  28C    basis set group =>   1
Atom  29C    basis set group =>   1
Atom  30N    basis set group =>   4
Atom  31C    basis set group =>   1
Atom  32C    basis set group =>   1
Atom  33C    basis set group =>   1
Atom  34C    basis set group =>   1
Atom  35C    basis set group =>   1
Atom  36C    basis set group =>   1
Atom  37C    basis set group =>   1
Atom  38S    basis set group =>   2
Atom  39C    basis set group =>   1
Atom  40C    basis set group =>   1
Atom  41C    basis set group =>   1
Atom  42C    basis set group =>   1
Atom  43S    basis set group =>   2
Atom  44C    basis set group =>   1
Atom  45C    basis set group =>   1
Atom  46C    basis set group =>   1
Atom  47C    basis set group =>   1
Atom  48C    basis set group =>   1
Atom  49C    basis set group =>   1
Atom  50C    basis set group =>   1
Atom  51C    basis set group =>   1
Atom  52C    basis set group =>   1
Atom  53C    basis set group =>   1
Atom  54C    basis set group =>   1
Atom  55C    basis set group =>   1
Atom  56C    basis set group =>   1
Atom  57C    basis set group =>   1
Atom  58C    basis set group =>   1
Atom  59H    basis set group =>   5
Atom  60H    basis set group =>   5
Atom  61H    basis set group =>   5
Atom  62H    basis set group =>   5
Atom  63H    basis set group =>   5
Atom  64H    basis set group =>   5
Atom  65H    basis set group =>   5
Atom  66H    basis set group =>   5
Atom  67H    basis set group =>   5
Atom  68H    basis set group =>   5
Atom  69H    basis set group =>   5
Atom  70H    basis set group =>   5
Atom  71H    basis set group =>   5
Atom  72H    basis set group =>   5
Atom  73H    basis set group =>   5
Atom  74H    basis set group =>   5
Atom  75H    basis set group =>   5
Atom  76H    basis set group =>   5
Atom  77H    basis set group =>   5
Atom  78H    basis set group =>   5
Atom  79H    basis set group =>   5
Atom  80H    basis set group =>   5
Atom  81H    basis set group =>   5
Atom  82H    basis set group =>   5
Atom  83H    basis set group =>   5
Atom  84H    basis set group =>   5
Atom  85H    basis set group =>   5
Atom  86H    basis set group =>   5
Atom  87H    basis set group =>   5
Atom  88H    basis set group =>   5


           ************************************************************
           *        Program running with 6 parallel MPI-processes     *
           *              working on a common directory               *
           ************************************************************
------------------------------------------------------------------------------
                           ORCA GTO INTEGRAL CALCULATION
                           -- RI-GTO INTEGRALS CHOSEN --
------------------------------------------------------------------------------

                         BASIS SET STATISTICS AND STARTUP INFO

Gaussian basis set:
 # of primitive gaussian shells          ...  888
 # of primitive gaussian functions       ... 1686
 # of contracted shells                  ...  454
 # of contracted basis functions         ...  996
 Highest angular momentum                ...    2
 Maximum contraction depth               ...    5
Auxiliary gaussian basis set:
 # of primitive gaussian shells          ... 1671
 # of primitive gaussian functions       ... 4645
 # of contracted shells                  ... 1045
 # of contracted aux-basis functions     ... 3231
 Highest angular momentum                ...    4
 Maximum contraction depth               ...    7
Ratio of auxiliary to basis functions    ...  3.24
Integral package used                  ... LIBINT
 One Electron integrals                  ... done
 Ordering auxiliary basis shells         ... done
 Integral threshhold             Thresh  ...  2.500e-11
 Primitive cut-off               TCut    ...  2.500e-12
 Pre-screening matrix                    ... done
 Shell pair data                         ... 
 Ordering of the shell pairs             ... done (   0.006 sec) 34923 of 103285 pairs
 Determination of significant pairs      ... done (   0.000 sec)
 Creation of shell pair data             ... done (   0.004 sec)
 Storage of shell pair data              ... done (   0.006 sec)
 Shell pair data done in (   0.016 sec)
 Computing two index integrals           ... done
 Cholesky decomposition of the V-matrix  ... done


Timings:
 Total evaluation time                   ...   1.663 sec (  0.028 min)
 One electron matrix time                ...   0.408 sec (  0.007 min) = 24.5%
 Schwartz matrix evaluation time         ...   0.484 sec (  0.008 min) = 29.1%
 Two index repulsion integral time       ...   0.278 sec (  0.005 min) = 16.7%
 Cholesky decomposition of V             ...   0.462 sec (  0.008 min) = 27.8%
 Three index repulsion integral time     ...   0.000 sec (  0.000 min) =  0.0%



           ************************************************************
           *        Program running with 6 parallel MPI-processes     *
           *              working on a common directory               *
           ************************************************************
-------------------------------------------------------------------------------
                                 ORCA SCF
-------------------------------------------------------------------------------

------------
SCF SETTINGS
------------
Hamiltonian:
 Density Functional     Method          .... DFT(GTOs)
 Exchange Functional    Exchange        .... WB88
 Correlation Functional Correlation     .... LYP
 LDA part of GGA corr.  LDAOpt          .... VWN-5
 Gradients option       PostSCFGGA      .... off
 Hybrid DFT is turned on
   Fraction HF Exchange ScalHFX         ....  0.190000
   Scaling of DF-GGA-X  ScalDFX         ....  0.350000
   Scaling of DF-GGA-C  ScalDFC         ....  0.810000
   Scaling of DF-LDA-C  ScalLDAC        ....  1.000000
   Perturbative correction              ....  0.000000
   Density functional embedding theory  .... OFF
 Long-range corrected/Screened/Range-Separated Hybrid DFT is turned on
   Amount of maximum screened exact exchange              ....  0.460000
   Range separation parameter mu (erf(mu*r12)/r12)        ....  0.330000
 RI-approximation to the Coulomb term is turned on
   Number of auxiliary basis functions  .... 3231
   RIJ-COSX (HFX calculated with COS-X)).... on


General Settings:
 Integral files         IntName         .... xtbopt
 Hartree-Fock type      HFTyp           .... RHF
 Total Charge           Charge          ....    0
 Multiplicity           Mult            ....    1
 Number of Electrons    NEL             ....  448
 Basis Dimension        Dim             ....  996
 Nuclear Repulsion      ENuc            ....   8289.4561696512 Eh

Convergence Acceleration:
 DIIS                   CNVDIIS         .... on
   Start iteration      DIISMaxIt       ....    12
   Startup error        DIISStart       ....  0.200000
   # of expansion vecs  DIISMaxEq       ....     5
   Bias factor          DIISBfac        ....   1.050
   Max. coefficient     DIISMaxC        ....  10.000
 Newton-Raphson         CNVNR           .... off
 SOSCF                  CNVSOSCF        .... on
   Start iteration      SOSCFMaxIt      ....   150
   Startup grad/error   SOSCFStart      ....  0.003300
 Level Shifting         CNVShift        .... on
   Level shift para.    LevelShift      ....    0.2500
   Turn off err/grad.   ShiftErr        ....    0.0010
 Zerner damping         CNVZerner       .... off
 Static damping         CNVDamp         .... on
   Fraction old density DampFac         ....    0.7000
   Max. Damping (<1)    DampMax         ....    0.9800
   Min. Damping (>=0)   DampMin         ....    0.0000
   Turn off err/grad.   DampErr         ....    0.1000
 Fernandez-Rico         CNVRico         .... off

SCF Procedure:
 Maximum # iterations   MaxIter         ....   125
 SCF integral mode      SCFMode         .... Direct
   Integral package                     .... LIBINT
 Reset frequency        DirectResetFreq ....    20
 Integral Threshold     Thresh          ....  2.500e-11 Eh
 Primitive CutOff       TCut            ....  2.500e-12 Eh

Convergence Tolerance:
 Convergence Check Mode ConvCheckMode   .... Total+1el-Energy
 Convergence forced     ConvForced      .... 1
 Energy Change          TolE            ....  1.000e-08 Eh
 1-El. energy change                    ....  1.000e-05 Eh
 Orbital Gradient       TolG            ....  1.000e-05
 Orbital Rotation angle TolX            ....  1.000e-05
 DIIS Error             TolErr          ....  5.000e-07


Diagonalization of the overlap matrix:
Smallest eigenvalue                        ... 2.003e-04
Time for diagonalization                   ...    0.171 sec
Threshold for overlap eigenvalues          ... 1.000e-08
Number of eigenvalues below threshold      ... 0
Time for construction of square roots      ...    0.100 sec
Total time needed                          ...    0.273 sec

-------------------
DFT GRID GENERATION
-------------------

General Integration Accuracy     IntAcc      ...  4.670
Radial Grid Type                 RadialGrid  ... Gauss-Chebyshev
Angular Grid (max. acc.)         AngularGrid ... Lebedev-302
Angular grid pruning method      GridPruning ... 3 (G Style)
Weight generation scheme         WeightScheme... Becke
Basis function cutoff            BFCut       ...    1.0000e-11
Integration weight cutoff        WCut        ...    1.0000e-14
Grids for H and He will be reduced by one unit

# of grid points (after initial pruning)     ... 471498 (   0.0 sec)
# of grid points (after weights+screening)   ... 409114 (   3.4 sec)
nearest neighbour list constructed           ...    0.0 sec
Grid point re-assignment to atoms done       ...    0.1 sec
Grid point division into batches done        ...    1.2 sec
Reduced shell lists constructed in    2.1 sec

Total number of grid points                  ...   409114
Total number of batches                      ...     6438
Average number of points per batch           ...       63
Average number of grid points per atom       ...     4597
Average number of shells per batch           ...    88.45 (19.48%)
Average number of basis functions per batch  ...   185.90 (18.66%)
Average number of large shells per batch     ...    56.49 (63.87%)
Average number of large basis fcns per batch ...   120.95 (65.06%)
Maximum spatial batch extension              ...  16.01, 19.04, 18.64 au
Average spatial batch extension              ...   0.31,  0.33,  0.27 au

Time for grid setup =    5.784 sec

------------------------------
INITIAL GUESS: MODEL POTENTIAL
------------------------------
Loading Hartree-Fock densities                     ... done
Calculating cut-offs                               ... done
Setting up the integral package                    ... done
Initializing the effective Hamiltonian             ... done
Starting the Coulomb interaction                   ... done (   0.8 sec)
Reading the grid                                   ... done
Mapping shells                                     ... done
Starting the XC term evaluation                    ... done (   1.0 sec)
  promolecular density results
     # of electrons  =    447.986053541
     EX              =   -430.903579733
     EC              =    -15.640041156
     EX+EC           =   -446.543620889
Transforming the Hamiltonian                       ... done (   0.1 sec)
Diagonalizing the Hamiltonian                      ... done (   0.2 sec)
Back transforming the eigenvectors                 ... done (   0.0 sec)
Now organizing SCF variables                       ... done
                      ------------------
                      INITIAL GUESS DONE (   8.0 sec)
                      ------------------
--------------------
COSX GRID GENERATION
--------------------

General Integration Accuracy     IntAcc      ...  3.340
Radial Grid Type                 RadialGrid  ... Gauss-Chebyshev
Angular Grid (max. acc.)         AngularGrid ... Lebedev-50
Angular grid pruning method      GridPruning ... 3 (G Style)
Weight generation scheme         WeightScheme... Becke
Basis function cutoff            BFCut       ...    1.0000e-11
Integration weight cutoff        WCut        ...    1.0000e-14
Grids for H and He will be reduced by one unit

# of grid points (after initial pruning)     ...  44394 (   0.0 sec)
# of grid points (after weights+screening)   ...  40021 (   0.3 sec)
nearest neighbour list constructed           ...    0.0 sec
Grid point re-assignment to atoms done       ...    0.0 sec
Grid point division into batches done        ...    0.0 sec
Reduced shell lists constructed in    0.1 sec

Total number of grid points                  ...    40021
Total number of batches                      ...      671
Average number of points per batch           ...       59
Average number of grid points per atom       ...      450
Average number of shells per batch           ...   103.80 (22.86%)
Average number of basis functions per batch  ...   219.60 (22.05%)
Average number of large shells per batch     ...    65.53 (63.13%)
Average number of large basis fcns per batch ...   142.77 (65.01%)
Maximum spatial batch extension              ...  13.51, 15.47, 13.13 au
Average spatial batch extension              ...   0.71,  0.80,  0.47 au

Overlap Fitting                  UseSFitting ... on
Constructing numerical overlap ... done (      0.1 sec)
Inverting numerical overlap    ... done (      0.0 sec)
Obtaining analytic overlap     ... done (      0.0 sec)
Final contraction and storage  ... done (      0.1 sec)


General Integration Accuracy     IntAcc      ...  3.670
Radial Grid Type                 RadialGrid  ... Gauss-Chebyshev
Angular Grid (max. acc.)         AngularGrid ... Lebedev-50
Angular grid pruning method      GridPruning ... 3 (G Style)
Weight generation scheme         WeightScheme... Becke
Basis function cutoff            BFCut       ...    1.0000e-11
Integration weight cutoff        WCut        ...    1.0000e-14
Grids for H and He will be reduced by one unit

# of grid points (after initial pruning)     ...  55674 (   0.0 sec)
# of grid points (after weights+screening)   ...  50019 (   0.4 sec)
nearest neighbour list constructed           ...    0.0 sec
Grid point re-assignment to atoms done       ...    0.0 sec
Grid point division into batches done        ...    0.0 sec
Reduced shell lists constructed in    0.2 sec

Total number of grid points                  ...    50019
Total number of batches                      ...      827
Average number of points per batch           ...       60
Average number of grid points per atom       ...      562
Average number of shells per batch           ...   102.86 (22.66%)
Average number of basis functions per batch  ...   217.99 (21.89%)
Average number of large shells per batch     ...    65.32 (63.51%)
Average number of large basis fcns per batch ...   142.20 (65.23%)
Maximum spatial batch extension              ...  13.98, 16.66, 13.88 au
Average spatial batch extension              ...   0.70,  0.80,  0.47 au

Overlap Fitting                  UseSFitting ... on
Constructing numerical overlap ... done (      0.1 sec)
Inverting numerical overlap    ... done (      0.0 sec)
Obtaining analytic overlap     ... done (      0.0 sec)
Final contraction and storage  ... done (      0.1 sec)


General Integration Accuracy     IntAcc      ...  4.010
Radial Grid Type                 RadialGrid  ... Gauss-Chebyshev
Angular Grid (max. acc.)         AngularGrid ... Lebedev-110
Angular grid pruning method      GridPruning ... 3 (G Style)
Weight generation scheme         WeightScheme... Becke
Basis function cutoff            BFCut       ...    1.0000e-11
Integration weight cutoff        WCut        ...    1.0000e-14
Grids for H and He will be reduced by one unit

# of grid points (after initial pruning)     ... 107242 (   0.0 sec)
# of grid points (after weights+screening)   ...  95617 (   0.8 sec)
nearest neighbour list constructed           ...    0.0 sec
Grid point re-assignment to atoms done       ...    0.0 sec
Grid point division into batches done        ...    0.1 sec
Reduced shell lists constructed in    0.3 sec

Total number of grid points                  ...    95617
Total number of batches                      ...     1545
Average number of points per batch           ...       61
Average number of grid points per atom       ...     1074
Average number of shells per batch           ...    97.32 (21.44%)
Average number of basis functions per batch  ...   205.84 (20.67%)
Average number of large shells per batch     ...    62.07 (63.77%)
Average number of large basis fcns per batch ...   134.17 (65.18%)
Maximum spatial batch extension              ...  14.43, 18.44, 17.36 au
Average spatial batch extension              ...   0.54,  0.61,  0.40 au

Overlap Fitting                  UseSFitting ... on
Constructing numerical overlap ... done (      0.1 sec)
Inverting numerical overlap    ... done (      0.0 sec)
Obtaining analytic overlap     ... done (      0.0 sec)
Final contraction and storage  ... done (      0.1 sec)

Time for X-Grid setup             =    2.791 sec
--------------
SCF ITERATIONS
--------------
ITER       Energy         Delta-E        Max-DP      RMS-DP      [F,P]     Damp
               ***  Starting incremental Fock matrix formation  ***
  0  -4313.6685006514   0.000000000000 0.07594436  0.00107814  0.2395530 0.7000
  1  -4314.3334004621  -0.664899810718 0.04944188  0.00078054  0.1074075 0.7000
                               ***Turning on DIIS***
  2  -4314.6296284060  -0.296227943915 0.11189094  0.00147263  0.0485957 0.0000
  3  -4315.0259953333  -0.396366927313 0.05356311  0.00064672  0.0771879 0.0000
  4  -4315.1599331667  -0.133937833394 0.02105698  0.00028017  0.0237244 0.0000
  5  -4315.1778633100  -0.017930143331 0.01043085  0.00014249  0.0104447 0.0000
  6  -4315.1840863909  -0.006223080815 0.00488854  0.00009350  0.0042661 0.0000
  7  -4315.1874963679  -0.003409977008 0.00416000  0.00007704  0.0028688 0.0000
  8  -4315.1898402491  -0.002343881279 0.00441478  0.00007354  0.0021043 0.0000
  9  -4315.1916797843  -0.001839535139 0.00329628  0.00005837  0.0016377 0.0000
 10  -4315.1928399613  -0.001160176997 0.00291801  0.00005160  0.0019244 0.0000
 11  -4315.1936196617  -0.000779700443 0.00222901  0.00003868  0.0014895 0.0000
 12  -4315.1940717778  -0.000452116048 0.00476101  0.00009012  0.0007412 0.0000
               *** Restarting incremental Fock matrix formation ***
                                   *** Resetting DIIS ***
                      *** Initiating the SOSCF procedure ***
                           *** Shutting down DIIS ***
                      *** Re-Reading the Fockian *** 
                      *** Removing any level shift *** 
ITER      Energy       Delta-E        Grad      Rot      Max-DP    RMS-DP
 13  -4315.19459247  -0.0005206965  0.000823  0.000823  0.002077  0.000024
               *** Restarting incremental Fock matrix formation ***
 14  -4315.19462461  -0.0000321337  0.000846  0.008219  0.003595  0.000030
 15  -4315.19457144   0.0000531632  0.001629  0.002328  0.002395  0.000017
 16  -4315.19468911  -0.0001176678  0.000277  0.003260  0.001282  0.000010
 17  -4315.19469879  -0.0000096737  0.000326  0.006681  0.000987  0.000015
 18  -4315.19471041  -0.0000116194  0.000145  0.003031  0.000548  0.000007
 19  -4315.19471190  -0.0000014914  0.000104  0.000365  0.000177  0.000002
 20  -4315.19471265  -0.0000007535  0.000037  0.000505  0.000093  0.000001
 21  -4315.19471270  -0.0000000456  0.000024  0.000076  0.000057  0.000001
 22  -4315.19471279  -0.0000000892  0.000009  0.000122  0.000029  0.000000
 23  -4315.19471279  -0.0000000057  0.000007  0.000026  0.000016  0.000000
 24  -4315.19471277   0.0000000209  0.000003  0.000036  0.000009  0.000000
                  ***Gradient check signals convergence***
              ***Rediagonalizing the Fockian in SOSCF/NRSCF***

               *****************************************************
               *                     SUCCESS                       *
               *           SCF CONVERGED AFTER  25 CYCLES          *
               *****************************************************

Setting up the final grid:

General Integration Accuracy     IntAcc      ...  5.010
Radial Grid Type                 RadialGrid  ... Gauss-Chebyshev
Angular Grid (max. acc.)         AngularGrid ... Lebedev-434
Angular grid pruning method      GridPruning ... 3 (G Style)
Weight generation scheme         WeightScheme... Becke
Basis function cutoff            BFCut       ...    1.0000e-11
Integration weight cutoff        WCut        ...    1.0000e-14
Grids for H and He will be reduced by one unit

# of grid points (after initial pruning)     ... 837440 (   0.0 sec)
# of grid points (after weights+screening)   ... 724414 (   5.8 sec)
nearest neighbour list constructed           ...    0.0 sec
Grid point re-assignment to atoms done       ...    0.1 sec
Grid point division into batches done        ...    4.0 sec
Reduced shell lists constructed in    5.4 sec

Total number of grid points                  ...   724414
Total number of batches                      ...    11367
Average number of points per batch           ...       63
Average number of grid points per atom       ...     8139
Average number of shells per batch           ...    86.20 (18.99%)
Average number of basis functions per batch  ...   180.89 (18.16%)
Average number of large shells per batch     ...    55.08 (63.90%)
Average number of large basis fcns per batch ...   117.71 (65.07%)
Maximum spatial batch extension              ...  15.91, 20.00, 14.07 au
Average spatial batch extension              ...   0.25,  0.26,  0.23 au

Final grid set up in   11.8 sec
Final integration                            ... done (   2.0 sec)
Change in XC energy                          ...    -0.000044228
Integrated number of electrons               ...   447.999851654
Previous integrated no of electrons          ...   448.000287025
Old exchange energy                            =   -118.134537560 Eh
New exchange energy                            =   -118.133672978 Eh
Exchange energy change after final integration =      0.000864582 Eh
Total energy after final integration           =  -4315.193892407 Eh
Final COS-X integration done in                =    36.540 sec

----------------
TOTAL SCF ENERGY
----------------

Total Energy       :        -4315.19389241 Eh         -117422.39545 eV

Components:
Nuclear Repulsion  :         8289.45616965 Eh          225567.57001 eV
Electronic Energy  :       -12604.65006206 Eh         -342989.96546 eV
One Electron Energy:       -22418.90503431 Eh         -610049.42030 eV
Two Electron Energy:         9814.25497225 Eh          267059.45484 eV

Virial components:
Potential Energy   :        -8604.40695914 Eh         -234137.81669 eV
Kinetic Energy     :         4289.21306674 Eh          116715.42124 eV
Virial Ratio       :            2.00605725


DFT components:
N(Alpha)           :      223.999925826858 electrons
N(Beta)            :      223.999925826858 electrons
N(Total)           :      447.999851653715 electrons
E(XC)              :     -335.329265008164 Eh       
DFET-embed. en.    :        0.000000000000 Eh       

---------------
SCF CONVERGENCE
---------------

  Last Energy change         ...    9.8726e-09  Tolerance :   1.0000e-08
  Last MAX-Density change    ...    6.6613e-15  Tolerance :   1.0000e-07
  Last RMS-Density change    ...    3.6737e-17  Tolerance :   5.0000e-09
  Last Orbital Gradient      ...    2.4695e-06  Tolerance :   1.0000e-05
  Last Orbital Rotation      ...    6.1531e-06  Tolerance :   1.0000e-05

             **** THE GBW FILE WAS UPDATED (xtbopt.gbw) ****
             **** DENSITY FILE WAS UPDATED (xtbopt.scfp) ****
             **** ENERGY FILE WAS UPDATED (xtbopt.en.tmp) ****
             **** THE GBW FILE WAS UPDATED (xtbopt.gbw) ****
             **** DENSITY FILE WAS UPDATED (xtbopt.scfp) ****
----------------
ORBITAL ENERGIES
----------------

  NO   OCC          E(Eh)            E(eV) 
   0   2.0000     -88.973504     -2421.0921 
   1   2.0000     -88.971530     -2421.0384 
   2   2.0000     -88.967086     -2420.9175 
   3   2.0000     -88.941062     -2420.2093 
   4   2.0000     -88.937602     -2420.1152 
   5   2.0000     -19.284741      -524.7645 
   6   2.0000     -19.250812      -523.8412 
   7   2.0000     -19.217943      -522.9468 
   8   2.0000     -19.217043      -522.9223 
   9   2.0000     -19.193213      -522.2739 
  10   2.0000     -14.629877      -398.0992 
  11   2.0000     -14.476191      -393.9172 
  12   2.0000     -14.462598      -393.5473 
  13   2.0000     -14.458246      -393.4289 
  14   2.0000     -10.393544      -282.8227 
  15   2.0000     -10.361334      -281.9462 
  16   2.0000     -10.356818      -281.8233 
  17   2.0000     -10.353366      -281.7294 
  18   2.0000     -10.330318      -281.1022 
  19   2.0000     -10.329137      -281.0701 
  20   2.0000     -10.324097      -280.9330 
  21   2.0000     -10.323628      -280.9202 
  22   2.0000     -10.320124      -280.8248 
  23   2.0000     -10.303118      -280.3621 
  24   2.0000     -10.300444      -280.2893 
  25   2.0000     -10.300360      -280.2870 
  26   2.0000     -10.297381      -280.2060 
  27   2.0000     -10.296304      -280.1767 
  28   2.0000     -10.296187      -280.1735 
  29   2.0000     -10.296081      -280.1706 
  30   2.0000     -10.294895      -280.1383 
  31   2.0000     -10.293744      -280.1070 
  32   2.0000     -10.287590      -279.9396 
  33   2.0000     -10.287149      -279.9276 
  34   2.0000     -10.285417      -279.8804 
  35   2.0000     -10.284596      -279.8581 
  36   2.0000     -10.282451      -279.7997 
  37   2.0000     -10.279655      -279.7236 
  38   2.0000     -10.279163      -279.7102 
  39   2.0000     -10.278693      -279.6974 
  40   2.0000     -10.278108      -279.6815 
  41   2.0000     -10.277278      -279.6590 
  42   2.0000     -10.277198      -279.6568 
  43   2.0000     -10.276995      -279.6512 
  44   2.0000     -10.276757      -279.6448 
  45   2.0000     -10.275453      -279.6093 
  46   2.0000     -10.272693      -279.5342 
  47   2.0000     -10.271628      -279.5052 
  48   2.0000     -10.269298      -279.4418 
  49   2.0000     -10.269127      -279.4372 
  50   2.0000     -10.266695      -279.3710 
  51   2.0000     -10.266313      -279.3606 
  52   2.0000     -10.264904      -279.3222 
  53   2.0000     -10.263915      -279.2953 
  54   2.0000     -10.261995      -279.2431 
  55   2.0000     -10.261397      -279.2268 
  56   2.0000     -10.260601      -279.2051 
  57   2.0000     -10.260284      -279.1965 
  58   2.0000     -10.255530      -279.0671 
  59   2.0000      -8.068539      -219.5561 
  60   2.0000      -8.066770      -219.5080 
  61   2.0000      -8.062462      -219.3907 
  62   2.0000      -8.036678      -218.6891 
  63   2.0000      -8.033426      -218.6006 
  64   2.0000      -6.038219      -164.3083 
  65   2.0000      -6.036153      -164.2521 
  66   2.0000      -6.033841      -164.1891 
  67   2.0000      -6.031942      -164.1375 
  68   2.0000      -6.031336      -164.1210 
  69   2.0000      -6.030000      -164.0846 
  70   2.0000      -6.029424      -164.0690 
  71   2.0000      -6.027734      -164.0230 
  72   2.0000      -6.024493      -163.9348 
  73   2.0000      -6.006426      -163.4432 
  74   2.0000      -6.003166      -163.3544 
  75   2.0000      -6.002427      -163.3343 
  76   2.0000      -5.999138      -163.2448 
  77   2.0000      -5.997736      -163.2067 
  78   2.0000      -5.994420      -163.1165 
  79   2.0000      -1.296593       -35.2821 
  80   2.0000      -1.177867       -32.0514 
  81   2.0000      -1.174710       -31.9655 
  82   2.0000      -1.115020       -30.3412 
  83   2.0000      -1.087874       -29.6026 
  84   2.0000      -1.080659       -29.4062 
  85   2.0000      -1.075852       -29.2754 
  86   2.0000      -1.046485       -28.4763 
  87   2.0000      -0.999663       -27.2022 
  88   2.0000      -0.987429       -26.8693 
  89   2.0000      -0.982323       -26.7304 
  90   2.0000      -0.979926       -26.6652 
  91   2.0000      -0.977603       -26.6019 
  92   2.0000      -0.965044       -26.2602 
  93   2.0000      -0.955107       -25.9898 
  94   2.0000      -0.933166       -25.3927 
  95   2.0000      -0.902495       -24.5581 
  96   2.0000      -0.899297       -24.4711 
  97   2.0000      -0.893047       -24.3010 
  98   2.0000      -0.877795       -23.8860 
  99   2.0000      -0.869012       -23.6470 
 100   2.0000      -0.862033       -23.4571 
 101   2.0000      -0.859570       -23.3901 
 102   2.0000      -0.852144       -23.1880 
 103   2.0000      -0.844945       -22.9921 
 104   2.0000      -0.838253       -22.8100 
 105   2.0000      -0.835693       -22.7404 
 106   2.0000      -0.831666       -22.6308 
 107   2.0000      -0.815966       -22.2036 
 108   2.0000      -0.814656       -22.1679 
 109   2.0000      -0.811949       -22.0943 
 110   2.0000      -0.807282       -21.9673 
 111   2.0000      -0.792790       -21.5729 
 112   2.0000      -0.784226       -21.3399 
 113   2.0000      -0.759867       -20.6770 
 114   2.0000      -0.759130       -20.6570 
 115   2.0000      -0.747011       -20.3272 
 116   2.0000      -0.743578       -20.2338 
 117   2.0000      -0.735522       -20.0146 
 118   2.0000      -0.722949       -19.6724 
 119   2.0000      -0.713194       -19.4070 
 120   2.0000      -0.707167       -19.2430 
 121   2.0000      -0.701338       -19.0844 
 122   2.0000      -0.688351       -18.7310 
 123   2.0000      -0.683784       -18.6067 
 124   2.0000      -0.676340       -18.4042 
 125   2.0000      -0.669883       -18.2284 
 126   2.0000      -0.667108       -18.1529 
 127   2.0000      -0.665401       -18.1065 
 128   2.0000      -0.658176       -17.9099 
 129   2.0000      -0.646037       -17.5796 
 130   2.0000      -0.639827       -17.4106 
 131   2.0000      -0.637538       -17.3483 
 132   2.0000      -0.636338       -17.3156 
 133   2.0000      -0.621288       -16.9061 
 134   2.0000      -0.620782       -16.8923 
 135   2.0000      -0.617127       -16.7929 
 136   2.0000      -0.616387       -16.7727 
 137   2.0000      -0.611363       -16.6360 
 138   2.0000      -0.610893       -16.6233 
 139   2.0000      -0.609864       -16.5953 
 140   2.0000      -0.606126       -16.4935 
 141   2.0000      -0.594651       -16.1813 
 142   2.0000      -0.588367       -16.0103 
 143   2.0000      -0.586829       -15.9684 
 144   2.0000      -0.576173       -15.6785 
 145   2.0000      -0.574075       -15.6214 
 146   2.0000      -0.572226       -15.5711 
 147   2.0000      -0.568316       -15.4647 
 148   2.0000      -0.558637       -15.2013 
 149   2.0000      -0.555405       -15.1133 
 150   2.0000      -0.549158       -14.9433 
 151   2.0000      -0.547387       -14.8951 
 152   2.0000      -0.545965       -14.8565 
 153   2.0000      -0.540996       -14.7212 
 154   2.0000      -0.537682       -14.6311 
 155   2.0000      -0.534623       -14.5478 
 156   2.0000      -0.528663       -14.3857 
 157   2.0000      -0.527389       -14.3510 
 158   2.0000      -0.526477       -14.3262 
 159   2.0000      -0.523632       -14.2488 
 160   2.0000      -0.518437       -14.1074 
 161   2.0000      -0.516107       -14.0440 
 162   2.0000      -0.514410       -13.9978 
 163   2.0000      -0.508659       -13.8413 
 164   2.0000      -0.507285       -13.8039 
 165   2.0000      -0.500480       -13.6187 
 166   2.0000      -0.495568       -13.4851 
 167   2.0000      -0.492471       -13.4008 
 168   2.0000      -0.491888       -13.3849 
 169   2.0000      -0.490875       -13.3574 
 170   2.0000      -0.488061       -13.2808 
 171   2.0000      -0.487405       -13.2630 
 172   2.0000      -0.482799       -13.1376 
 173   2.0000      -0.479568       -13.0497 
 174   2.0000      -0.476252       -12.9595 
 175   2.0000      -0.475428       -12.9370 
 176   2.0000      -0.474233       -12.9045 
 177   2.0000      -0.466767       -12.7014 
 178   2.0000      -0.465131       -12.6568 
 179   2.0000      -0.463301       -12.6071 
 180   2.0000      -0.459287       -12.4978 
 181   2.0000      -0.457769       -12.4565 
 182   2.0000      -0.456465       -12.4210 
 183   2.0000      -0.455006       -12.3813 
 184   2.0000      -0.449537       -12.2325 
 185   2.0000      -0.446729       -12.1561 
 186   2.0000      -0.445283       -12.1168 
 187   2.0000      -0.442556       -12.0426 
 188   2.0000      -0.440525       -11.9873 
 189   2.0000      -0.439076       -11.9479 
 190   2.0000      -0.437862       -11.9148 
 191   2.0000      -0.433643       -11.8000 
 192   2.0000      -0.432345       -11.7647 
 193   2.0000      -0.421032       -11.4569 
 194   2.0000      -0.418988       -11.4012 
 195   2.0000      -0.415656       -11.3106 
 196   2.0000      -0.414669       -11.2837 
 197   2.0000      -0.402553       -10.9540 
 198   2.0000      -0.401709       -10.9310 
 199   2.0000      -0.400628       -10.9016 
 200   2.0000      -0.387148       -10.5348 
 201   2.0000      -0.386165       -10.5081 
 202   2.0000      -0.381830       -10.3901 
 203   2.0000      -0.373811       -10.1719 
 204   2.0000      -0.367245        -9.9932 
 205   2.0000      -0.362803        -9.8724 
 206   2.0000      -0.358385        -9.7522 
 207   2.0000      -0.356828        -9.7098 
 208   2.0000      -0.346870        -9.4388 
 209   2.0000      -0.343616        -9.3503 
 210   2.0000      -0.341759        -9.2997 
 211   2.0000      -0.334240        -9.0951 
 212   2.0000      -0.329012        -8.9529 
 213   2.0000      -0.325593        -8.8598 
 214   2.0000      -0.320060        -8.7093 
 215   2.0000      -0.316759        -8.6195 
 216   2.0000      -0.302131        -8.2214 
 217   2.0000      -0.300615        -8.1802 
 218   2.0000      -0.273112        -7.4318 
 219   2.0000      -0.264945        -7.2095 
 220   2.0000      -0.263681        -7.1751 
 221   2.0000      -0.241702        -6.5771 
 222   2.0000      -0.228159        -6.2085 
 223   2.0000      -0.197479        -5.3737 
 224   0.0000      -0.094592        -2.5740 
 225   0.0000      -0.062590        -1.7031 
 226   0.0000      -0.049859        -1.3567 
 227   0.0000      -0.026511        -0.7214 
 228   0.0000      -0.008902        -0.2422 
 229   0.0000       0.002418         0.0658 
 230   0.0000       0.018021         0.4904 
 231   0.0000       0.030624         0.8333 
 232   0.0000       0.041236         1.1221 
 233   0.0000       0.045903         1.2491 
 234   0.0000       0.050926         1.3858 
 235   0.0000       0.055869         1.5203 
 236   0.0000       0.059213         1.6113 
 237   0.0000       0.060135         1.6363 
 238   0.0000       0.064358         1.7513 
 239   0.0000       0.073421         1.9979 
 240   0.0000       0.079432         2.1615 
 241   0.0000       0.085201         2.3184 
 242   0.0000       0.092008         2.5037 
 243   0.0000       0.094749         2.5782 
 244   0.0000       0.098490         2.6800 
 245   0.0000       0.100065         2.7229 
 246   0.0000       0.104439         2.8419 
 247   0.0000       0.108613         2.9555 
 248   0.0000       0.110810         3.0153 
 249   0.0000       0.112395         3.0584 
 250   0.0000       0.116302         3.1648 
 251   0.0000       0.117854         3.2070 
 252   0.0000       0.119153         3.2423 
 253   0.0000       0.120585         3.2813 
 254   0.0000       0.121964         3.3188 
 255   0.0000       0.124238         3.3807 
 256   0.0000       0.127597         3.4721 
 257   0.0000       0.130879         3.5614 
 258   0.0000       0.131828         3.5872 
 259   0.0000       0.135493         3.6870 
 260   0.0000       0.137491         3.7413 
 261   0.0000       0.139655         3.8002 
 262   0.0000       0.147191         4.0053 
 263   0.0000       0.148811         4.0494 
 264   0.0000       0.150472         4.0946 
 265   0.0000       0.157227         4.2784 
 266   0.0000       0.159945         4.3523 
 267   0.0000       0.163489         4.4488 
 268   0.0000       0.166725         4.5368 
 269   0.0000       0.167576         4.5600 
 270   0.0000       0.169987         4.6256 
 271   0.0000       0.175272         4.7694 
 272   0.0000       0.175383         4.7724 
 273   0.0000       0.177191         4.8216 
 274   0.0000       0.178349         4.8531 
 275   0.0000       0.190156         5.1744 
 276   0.0000       0.191225         5.2035 
 277   0.0000       0.195346         5.3156 
 278   0.0000       0.200331         5.4513 
 279   0.0000       0.204997         5.5782 
 280   0.0000       0.209575         5.7028 
 281   0.0000       0.219501         5.9729 
 282   0.0000       0.223559         6.0834 
 283   0.0000       0.226768         6.1707 
 284   0.0000       0.232378         6.3233 
 285   0.0000       0.235863         6.4181 
 286   0.0000       0.236158         6.4262 
 287   0.0000       0.238669         6.4945 
 288   0.0000       0.247118         6.7244 
 289   0.0000       0.249789         6.7971 
 290   0.0000       0.259057         7.0493 
 291   0.0000       0.265614         7.2277 
 292   0.0000       0.266071         7.2402 
 293   0.0000       0.273115         7.4318 
 294   0.0000       0.274239         7.4624 
 295   0.0000       0.279277         7.5995 
 296   0.0000       0.282988         7.7005 
 297   0.0000       0.291259         7.9256 
 298   0.0000       0.294123         8.0035 
 299   0.0000       0.295767         8.0482 
 300   0.0000       0.298190         8.1142 
 301   0.0000       0.302612         8.2345 
 302   0.0000       0.304369         8.2823 
 303   0.0000       0.308004         8.3812 
 304   0.0000       0.311878         8.4866 
 305   0.0000       0.315308         8.5800 
 306   0.0000       0.319817         8.7027 
 307   0.0000       0.321376         8.7451 
 308   0.0000       0.323552         8.8043 
 309   0.0000       0.330712         8.9991 
 310   0.0000       0.331700         9.0260 
 311   0.0000       0.334967         9.1149 
 312   0.0000       0.340003         9.2519 
 313   0.0000       0.342106         9.3092 
 314   0.0000       0.348205         9.4751 
 315   0.0000       0.349718         9.5163 
 316   0.0000       0.354966         9.6591 
 317   0.0000       0.357242         9.7211 
 318   0.0000       0.360204         9.8016 
 319   0.0000       0.363110         9.8807 
 320   0.0000       0.371012        10.0957 
 321   0.0000       0.372975        10.1492 
 322   0.0000       0.375852        10.2275 
 323   0.0000       0.378565        10.3013 
 324   0.0000       0.378996        10.3130 
 325   0.0000       0.383650        10.4396 
 326   0.0000       0.386814        10.5258 
 327   0.0000       0.388834        10.5807 
 328   0.0000       0.390463        10.6250 
 329   0.0000       0.392301        10.6750 
 330   0.0000       0.394172        10.7260 
 331   0.0000       0.397149        10.8070 
 332   0.0000       0.399221        10.8633 
 333   0.0000       0.404816        11.0156 
 334   0.0000       0.405704        11.0398 
 335   0.0000       0.409143        11.1333 
 336   0.0000       0.413406        11.2493 
 337   0.0000       0.413661        11.2563 
 338   0.0000       0.418992        11.4014 
 339   0.0000       0.421565        11.4714 
 340   0.0000       0.422460        11.4957 
 341   0.0000       0.427776        11.6404 
 342   0.0000       0.431177        11.7329 
 343   0.0000       0.433159        11.7868 
 344   0.0000       0.437303        11.8996 
 345   0.0000       0.439942        11.9714 
 346   0.0000       0.441289        12.0081 
 347   0.0000       0.447256        12.1705 
 348   0.0000       0.448106        12.1936 
[...]
  23      4.32     287.3    71 ->  78      gap,J,K:    5.606     1.361     0.035
  24      4.33     286.3    76 ->  83      gap,J,K:    6.274     2.230     0.143

average / max PT2 energy lowering (eV):       0.031       0.092

CSF included by PT:                   274 
total number of CSF included:         313 
 
sTD-DFT procedure...
setting up A+B and A-B matrices...  done
estimated time (min):    0.001
calculating (A-B)^0.5 ... done
calculating (A+B)*(A-B)^0.5 ... done
calculating (A-B)^0.5 *(A+B)*(A-B)^0.5 ... done
diagonalizing ...using LAPACKE_ssyevr ...done

   43 roots found, lowest/highest eigenvalue :     0.751     4.974

excitation energies, transition moments and amplitudes

molecular weight:  867.058
state   eV        nm        fL         fV        Rl        RV
   0   0.751    1650.4   0.026844   0.108885  -16.513464  -7.690207     0.78 (  77->  78)    0.17 (  75->  78)    0.01 (  75->  79)
   1   1.724     719.3   0.210805   0.336691  19.445893  47.062231     0.64 (  75->  78)    0.21 (  77->  78)    0.05 (  77->  79)
   2   1.914     647.9   0.648077   0.956094  119.036222  114.144385     0.90 (  77->  79)    0.06 (  75->  78)    0.01 (  72->  78)
   3   2.448     506.5   0.006451   0.007391  -3.254712  -0.395515     0.97 (  76->  78)    0.01 (  75->  78)    0.00 (  72->  78)
   4   2.659     466.3   0.628505   0.730170  -27.101741  -17.486721     0.92 (  76->  80)    0.03 (  77->  80)    0.02 (  76->  81)
   5   2.785     445.2   0.126654   0.158296  -10.335285  -76.214848     0.67 (  73->  78)    0.12 (  74->  78)    0.07 (  75->  79)
   6   2.895     428.3   0.169798   0.179405  -3.655256  17.293309     0.29 (  72->  78)    0.21 (  74->  78)    0.20 (  77->  82)
   7   2.927     423.5   0.019674   0.021490  -8.247160  -8.753961     0.95 (  77->  80)    0.03 (  76->  80)    0.01 (  77->  81)
   8   3.076     403.1   0.100448   0.108589  41.404027   6.475777     0.42 (  75->  79)    0.17 (  72->  78)    0.13 (  74->  78)
   9   3.244     382.2   0.451089   0.480690  75.951048  67.128500     0.52 (  76->  81)    0.18 (  76->  79)    0.09 (  74->  78)
  10   3.254     381.0   0.103327   0.104381  -37.735334  -22.900832     0.36 (  76->  81)    0.30 (  76->  79)    0.13 (  74->  78)
  11   3.381     366.7   0.128696   0.131548  22.478203  -2.052022     0.42 (  76->  79)    0.23 (  74->  78)    0.12 (  72->  78)
  12   3.396     365.1   1.295834   1.335718  135.676891  92.363754     0.43 (  77->  82)    0.15 (  72->  78)    0.14 (  75->  79)
  13   3.498     354.4   0.140170   0.142274  -30.424003  -37.262182     0.72 (  77->  81)    0.08 (  77->  83)    0.04 (  77->  82)
  14   3.588     345.6   0.015449   0.016364  -5.723928  -1.062101     0.60 (  73->  79)    0.22 (  74->  79)    0.04 (  73->  82)
  15   3.653     339.4   0.026075   0.020481  -8.452217   2.887401     0.26 (  70->  78)    0.21 (  77->  83)    0.13 (  77->  84)
  16   3.764     329.4   0.047946   0.039305  10.319884   7.414334     0.59 (  74->  80)    0.18 (  73->  80)    0.10 (  75->  80)
  17   3.848     322.2   0.454686   0.433795  -178.961912  -97.469417     0.47 (  77->  83)    0.14 (  70->  78)    0.06 (  77->  85)
  18   3.904     317.5   0.060605   0.059602  11.345668  21.897780     0.31 (  72->  79)    0.17 (  70->  78)    0.15 (  74->  79)
  19   3.961     313.0   0.005628   0.007564   8.055377   5.834045     0.68 (  69->  78)    0.14 (  69->  79)    0.04 (  70->  78)
  20   3.990     310.7   0.053058   0.050481  165.642701  142.423353     0.61 (  76->  83)    0.12 (  76->  82)    0.06 (  77->  83)
  21   4.028     307.8   0.000454   0.000646   1.217169   2.053119     0.84 (  77->  88)    0.06 (  77->  87)    0.02 (  77->  92)
  22   4.085     303.5   0.005868   0.005490  -1.849307  -1.057986     0.78 (  75->  80)    0.05 (  74->  80)    0.04 (  72->  80)
  23   4.132     300.0   0.042235   0.043062  -12.143911  -18.315341     0.42 (  74->  79)    0.14 (  77->  84)    0.11 (  72->  79)
  24   4.207     294.7   0.061372   0.060329  -53.200226  -49.848741     0.27 (  77->  84)    0.23 (  72->  79)    0.08 (  70->  78)
  25   4.330     286.3   0.000513   0.000692  -7.987627  -8.854738     0.39 (  74->  81)    0.11 (  73->  81)    0.10 (  71->  78)
  26   4.331     286.3   0.001193   0.001045   4.261497   3.862933     0.52 (  71->  78)    0.12 (  74->  81)    0.11 (  70->  78)
  27   4.363     284.2   0.013520   0.013789  11.266123   8.290696     0.20 (  69->  79)    0.19 (  67->  78)    0.13 (  71->  78)
  28   4.435     279.6   0.022119   0.019450  -13.128729  -3.978283     0.20 (  65->  78)    0.15 (  77->  85)    0.13 (  70->  79)
  29   4.477     276.9   0.002286   0.001472  -3.693489   1.552499     0.82 (  76->  86)    0.04 (  76->  85)    0.03 (  76->  87)
  30   4.523     274.1   0.092040   0.083826  34.184361  22.349694     0.20 (  75->  82)    0.19 (  77->  85)    0.19 (  65->  78)
  31   4.547     272.6   0.027419   0.026551  113.824170  80.721101     0.42 (  75->  82)    0.12 (  65->  78)    0.10 (  77->  85)
  32   4.642     267.1   0.134248   0.120904  -44.358305  -53.689368     0.20 (  75->  81)    0.13 (  76->  82)    0.09 (  75->  82)
  33   4.664     265.9   0.011628   0.009677  13.906245  13.621755     0.25 (  75->  81)    0.18 (  72->  80)    0.09 (  74->  80)
  34   4.677     265.1   0.095623   0.086523  -82.959875  -78.932718     0.18 (  69->  79)    0.12 (  67->  78)    0.12 (  76->  82)
  35   4.697     263.9   0.000946   0.000846  -0.097687  -0.478833     0.54 (  73->  80)    0.18 (  74->  80)    0.14 (  75->  81)
  36   4.716     262.9   0.041740   0.035371   0.296973   3.683830     0.33 (  73->  82)    0.10 (  74->  82)    0.06 (  73->  84)
  37   4.749     261.1   0.239492   0.202975  -31.793229  -34.783654     0.44 (  71->  80)    0.19 (  72->  80)    0.11 (  75->  81)
  38   4.814     257.6   0.130372   0.111289  14.517945  18.609250     0.31 (  72->  80)    0.30 (  71->  80)    0.12 (  70->  80)
  39   4.837     256.3   0.023230   0.017741  -24.294680  -26.032250     0.32 (  70->  79)    0.11 (  77->  85)    0.07 (  69->  79)
  40   4.878     254.1   0.017131   0.014057  -6.303594  -4.081242     0.79 (  68->  78)    0.03 (  71->  78)    0.02 (  67->  78)
  41   4.904     252.8   0.144942   0.123083  -43.247491  -27.306780     0.16 (  76->  82)    0.14 (  74->  83)    0.13 (  75->  83)
  42   4.974     249.3   0.017778   0.014809  38.959741  34.361227     0.29 (  59->  78)    0.07 (  65->  79)    0.06 (  72->  82)

-----------------------------------------------------------------------------
         ABSORPTION SPECTRUM VIA TRANSITION ELECTRIC DIPOLE MOMENTS
-----------------------------------------------------------------------------
State   Energy  Wavelength   fosc         T2         TX        TY        TZ  
        (cm-1)    (nm)                  (au**2)     (au)      (au)      (au) 
-----------------------------------------------------------------------------
   0    6059.3   1650.4   0.026844062   1.45849   0.92054   0.00418  -0.78172
   1   13903.3    719.3   0.210805132   4.99158  -1.98584   0.35928   0.95861
   2   15433.5    647.9   0.648076624  13.82409   3.43595  -0.91008  -1.09091
   3   19745.1    506.5   0.006450693   0.10755  -0.10053  -0.10416   0.29428
   4   21446.4    466.3   0.628504965   9.64784  -1.95865   1.50406   1.88397
   5   22463.7    445.2   0.126653703   1.85615   0.60597   0.22391  -1.19951
   6   23348.2    428.3   0.169797586   2.39416   0.12503  -0.76452   1.33942
   7   23610.9    423.5   0.019674154   0.27432  -0.31722   0.19803   0.36671
   8   24806.6    403.1   0.100447910   1.33306  -0.08958  -0.49615   1.03868
   9   26165.4    382.2   0.451089116   5.67558   0.34703  -1.13801   2.06400
  10   26243.5    381.0   0.103327282   1.29619   1.04035  -0.13996  -0.44076
  11   27270.2    366.7   0.128696298   1.55365   0.18083   0.48915  -1.13211
  12   27390.1    365.1   1.295833958  15.57512  -0.58646  -1.57412   3.57118
  13   28217.0    354.4   0.140169855   1.63538   0.20142   0.50279  -1.15845
  14   28937.3    345.6   0.015449232   0.17576  -0.12509  -0.13261   0.37753
  15   29467.2    339.4   0.026075248   0.29132  -0.26974   0.29072  -0.36611
  16   30361.0    329.4   0.047946008   0.51989  -0.48852   0.36939   0.38051
  17   31035.6    322.2   0.454685928   4.82310   0.85667  -1.12449   1.68070
  18   31491.6    317.5   0.060604985   0.63356   0.46933   0.17166  -0.61953
  19   31944.3    313.0   0.005627938   0.05800  -0.23453   0.05146   0.01865
  20   32182.6    310.7   0.053058414   0.54276   0.17569   0.11001   0.70696
  21   32484.6    307.8   0.000454216   0.00460   0.06630  -0.00691  -0.01265
  22   32947.0    303.5   0.005868222   0.05864   0.15166  -0.06121   0.17857
  23   33328.5    300.0   0.042234785   0.41719  -0.34336   0.33614  -0.43162
  24   33933.6    294.7   0.061371820   0.59541  -0.48750   0.35696  -0.47992
  25   34923.6    286.3   0.000512777   0.00483  -0.00662   0.06891   0.00646
  26   34930.3    286.3   0.001192664   0.01124  -0.09881   0.00853   0.03749
  27   35190.8    284.2   0.013520287   0.12648   0.08762   0.11990  -0.32316
  28   35768.5    279.6   0.022118763   0.20358  -0.26051  -0.05439   0.36435
  29   36113.4    276.9   0.002285947   0.02084  -0.13525   0.03645   0.03492
  30   36483.6    274.1   0.092039645   0.83052   0.17369  -0.48332   0.75283
  31   36677.3    272.6   0.027418590   0.24611  -0.14823   0.37937  -0.28322
  32   37443.3    267.1   0.134247964   1.18034   0.18662  -0.37969   1.00067
  33   37614.9    265.9   0.011627975   0.10177  -0.19191   0.17305   0.18706
  34   37725.3    265.1   0.095623021   0.83446  -0.36581  -0.10700   0.83018
  35   37886.4    263.9   0.000945819   0.00822   0.08721  -0.02127  -0.01270
  36   38036.4    262.9   0.041739517   0.36126  -0.53241   0.24788  -0.12791
  37   38305.9    261.1   0.239492318   2.05827   1.16070  -0.80959   0.23580
  38   38824.5    257.6   0.130372414   1.10549   0.71646  -0.63625   0.43286
  39   39010.4    256.3   0.023230399   0.19604  -0.18962  -0.00635   0.40006
  40   39347.4    254.1   0.017130883   0.14333   0.33871  -0.13491  -0.10201
  41   39555.3    252.8   0.144942292   1.20633  -0.94889   0.43583   0.34057
  42   40120.0    249.3   0.017778142   0.14588   0.33570   0.02235  -0.18080

-----------------------------------------------------------------------------
         ABSORPTION SPECTRUM VIA TRANSITION VELOCITY DIPOLE MOMENTS
-----------------------------------------------------------------------------
State   Energy  Wavelength   fosc         P2         PX        PY        PZ  
        (cm-1)    (nm)                  (au**2)     (au)      (au)      (au) 
-----------------------------------------------------------------------------
   0    6059.3   1650.4   0.108884572   0.00451   0.05270  -0.00181  -0.04157
   1   13903.3    719.3   0.336690623   0.03199  -0.15977   0.03191   0.07381
   2   15433.5    647.9   0.956094087   0.10085   0.29278  -0.07874  -0.09448
   3   19745.1    506.5   0.007391027   0.00100  -0.01171  -0.00944   0.02777
   4   21446.4    466.3   0.730169913   0.10702  -0.21110   0.16025   0.19178
   5   22463.7    445.2   0.158295737   0.02430   0.05706   0.03330  -0.14120
   6   23348.2    428.3   0.179404987   0.02863   0.01020  -0.08294   0.14712
   7   23610.9    423.5   0.021489960   0.00347  -0.03594   0.02219   0.04104
   8   24806.6    403.1   0.108589349   0.01841  -0.00131  -0.06207   0.12065
   9   26165.4    382.2   0.480689752   0.08596   0.04544  -0.14255   0.25214
  10   26243.5    381.0   0.104381253   0.01872   0.12637  -0.01805  -0.04925
  11   27270.2    366.7   0.131547625   0.02452   0.01689   0.06378  -0.14200
  12   27390.1    365.1   1.335717663   0.25004  -0.07052  -0.20173   0.45208
  13   28217.0    354.4   0.142274273   0.02744   0.02402   0.06690  -0.14961
  14   28937.3    345.6   0.016364316   0.00324  -0.01990  -0.01673   0.05060
  15   29467.2    339.4   0.020481460   0.00412  -0.02688   0.03445  -0.04707
  16   30361.0    329.4   0.039304703   0.00816  -0.05909   0.04529   0.05112
  17   31035.6    322.2   0.433795492   0.09201   0.10924  -0.15605   0.23607
  18   31491.6    317.5   0.059602071   0.01283   0.06981   0.02217  -0.08639
  19   31944.3    313.0   0.007564347   0.00165  -0.03927   0.00736   0.00740
  20   32182.6    310.7   0.050481180   0.01110   0.02732   0.00722   0.10151
  21   32484.6    307.8   0.000646410   0.00014   0.01179   0.00131   0.00164
  22   32947.0    303.5   0.005490120   0.00124   0.02060  -0.00957   0.02684
  23   33328.5    300.0   0.043061686   0.00981  -0.05199   0.04956  -0.06819
  24   33933.6    294.7   0.060329304   0.01399  -0.07380   0.05477  -0.07447
  25   34923.6    286.3   0.000691718   0.00017  -0.00216   0.01244   0.00239
  26   34930.3    286.3   0.001045187   0.00025  -0.01432   0.00106   0.00659
  27   35190.8    284.2   0.013788595   0.00332   0.01101   0.02329  -0.05150
  28   35768.5    279.6   0.019450258   0.00475  -0.04505  -0.00701   0.05173
  29   36113.4    276.9   0.001472442   0.00036  -0.01581   0.00781   0.00724
  30   36483.6    274.1   0.083826388   0.02090   0.03113  -0.07781   0.11780
  31   36677.3    272.6   0.026550967   0.00666  -0.02760   0.05909  -0.04901
  32   37443.3    267.1   0.120904148   0.03094   0.03529  -0.06421   0.15991
  33   37614.9    265.9   0.009677207   0.00249  -0.02935   0.02724   0.02975
  34   37725.3    265.1   0.086522623   0.02231  -0.05950  -0.01842   0.13575
  35   37886.4    263.9   0.000845649   0.00022   0.01422  -0.00282  -0.00297
  36   38036.4    262.9   0.035370751   0.00919  -0.08418   0.03950  -0.02343
  37   38305.9    261.1   0.202974986   0.05314   0.18691  -0.12993   0.03636
  38   38824.5    257.6   0.111289397   0.02953   0.11625  -0.10414   0.07191
  39   39010.4    256.3   0.017741327   0.00473  -0.02707  -0.00078   0.06322
  40   39347.4    254.1   0.014056819   0.00378   0.05446  -0.02318  -0.01665
  41   39555.3    252.8   0.123083068   0.03327  -0.15298   0.07779   0.06182
  42   40120.0    249.3   0.014808521   0.00406   0.05520   0.00631  -0.03120

-------------------------------------------------------------------
                             CD SPECTRUM
-------------------------------------------------------------------
State   Energy Wavelength       R         MX        MY        MZ   
        (cm-1)   (nm)       (1e40*cgs)   (au)      (au)      (au)  
-------------------------------------------------------------------
   0    6059.3   1650.4    -16.51346  -0.33769   0.76947  -0.48316
   1   13903.3    719.3     19.44589   2.13901   1.97608   3.60448
   2   15433.5    647.9    119.03622  -2.03235  -0.85962  -5.22113
   3   19745.1    506.5     -3.25471   0.56528   0.27053   0.33578
   4   21446.4    466.3    -27.10174  -2.77308  -5.17482   1.30931
   5   22463.7    445.2    -10.33529  -2.65158  -1.42941  -1.64291
   6   23348.2    428.3     -3.65526   3.26998   1.95783   0.82384
   7   23610.9    423.5     -8.24716  -0.22111  -0.70306   0.28381
   8   24806.6    403.1     41.40403   2.32769   0.87213   0.44824
   9   26165.4    382.2     75.95105   5.44123   3.16451   0.67382
  10   26243.5    381.0    -37.73533  -0.31670   1.27552  -1.51575
  11   27270.2    366.7     22.47820  -2.72588  -1.12914  -0.83903
  12   27390.1    365.1    135.67689   8.78971   3.54973   2.84693
  13   28217.0    354.4    -30.42400  -2.69407  -0.86819  -0.95665
  14   28937.3    345.6     -5.72393   1.02137   0.51340   0.58308
  15   29467.2    339.4     -8.45222  -1.17078  -0.98410  -0.01677
  16   30361.0    329.4     10.31988  -0.58344  -1.23194   0.33183
  17   31035.6    322.2    -178.96191   4.93935   3.48021   0.26255
  18   31491.6    317.5     11.34567  -1.34620   0.41851  -0.82617
  19   31944.3    313.0      8.05538   0.10983  -0.31004   0.40445
  20   32182.6    310.7    165.64270  -0.94633  -1.66682  -0.49944
  21   32484.6    307.8      1.21717  -0.09671   0.03165  -0.11588
  22   32947.0    303.5     -1.84931   0.18892   0.24084  -0.03397
  23   33328.5    300.0    -12.14391  -2.05914  -2.33964  -0.30337
  24   33933.6    294.7    -53.20023  -2.25734  -2.97292  -0.38849
  25   34923.6    286.3     -7.98763   0.17361   0.50641   0.02181
  26   34930.3    286.3      4.26150   0.17105  -0.10822  -0.00678
  27   35190.8    284.2     11.26612  -0.96045  -0.20674  -0.18923
  28   35768.5    279.6    -13.12873   0.60477  -0.39915   0.52569
  29   36113.4    276.9     -3.69349  -0.33822  -0.75859  -0.06949
  30   36483.6    274.1     34.18436   3.40237   2.97881   0.93481
  31   36677.3    272.6    113.82417  -2.73804  -3.20015  -1.14862
  32   37443.3    267.1    -44.35830   2.62667   1.57849   0.29712
  33   37614.9    265.9     13.90624  -0.73520  -1.19617   0.03693
  34   37725.3    265.1    -82.95987   1.96485   0.67020   1.37609
  35   37886.4    263.9     -0.09769   0.00512   0.13252  -0.21954
  36   38036.4    262.9      0.29697  -0.74298  -1.25906   0.66237
  37   38305.9    261.1    -31.79323   3.39118   4.30741  -1.33189
  38   38824.5    257.6     14.51795   3.14167   3.19040  -0.65282
  39   39010.4    256.3    -24.29468   1.09235   0.82855   0.78853
  40   39347.4    254.1     -6.30359   0.29050   0.87639  -0.45662
  41   39555.3    252.8    -43.24749  -0.80168  -2.27535   1.21690
  42   40120.0    249.3     38.95974  -0.98159  -0.32797  -0.94897

sTD-DFT done

Total run time:        2.057 sec

           *** ORCA-CIS/TD-DFT FINISHED WITHOUT ERROR ***

-------------------------   --------------------
FINAL SINGLE POINT ENERGY     -4315.193892406660
-------------------------   --------------------


                            ***************************************
                            *     ORCA property calculations      *
                            ***************************************

                                    ---------------------
                                    Active property flags
                                    ---------------------
   (+) Dipole Moment


------------------------------------------------------------------------------
                       ORCA ELECTRIC PROPERTIES CALCULATION
------------------------------------------------------------------------------

Dipole Moment Calculation                       ... on
Quadrupole Moment Calculation                   ... off
Polarizability Calculation                      ... off
GBWName                                         ... xtbopt.gbw
Electron density file                           ... xtbopt.scfp
The origin for moment calculation is the CENTER OF MASS  = ( 5.306702, -9.846831 -19.569247)

-------------
DIPOLE MOMENT
-------------
                                X             Y             Z
Electronic contribution:    -35.34121      20.29474     -19.66822
Nuclear contribution   :     37.54986     -22.38585      22.24822
                        -----------------------------------------
Total Dipole Moment    :      2.20866      -2.09110       2.58000
                        -----------------------------------------
Magnitude (a.u.)       :      3.98839
Magnitude (Debye)      :     10.13769



--------------------
Rotational spectrum 
--------------------
 
Rotational constants in cm-1:     0.001157     0.000569     0.000395 
Rotational constants in MHz :    34.682706    17.068583    11.842904 

 Dipole components along the rotational axes: 
x,y,z [a.u.] :    -3.981126     0.075810     0.228405 
x,y,z [Debye]:   -10.119219     0.192693     0.580559 

 

Timings for individual modules:

Sum of individual times         ...      523.357 sec (=   8.723 min)
GTO integral calculation        ...        2.331 sec (=   0.039 min)   0.4 %
SCF iterations                  ...      518.301 sec (=   8.638 min)  99.0 %
CIS module                      ...        2.724 sec (=   0.045 min)   0.5 %
                             ****ORCA TERMINATED NORMALLY****
TOTAL RUN TIME: 0 days 0 hours 8 minutes 44 seconds 236 msec
