
                                 *****************
                                 * O   R   C   A *
                                 *****************

           --- An Ab Initio, DFT and Semiempirical electronic structure package ---

                  #######################################################
                  #                        -***-                        #
                  #          Department of theory and spectroscopy      #
                  #               Directorship: Frank Neese             #
                  #        Max Planck Institute fuer Kohlenforschung    #
                  #                Kaiser Wilhelm Platz 1               #
                  #                 D-45470 Muelheim/Ruhr               #
                  #                      Germany                        #
                  #                                                     #
                  #                  All rights reserved                #
                  #                        -***-                        #
                  #######################################################


                         Program Version 4.2.0 -  RELEASE  -


 With contributions from (in alphabetic order):
   Daniel Aravena         : Magnetic Suceptibility
   Michael Atanasov       : Ab Initio Ligand Field Theory (pilot matlab implementation)
   Alexander A. Auer      : GIAO ZORA, VPT2
   Ute Becker             : Parallelization
   Giovanni Bistoni       : ED, misc. LED, open-shell LED, HFLED
   Martin Brehm           : Molecular dynamics
   Dmytro Bykov           : SCF Hessian
   Vijay G. Chilkuri      : MRCI spin determinant printing, contributions to CSF-ICE
   Dipayan Datta          : RHF DLPNO-CCSD density
   Achintya Kumar Dutta   : EOM-CC, STEOM-CC
   Dmitry Ganyushin       : Spin-Orbit,Spin-Spin,Magnetic field MRCI
   Miquel Garcia          : C-PCM Hessian, Gaussian charge scheme
   Yang Guo               : DLPNO-NEVPT2, CIM, IAO-localization
   Andreas Hansen         : Spin unrestricted coupled pair/coupled cluster methods
   Benjamin Helmich-Paris : CASSCF linear response (MC-RPA)
   Lee Huntington         : MR-EOM, pCC
   Robert Izsak           : Overlap fitted RIJCOSX, COSX-SCS-MP3, EOM
   Christian Kollmar      : KDIIS, OOCD, Brueckner-CCSD(T), CCSD density
   Simone Kossmann        : Meta GGA functionals, TD-DFT gradient, OOMP2, MP2 Hessian
   Martin Krupicka        : AUTO-CI
   Lucas Lang             : DCDCAS
   Dagmar Lenk            : GEPOL surface, SMD
   Dimitrios Liakos       : Extrapolation schemes; Compound Job, initial MDCI parallelization
   Dimitrios Manganas     : Further ROCIS development; embedding schemes
   Dimitrios Pantazis     : SARC Basis sets
   Taras Petrenko         : DFT Hessian,TD-DFT gradient, ASA, ECA, R-Raman, ABS, FL, XAS/XES, NRVS
   Peter Pinski           : DLPNO-MP2, DLPNO-MP2 Gradient
   Christoph Reimann      : Effective Core Potentials
   Marius Retegan         : Local ZFS, SOC
   Christoph Riplinger    : Optimizer, TS searches, QM/MM, DLPNO-CCSD(T), (RO)-DLPNO pert. Triples
   Tobias Risthaus        : Range-separated hybrids, TD-DFT gradient, RPA, STAB
   Michael Roemelt        : Original ROCIS implementation
   Masaaki Saitow         : Open-shell DLPNO-CCSD energy and density
   Barbara Sandhoefer     : DKH picture change effects
   Avijit Sen             : IP-ROCIS
   Kantharuban Sivalingam : CASSCF convergence, NEVPT2, FIC-MRCI
   Bernardo de Souza      : ESD, SOC TD-DFT
   Georgi Stoychev        : AutoAux, RI-MP2 NMR
   Willem Van den Heuvel  : Paramagnetic NMR
   Boris Wezisla          : Elementary symmetry handling
   Frank Wennmohs         : Technical directorship


 We gratefully acknowledge several colleagues who have allowed us to
 interface, adapt or use parts of their codes:
   Stefan Grimme, W. Hujo, H. Kruse,             : VdW corrections, initial TS optimization,
                  C. Bannwarth                     DFT functionals, gCP, sTDA/sTD-DF
   Ed Valeev, F. Pavosevic, A. Kumar             : LibInt (2-el integral package), F12 methods
   Garnet Chan, S. Sharma, J. Yang, R. Olivares  : DMRG
   Ulf Ekstrom                                   : XCFun DFT Library
   Mihaly Kallay                                 : mrcc  (arbitrary order and MRCC methods)
   Andreas Klamt, Michael Diedenhofen            : otool_cosmo (COSMO solvation model)
   Jiri Pittner, Ondrej Demel                    : Mk-CCSD
   Frank Weinhold                                : gennbo (NPA and NBO analysis)
   Christopher J. Cramer and Donald G. Truhlar   : smd solvation model
   Lars Goerigk                                  : TD-DFT with DH, B97 family of functionals
   V. Asgeirsson, H. Jonsson                     : NEB implementation
   FAccTs GmbH                                   : IRC, NEB, NEB-TS, Multilevel, MM, QM/MM, CI optimization
   S Lehtola, MJT Oliveira, MAL Marques          : LibXC Library


 Your calculation uses the libint2 library for the computation of 2-el integrals
 For citations please refer to: http://libint.valeyev.net

 Your ORCA version has been built with support for libXC version: 4.2.3
 For citations please refer to: https://tddft.org/programs/libxc/

 This ORCA versions uses:
   CBLAS   interface :  Fast vector & matrix operations
   LAPACKE interface :  Fast linear algebra routines
   SCALAPACK package :  Parallel linear algebra routines


XCFun DFT library Copyright 2009-2010 Ulf Ekstrom and contributors.
See http://admol.org/xcfun for more information. This is free soft-
ware; see the source code for copying conditions. There is ABSOLUTELY
NO WARRANTY; not even for MERCHANTABILITY or FITNESS FOR A PARTICULAR
PURPOSE. For details see the documentation. Scientific users of this 
library should cite U. Ekstrom, L. Visscher, R. Bast, A. J. Thorvald-
sen and K. Ruud; J.Chem.Theor.Comp. 2010, DOI: 10.1021/ct100117s
XCFun Version 0.99 
----- Orbital basis set information -----
Your calculation utilizes the basis: def2-SVP
   F. Weigend and R. Ahlrichs, Phys. Chem. Chem. Phys. 7, 3297 (2005).

----- AuxJ basis set information -----
Your calculation utilizes the auxiliary basis: def2/J
   F. Weigend, Phys. Chem. Chem. Phys. 8, 1057 (2006).

================================================================================
                                        WARNINGS
                       Please study these warnings very carefully!
================================================================================

INFO   : Checking CIS options ...

WARNING: CIS/ROCIS methods need fully converged wavefunctions
  ===> : Setting SCFConvForced true
         You can overwrite this default with %scf ConvForced false 


INFO   : the flag for use of LIBINT has been found!

================================================================================
                                       INPUT FILE
================================================================================
NAME = xtbopt.inp
|  1> # ORCA input file
|  2> # SCF done       -233.186145539155          0.002613958780
|  3> ! CAM-B3LYP def2-SVP def2/J RIJCOSX Grid4 TightSCF
|  4> %maxcore 5000
|  5> %tddft
|  6>     Mode sTDDFT
|  7>     Ethresh 5.0
|  8>     maxcore 5000
|  9> end
| 10> 
| 11> %pal
| 12>   nprocs 6
| 13>   end
| 14> * xyz 0 1
| 15>    C       -2.05169         4.03153         1.87243
| 16>    C       -1.35447         3.72730         3.01086
| 17>    C       -0.01232         3.28959         3.01845
| 18>    N        1.08316         2.95961         3.10727
| 19>    C       -1.82212         3.84285         4.33839
| 20>    N       -2.09528         3.90906         5.45140
| 21>    C       -1.53494         3.91948         0.51410
| 22>    C       -2.52582         4.38223        -0.38913
| 23>    C       -2.33245         4.42451        -1.75040
| 24>    C       -1.09109         4.01078        -2.24218
| 25>    C       -0.10428         3.55167        -1.33422
| 26>    C       -0.31152         3.48652         0.03838
| 27>    S        1.36795         3.14376        -2.14700
| 28>    C        0.66144         3.59938        -3.67030
| 29>    C       -0.62285         4.02593        -3.58146
| 30>   Br        1.67707         3.47831        -5.23840
| 31>    C       -3.69429         4.83616         0.36956
| 32>    O       -4.69634         5.35698        -0.09327
| 33>    C       -3.40164         4.56787         1.78526
| 34>    C       -4.25328         4.74987         2.84072
| 35>    C       -5.54943         5.30818         2.87131
| 36>    S       -6.35193         6.07635         1.53795
| 37>    C       -7.70721         6.53513         2.52405
| 38>    C       -7.53696         6.09463         3.84550
| 39>    C       -6.34572         5.38668         4.02658
| 40>    C       -5.90789         4.70716         5.29655
| 41>    F       -5.48000         3.45148         5.05189
| 42>    F       -4.88127         5.35337         5.87391
| 43>    F       -6.85987         4.58126         6.21424
| 44>    C       -8.48257         6.40986         4.97200
| 45>    F       -9.35625         7.38469         4.67386
| 46>    F       -9.22863         5.35233         5.33158
| 47>    F       -7.83614         6.84381         6.06290
| 48>    C       -8.80213         7.20740         1.93842
| 49>    C       -8.76473         7.71575         0.66711
| 50>    C       -9.84280         8.37497         0.06918
| 51>    C       -9.80076         8.94585        -1.18455
| 52>    C      -10.86277         9.61789        -1.83902
| 53>    C      -10.54175        10.09576        -3.07315
| 54>    C       -9.20496         9.82902        -3.45226
| 55>    S       -8.37399         8.94501        -2.20068
| 56>    C       -8.57740        10.19304        -4.63359
| 57>    C       -9.13650        10.86455        -5.74288
| 58>    C       -8.25740        11.05860        -6.76514
| 59>    C       -6.95619        10.55264        -6.51685
| 60>    S       -6.88989         9.82980        -4.92614
| 61>    C       -5.91013        10.59207        -7.41250
| 62>    C       -4.62057        10.08531        -7.20551
| 63>    S       -4.10140         9.47213        -5.67224
| 64>    C       -2.51422         9.06867        -6.27214
| 65>    C       -2.40405         9.42462        -7.61793
| 66>    C       -3.57774         9.98365        -8.14265
| 67>    C       -3.82729        10.41629        -9.55617
| 68>    F       -4.93567         9.82867       -10.05628
| 69>    F       -4.05728        11.74371        -9.63405
| 70>    F       -2.85384        10.14641       -10.41704
| 71>    C       -1.14334         9.27656        -8.42530
| 72>    F       -0.08207         8.91388        -7.69063
| 73>    F       -1.25810         8.34789        -9.38549
| 74>    F       -0.79037        10.42878        -9.01271
| 75>    C       -1.61644         8.40649        -5.39989
| 76>    C       -1.87862         8.29161        -4.06820
| 77>    C       -1.09670         7.55894        -3.15491
| 78>    C       -1.41484         7.31703        -1.84707
| 79>    C       -2.61430         7.62453        -1.09836
| 80>    C       -3.89182         7.73570        -1.59076
| 81>    C       -4.98704         8.20185        -0.84412
| 82>    N       -5.89895         8.66299        -0.31929
| 83>    C       -4.28525         7.30106        -2.87240
| 84>    N       -4.67382         6.87658        -3.86617
| 85>    C       -2.26889         7.57696         0.31527
| 86>    C       -0.95204         7.06474         0.44732
| 87>    C       -0.38824         6.82803        -0.89637
| 88>    O        0.68428         6.33753        -1.17596
| 89>    C       -0.38209         6.80596         1.67014
| 90>    C       -1.14570         7.05998         2.81642
| 91>    C       -2.46055         7.56927         2.67316
| 92>    C       -3.03460         7.83586         1.43752
| 93>    S       -3.23820         7.77082         4.21470
| 94>    C       -1.80799         7.18533         5.02328
| 95>    C       -0.79936         6.85369         4.17806
| 96>   Br       -1.78124         7.07768         6.88375
| 97>    H       -3.10801         4.77273        -2.41569
| 98>    H        0.47185         3.12892         0.68501
| 99>    H       -1.21278         4.34772        -4.42032
|100>    H       -3.87858         4.42504         3.80163
|101>    H       -9.70746         7.32653         2.51403
|102>    H       -7.84690         7.63836         0.09764
|103>    H      -10.77123         8.45660         0.62013
|104>    H      -11.82798         9.72559        -1.37680
|105>    H      -11.22091        10.63218        -3.71048
|106>    H      -10.16489        11.17590        -5.76538
|107>    H       -8.49983        11.54275        -7.69412
|108>    H       -6.12457        11.04313        -8.37058
|109>    H       -0.73322         7.94267        -5.81160
|110>    H       -2.74355         8.81285        -3.68087
|111>    H       -0.13011         7.19557        -3.48509
|112>    H        0.61682         6.40419         1.74406
|113>    H       -4.03801         8.22291         1.37315
|114>    H        0.15238         6.47671         4.50677
|115> *
|116> 
|117>                          ****END OF INPUT****
================================================================================

                       ****************************
                       * Single Point Calculation *
                       ****************************

---------------------------------
CARTESIAN COORDINATES (ANGSTROEM)
---------------------------------
  C     -2.051690    4.031530    1.872430
  C     -1.354470    3.727300    3.010860
  C     -0.012320    3.289590    3.018450
  N      1.083160    2.959610    3.107270
  C     -1.822120    3.842850    4.338390
  N     -2.095280    3.909060    5.451400
  C     -1.534940    3.919480    0.514100
  C     -2.525820    4.382230   -0.389130
  C     -2.332450    4.424510   -1.750400
  C     -1.091090    4.010780   -2.242180
  C     -0.104280    3.551670   -1.334220
  C     -0.311520    3.486520    0.038380
  S      1.367950    3.143760   -2.147000
  C      0.661440    3.599380   -3.670300
  C     -0.622850    4.025930   -3.581460
  Br     1.677070    3.478310   -5.238400
  C     -3.694290    4.836160    0.369560
  O     -4.696340    5.356980   -0.093270
  C     -3.401640    4.567870    1.785260
  C     -4.253280    4.749870    2.840720
  C     -5.549430    5.308180    2.871310
  S     -6.351930    6.076350    1.537950
  C     -7.707210    6.535130    2.524050
  C     -7.536960    6.094630    3.845500
  C     -6.345720    5.386680    4.026580
  C     -5.907890    4.707160    5.296550
  F     -5.480000    3.451480    5.051890
  F     -4.881270    5.353370    5.873910
  F     -6.859870    4.581260    6.214240
  C     -8.482570    6.409860    4.972000
  F     -9.356250    7.384690    4.673860
  F     -9.228630    5.352330    5.331580
  F     -7.836140    6.843810    6.062900
  C     -8.802130    7.207400    1.938420
  C     -8.764730    7.715750    0.667110
  C     -9.842800    8.374970    0.069180
  C     -9.800760    8.945850   -1.184550
  C    -10.862770    9.617890   -1.839020
  C    -10.541750   10.095760   -3.073150
  C     -9.204960    9.829020   -3.452260
  S     -8.373990    8.945010   -2.200680
  C     -8.577400   10.193040   -4.633590
  C     -9.136500   10.864550   -5.742880
  C     -8.257400   11.058600   -6.765140
  C     -6.956190   10.552640   -6.516850
  S     -6.889890    9.829800   -4.926140
  C     -5.910130   10.592070   -7.412500
  C     -4.620570   10.085310   -7.205510
  S     -4.101400    9.472130   -5.672240
  C     -2.514220    9.068670   -6.272140
  C     -2.404050    9.424620   -7.617930
  C     -3.577740    9.983650   -8.142650
  C     -3.827290   10.416290   -9.556170
  F     -4.935670    9.828670  -10.056280
  F     -4.057280   11.743710   -9.634050
  F     -2.853840   10.146410  -10.417040
  C     -1.143340    9.276560   -8.425300
  F     -0.082070    8.913880   -7.690630
  F     -1.258100    8.347890   -9.385490
  F     -0.790370   10.428780   -9.012710
  C     -1.616440    8.406490   -5.399890
  C     -1.878620    8.291610   -4.068200
  C     -1.096700    7.558940   -3.154910
  C     -1.414840    7.317030   -1.847070
  C     -2.614300    7.624530   -1.098360
  C     -3.891820    7.735700   -1.590760
  C     -4.987040    8.201850   -0.844120
  N     -5.898950    8.662990   -0.319290
  C     -4.285250    7.301060   -2.872400
  N     -4.673820    6.876580   -3.866170
  C     -2.268890    7.576960    0.315270
  C     -0.952040    7.064740    0.447320
  C     -0.388240    6.828030   -0.896370
  O      0.684280    6.337530   -1.175960
  C     -0.382090    6.805960    1.670140
  C     -1.145700    7.059980    2.816420
  C     -2.460550    7.569270    2.673160
  C     -3.034600    7.835860    1.437520
  S     -3.238200    7.770820    4.214700
  C     -1.807990    7.185330    5.023280
  C     -0.799360    6.853690    4.178060
  Br    -1.781240    7.077680    6.883750
  H     -3.108010    4.772730   -2.415690
  H      0.471850    3.128920    0.685010
  H     -1.212780    4.347720   -4.420320
  H     -3.878580    4.425040    3.801630
  H     -9.707460    7.326530    2.514030
  H     -7.846900    7.638360    0.097640
  H    -10.771230    8.456600    0.620130
  H    -11.827980    9.725590   -1.376800
  H    -11.220910   10.632180   -3.710480
  H    -10.164890   11.175900   -5.765380
  H     -8.499830   11.542750   -7.694120
  H     -6.124570   11.043130   -8.370580
  H     -0.733220    7.942670   -5.811600
  H     -2.743550    8.812850   -3.680870
  H     -0.130110    7.195570   -3.485090
  H      0.616820    6.404190    1.744060
  H     -4.038010    8.222910    1.373150
  H      0.152380    6.476710    4.506770

----------------------------
CARTESIAN COORDINATES (A.U.)
----------------------------
  NO LB      ZA    FRAG     MASS         X           Y           Z
   0 C     6.0000    0    12.011   -3.877132    7.618488    3.538380
   1 C     6.0000    0    12.011   -2.559577    7.043576    5.689701
   2 C     6.0000    0    12.011   -0.023281    6.216424    5.704044
   3 N     7.0000    0    14.007    2.046876    5.592852    5.871889
   4 C     6.0000    0    12.011   -3.443308    7.261934    8.198369
   5 N     7.0000    0    14.007   -3.959505    7.387053   10.301653
   6 C     6.0000    0    12.011   -2.900616    7.406744    0.971508
   7 C     6.0000    0    12.011   -4.773108    8.281215   -0.735349
   8 C     6.0000    0    12.011   -4.407692    8.361112   -3.307777
   9 C     6.0000    0    12.011   -2.061861    7.579276   -4.237106
  10 C     6.0000    0    12.011   -0.197061    6.711684   -2.521310
  11 C     6.0000    0    12.011   -0.588687    6.588568    0.072528
  12 S    16.0000    0    32.060    2.585051    5.940845   -4.057242
  13 C     6.0000    0    12.011    1.249940    6.801842   -6.935862
  14 C     6.0000    0    12.011   -1.177016    7.607905   -6.767979
  15 Br   35.0000    0    79.900    3.169203    6.573053   -9.899141
  16 C     6.0000    0    12.011   -6.981196    9.139018    0.698367
  17 O     8.0000    0    15.999   -8.874796   10.123225   -0.176255
  18 C     6.0000    0    12.011   -6.428168    8.632023    3.373652
  19 C     6.0000    0    12.011   -8.037534    8.975953    5.368183
  20 C     6.0000    0    12.011  -10.486903   10.031006    5.425990
  21 S    16.0000    0    32.060  -12.003408   11.482637    2.906304
  22 C     6.0000    0    12.011  -14.564516   12.349606    4.769763
  23 C     6.0000    0    12.011  -14.242790   11.517182    7.266942
  24 C     6.0000    0    12.011  -11.991673   10.179350    7.609133
  25 C     6.0000    0    12.011  -11.164294    8.895243   10.009029
  26 F     9.0000    0    18.998  -10.355699    6.522352    9.546689
  27 F     9.0000    0    18.998   -9.224263   10.116403   11.100081
  28 F     9.0000    0    18.998  -12.963276    8.657327   11.743212
  29 C     6.0000    0    12.011  -16.029734   12.112880    9.395718
  30 F     9.0000    0    18.998  -17.680750   13.955042    8.832315
  31 F     9.0000    0    18.998  -17.439583   10.114438   10.075226
  32 F     9.0000    0    18.998  -14.808159   12.932927   11.457221
  33 C     6.0000    0    12.011  -16.633615   13.620012    3.663083
  34 C     6.0000    0    12.011  -16.562939   14.580654    1.260655
  35 C     6.0000    0    12.011  -18.600196   15.826400    0.130731
  36 C     6.0000    0    12.011  -18.520752   16.905207   -2.238475
  37 C     6.0000    0    12.011  -20.527660   18.175178   -3.475244
  38 C     6.0000    0    12.011  -19.921020   19.078222   -5.807412
  39 C     6.0000    0    12.011  -17.394853   18.574156   -6.523826
  40 S    16.0000    0    32.060  -15.824548   16.903619   -4.158683
  41 C     6.0000    0    12.011  -16.208937   19.262054   -8.756216
  42 C     6.0000    0    12.011  -17.265483   20.531024  -10.852470
  43 C     6.0000    0    12.011  -15.604225   20.897725  -12.784262
  44 C     6.0000    0    12.011  -13.145294   19.941600  -12.315062
  45 S    16.0000    0    32.060  -13.020005   18.575630   -9.309055
  46 C     6.0000    0    12.011  -11.168527   20.016111  -14.007595
  47 C     6.0000    0    12.011   -8.731612   19.058474  -13.616441
  48 S    16.0000    0    32.060   -7.750523   17.899732  -10.718980
  49 C     6.0000    0    12.011   -4.751187   17.137303  -11.852627
  50 C     6.0000    0    12.011   -4.542996   17.809951  -14.395801
  51 C     6.0000    0    12.011   -6.760949   18.866364  -15.387379
  52 C     6.0000    0    12.011   -7.232530   19.683935  -18.058544
  53 F     9.0000    0    18.998   -9.327065   18.573495  -19.003615
  54 F     9.0000    0    18.998   -7.667148   22.192396  -18.205716
  55 F     9.0000    0    18.998   -5.392976   19.173936  -19.685353
  56 C     6.0000    0    12.011   -2.160599   17.530158  -15.921510
  57 F     9.0000    0    18.998   -0.155090   16.844792  -14.533184
  58 F     9.0000    0    18.998   -2.377464   15.775226  -17.736006
  59 F     9.0000    0    18.998   -1.493583   19.707538  -17.031554
  60 C     6.0000    0    12.011   -3.054629   15.885964  -10.204313
  61 C     6.0000    0    12.011   -3.550077   15.668872   -7.687784
  62 C     6.0000    0    12.011   -2.072463   14.284326   -5.961916
  63 C     6.0000    0    12.011   -2.673660   13.827183   -3.490456
  64 C     6.0000    0    12.011   -4.940311   14.408274   -2.075600
  65 C     6.0000    0    12.011   -7.354474   14.618354   -3.006101
  66 C     6.0000    0    12.011   -9.424140   15.499250   -1.595156
  67 N     7.0000    0    14.007  -11.147400   16.370679   -0.603371
  68 C     6.0000    0    12.011   -8.097949   13.797004   -5.428049
  69 N     7.0000    0    14.007   -8.832240   12.994853   -7.306002
  70 C     6.0000    0    12.011   -4.287581   14.318379    0.595774
  71 C     6.0000    0    12.011   -1.799095   13.350424    0.845312
  72 C     6.0000    0    12.011   -0.733667   12.903107   -1.693894
  73 O     8.0000    0    15.999    1.293102   11.976196   -2.222242
  74 C     6.0000    0    12.011   -0.722045   12.861400    3.156107
  75 C     6.0000    0    12.011   -2.165059   13.341429    5.322262
  76 C     6.0000    0    12.011   -4.649766   14.303847    5.051540
  77 C     6.0000    0    12.011   -5.734563   14.807629    2.716519
  78 S    16.0000    0    32.060   -6.119311   14.684722    7.964629
  79 C     6.0000    0    12.011   -3.416606   13.578306    9.492623
  80 C     6.0000    0    12.011   -1.510571   12.951597    7.895389
  81 Br   35.0000    0    79.900   -3.366056   13.374877   13.008402
  82 H     1.0000    0     1.008   -5.873288    9.019153   -4.564993
  83 H     1.0000    0     1.008    0.891667    5.912802    1.294481
  84 H     1.0000    0     1.008   -2.291822    8.216000   -8.353194
  85 H     1.0000    0     1.008   -7.329454    8.362114    7.184040
  86 H     1.0000    0     1.008  -18.344441   13.845135    4.750828
  87 H     1.0000    0     1.008  -14.828492   14.434409    0.184513
  88 H     1.0000    0     1.008  -20.354675   15.980658    1.171876
  89 H     1.0000    0     1.008  -22.351643   18.378702   -2.601775
  90 H     1.0000    0     1.008  -21.204447   20.091908   -7.011791
  91 H     1.0000    0     1.008  -19.208858   21.119390  -10.894989
  92 H     1.0000    0     1.008  -16.062351   21.812636  -14.539780
  93 H     1.0000    0     1.008  -11.573760   20.868491  -15.818104
  94 H     1.0000    0     1.008   -1.385585   15.009471  -10.982332
  95 H     1.0000    0     1.008   -5.184558   16.653873   -6.955836
  96 H     1.0000    0     1.008   -0.245872   13.597657   -6.585866
  97 H     1.0000    0     1.008    1.165621   12.102165    3.295796
  98 H     1.0000    0     1.008   -7.630733   15.539048    2.594877
  99 H     1.0000    0     1.008    0.287956   12.239208    8.516561

--------------------------------
INTERNAL COORDINATES (ANGSTROEM)
--------------------------------
 C      0   0   0     0.000000000000     0.00000000     0.00000000
 C      1   0   0     1.369194831352     0.00000000     0.00000000
 C      2   1   0     1.411741575041   123.88164657     0.00000000
 N      3   2   1     1.147541817626   175.66984806   158.89398171
 C      2   1   3     1.412226690691   126.49756372   177.45432950
 N      5   2   1     1.147950961409   174.22813140   186.06490855
 C      1   2   3     1.457616600447   125.25500221     1.63234456
 C      7   1   2     1.418381179303   108.70417783   182.70082081
 C      8   7   1     1.375585536490   122.81988437   178.90197276
 C      9   8   7     1.397853615691   117.63826599   358.88165456
 C     10   9   8     1.417380446387   119.26050425     0.96773608
 C      7   1   2     1.382215748861   131.19288675     1.37687782
 S     11  10   9     1.730451695194   111.58022674   181.98511811
 C     13  11  10     1.739881850730    90.23046783     0.47242551
 C     14  13  11     1.356185183594   114.17666208   359.41420482
 Br    14  13  11     1.872191189970   119.74190976   179.22478557
 C      8   7   1     1.465259397479   109.17418834     1.42292890
 O     17   8   7     1.220479120592   126.19784221   175.95197221
 C      1   2   3     1.455205898490   127.16318530   184.25585219
 C     19   1   2     1.368360515800   125.46318886   353.83695724
 C     20  19   1     1.411612775056   129.85095586   177.09423752
 S     21  20  19     1.735494249054   125.66152952   353.32635483
 C     22  21  20     1.737715792873    92.37943550   185.03658712
 C     23  22  21     1.403301612270   110.90837990   359.67691395
 C     24  23  22     1.397510610514   112.60937033   358.96388188
 C     25  24  23     1.505412348893   125.86522260   184.17281978
 F     26  25  24     1.348955384770   111.06474511   132.18677458
 F     26  25  24     1.343458431847   111.57213874   250.78923906
 F     26  25  24     1.328258885346   114.65671653    12.93932714
 C     24  23  22     1.504177674013   124.27586258   175.58464064
 F     30  24  23     1.342571313152   113.26327202   346.57707315
 F     30  24  23     1.343232295956   112.62242934   106.38803076
 F     30  24  23     1.340241454888   111.97639449   228.01452460
 C     23  22  21     1.412005402327   119.67764483   182.27000119
 C     34  23  22     1.369688869269   122.71713154   349.03009192
 C     35  34  23     1.397972180768   123.43211081   179.51038993
 C     36  35  34     1.378227212364   124.11652174   176.86720063
 C     37  36  35     1.416980586529   126.42317269   179.65588330
 C     38  37  36     1.361796766849   114.09973155   179.50546822
 C     39  38  37     1.414878837145   113.54020145   359.72928228
 S     40  39  38     1.743111389843   110.70930704     0.39872426
 C     40  39  38     1.386319834273   127.33821429   180.60988737
 C     42  40  39     1.412105801348   127.95448912   357.42061509
 C     43  42  40     1.362162883102   113.68798617   180.98826566
 C     44  43  42     1.418023592822   114.20313732   359.89789200
 S     45  44  43     1.748499831198   109.97408743   359.58434186
 C     45  44  43     1.377673826056   124.93875502   177.90243537
 C     47  45  44     1.400933814033   126.33617637   180.96008678
 S     48  47  45     1.731024001624   122.34966517   352.89629019
 C     49  48  47     1.744075782184    92.87832235   179.37186579
 C     50  49  48     1.396419906583   110.14052036     0.83932121
 C     51  50  49     1.401925046285   113.34762518   359.01633794
 C     52  51  50     1.499163554286   127.39740639   182.95468249
 F     53  52  51     1.350523417383   111.11256698   125.79102034
 F     53  52  51     1.349446016297   111.50995973   243.14794641
 F     53  52  51     1.327229171545   115.51816205     5.19868963
 C     51  50  49     1.504379534758   123.93485137   176.88169312
 F     57  51  50     1.340735173030   113.32153991   352.63602973
 F     57  51  50     1.340732136782   112.38282225   112.55902937
 F     57  51  50     1.340615253307   111.79020451   233.80871314
 C     50  49  48     1.416090160724   118.24601807   184.05349518
 C     61  50  49     1.362106465332   121.30609627   348.61293553
 C     62  61  50     1.407942768510   124.83232641   174.58918909
 C     63  62  61     1.367544870672   125.67627986   187.16598391
 C     64  63  62     1.447006290829   130.54738757     5.48546832
 C     65  64  63     1.373635278850   127.05961886    28.57114927
 C     66  65  64     1.405088595249   124.14533031   188.43117048
 N     67  66  65     1.148771725192   174.09510663   124.86493842
 C     66  65  64     1.409361622899   124.10024612    13.50129529
 N     69  66  65     1.148367854043   174.50442561   117.74425064
 C     65  64  63     1.455994763006   107.38394077   199.18672477
 C     71  65  64     1.419119605037   108.80041092   351.73782230
 C     72  71  65     1.476280759273   109.12100318     2.69776671
 O     73  72  71     1.212047840846   127.79135604   183.82013862
 C     72  71  65     1.373717162774   122.39953449   185.07171115
 C     75  72  71     1.400565682465   117.91520386     0.17703391
 C     76  75  72     1.417296812316   119.22568000   359.93824776
 C     71  65  64     1.383035095939   130.56956892   177.54009716
 S     77  76  75     1.738305927218   111.53379945   178.53060814
 C     79  77  76     1.744161919261    90.30709141     0.26009732
 C     80  79  77     1.357098528074   113.74987796   359.90599765
 Br    80  79  77     1.863773780774   119.59912098   179.60045994
 H      9   8   7     1.079518997563   121.25130542   179.40117845
 H     12   7   1     1.076882850546   122.76694114     1.30976643
 H     15  14  13     1.074826641185   124.24980689   179.86568045
 H     20  19   1     1.081324487376   115.45587543   357.60922107
 H     34  23  22     1.079417082457   118.79981098   168.99522553
 H     35  34  23     1.082911446934   118.99398569   357.37876749
 H     36  35  34     1.082677987354   118.63317392   357.48400022
 H     38  37  36     1.075582150512   121.43843195   359.48499628
 H     39  38  37     1.074799632908   124.30252906   180.14450602
 H     43  42  40     1.074723715473   122.21342605     0.31827398
 H     44  43  42     1.075256884563   124.54211936   179.46471675
 H     47  45  44     1.080442929358   115.95966380   359.68767981
 H     61  50  49     1.079218089591   119.00152070   165.51015301
 H     62  61  50     1.081581976274   117.60655040   353.69280374
 H     63  62  61     1.084136899750   118.16480314    10.85033107
 H     75  72  71     1.079214754996   121.00573745   179.18808166
 H     78  71  65     1.077396318678   122.30286505   353.75211177
 H     81  80  79     1.075161946918   123.58533464   179.96313259

---------------------------
INTERNAL COORDINATES (A.U.)
---------------------------
 C      0   0   0     0.000000000000     0.00000000     0.00000000
 C      1   0   0     2.587403255235     0.00000000     0.00000000
 C      2   1   0     2.667804948699   123.88164657     0.00000000
 N      3   2   1     2.168539762535   175.66984806   158.89398171
 C      2   1   3     2.668721684420   126.49756372   177.45432950
 N      5   2   1     2.169312932235   174.22813140   186.06490855
 C      1   2   3     2.754496183103   125.25500221     1.63234456
 C      7   1   2     2.680351982390   108.70417783   182.70082081
 C      8   7   1     2.599479937749   122.81988437   178.90197276
 C      9   8   7     2.641560508967   117.63826599   358.88165456
 C     10   9   8     2.678460871246   119.26050425     0.96773608
 C      7   1   2     2.612009223341   131.19288675     1.37687782
 S     11  10   9     3.270079791897   111.58022674   181.98511811
 C     13  11  10     3.287900203260    90.23046783     0.47242551
 C     14  13  11     2.562818583874   114.17666208   359.41420482
 Br    14  13  11     3.537928619383   119.74190976   179.22478557
 C      8   7   1     2.768938976389   109.17418834     1.42292890
 O     17   8   7     2.306371290087   126.19784221   175.95197221
 C      1   2   3     2.749940616613   127.16318530   184.25585219
 C     19   1   2     2.585826627333   125.46318886   353.83695724
 C     20  19   1     2.667561552000   129.85095586   177.09423752
 S     21  20  19     3.279608837708   125.66152952   353.32635483
 C     22  21  20     3.283806947120    92.37943550   185.03658712
 C     23  22  21     2.651855730481   110.90837990   359.67691395
 C     24  23  22     2.640912323121   112.60937033   358.96388188
 C     25  24  23     2.844817058031   125.86522260   184.17281978
 F     26  25  24     2.549156244094   111.06474511   132.18677458
 F     26  25  24     2.538768508498   111.57213874   250.78923906
 F     26  25  24     2.510045528251   114.65671653    12.93932714
 C     24  23  22     2.842483860644   124.27586258   175.58464064
 F     30  24  23     2.537092097117   113.26327202   346.57707315
 F     30  24  23     2.538341173596   112.62242934   106.38803076
 F     30  24  23     2.532689303066   111.97639449   228.01452460
 C     23  22  21     2.668303510015   119.67764483   182.27000119
 C     34  23  22     2.588336851599   122.71713154   349.03009192
 C     35  34  23     2.641784564491   123.43211081   179.51038993
 C     36  35  34     2.604471981685   124.11652174   176.86720063
 C     37  36  35     2.677705245623   126.42317269   179.65588330
 C     38  37  36     2.573422939404   114.09973155   179.50546822
 C     39  38  37     2.673733514884   113.54020145   359.72928228
 S     40  39  38     3.294003147722   110.70930704     0.39872426
 C     40  39  38     2.619764820800   127.33821429   180.60988737
 C     42  40  39     2.668493236669   127.95448912   357.42061509
 C     43  42  40     2.574114798855   113.68798617   180.98826566
 C     44  43  42     2.679676241873   114.20313732   359.89789200
 S     45  44  43     3.304185826172   109.97408743   359.58434186
 C     45  44  43     2.603426233117   124.93875502   177.90243537
 C     47  45  44     2.647381240271   126.33617637   180.96008678
 S     48  47  45     3.271161294315   122.34966517   352.89629019
 C     49  48  47     3.295825585132    92.87832235   179.37186579
 C     50  49  48     2.638851191397   110.14052036     0.83932121
 C     51  50  49     2.649254397763   113.34762518   359.01633794
 C     52  51  50     2.833008547557   127.39740639   182.95468249
 F     53  52  51     2.552119396301   111.11256698   125.79102034
 F     53  52  51     2.550083403312   111.50995973   243.14794641
 F     53  52  51     2.508099651171   115.51816205     5.19868963
 C     51  50  49     2.842865322169   123.93485137   176.88169312
 F     57  51  50     2.533622295142   113.32153991   352.63602973
 F     57  51  50     2.533616557465   112.38282225   112.55902937
 F     57  51  50     2.533395679708   111.79020451   233.80871314
 C     50  49  48     2.676022584709   118.24601807   184.05349518
 C     61  50  49     2.574008184722   121.30609627   348.61293553
 C     62  61  50     2.660626244719   124.83232641   174.58918909
 C     63  62  61     2.584285281418   125.67627986   187.16598391
 C     64  63  62     2.734445603729   130.54738757     5.48546832
 C     65  64  63     2.595794484918   127.05961886    28.57114927
 C     66  65  64     2.655232638918   124.14533031   188.43117048
 N     67  66  65     2.170863951005   174.09510663   124.86493842
 C     66  65  64     2.663307490938   124.10024612    13.50129529
 N     69  66  65     2.170100745141   174.50442561   117.74425064
 C     65  64  63     2.751431354504   107.38394077   199.18672477
 C     71  65  64     2.681747404798   108.80041092   351.73782230
 C     72  71  65     2.789766331804   109.12100318     2.69776671
 O     73  72  71     2.290438480410   127.79135604   183.82013862
 C     72  71  65     2.595949223110   122.39953449   185.07171115
 C     75  72  71     2.646685572428   117.91520386     0.17703391
 C     76  75  72     2.678302825756   119.22568000   359.93824776
 C     71  65  64     2.613557564927   130.56956892   177.54009716
 S     77  76  75     3.284922139413   111.53379945   178.53060814
 C     79  77  76     3.295988360618    90.30709141     0.26009732
 C     80  79  77     2.564544554807   113.74987796   359.90599765
 Br    80  79  77     3.522022021246   119.59912098   179.60045994
 H      9   8   7     2.039995261760   121.25130542   179.40117845
 H     12   7   1     2.035013665848   122.76694114     1.30976643
 H     15  14  13     2.031127993281   124.24980689   179.86568045
 H     20  19   1     2.043407143044   115.45587543   357.60922107
 H     34  23  22     2.039802670120   118.79981098   168.99522553
 H     35  34  23     2.046406061993   118.99398569   357.37876749
 H     36  35  34     2.045964887323   118.63317392   357.48400022
 H     38  37  36     2.032555699002   121.43843195   359.48499628
 H     39  38  37     2.031076955036   124.30252906   180.14450602
 H     43  42  40     2.030933491874   122.21342605     0.31827398
 H     44  43  42     2.031941035437   124.54211936   179.46471675
 H     47  45  44     2.041741239819   115.95966380   359.68767981
 H     61  50  49     2.039426628100   119.00152070   165.51015301
 H     62  61  50     2.043893726542   117.60655040   353.69280374
 H     63  62  61     2.048721832206   118.16480314    10.85033107
 H     75  72  71     2.039420326628   121.00573745   179.18808166
 H     78  71  65     2.035983979996   122.30286505   353.75211177
 H     81  80  79     2.031761629288   123.58533464   179.96313259

---------------------
BASIS SET INFORMATION
---------------------
There are 7 groups of distinct atoms

 Group   1 Type C   : 7s4p1d contracted to 3s2p1d pattern {511/31/1}
 Group   2 Type N   : 7s4p1d contracted to 3s2p1d pattern {511/31/1}
 Group   3 Type S   : 10s7p1d contracted to 4s3p1d pattern {5311/511/1}
 Group   4 Type Br  : 14s10p6d contracted to 5s4p3d pattern {63311/5311/411}
 Group   5 Type O   : 7s4p1d contracted to 3s2p1d pattern {511/31/1}
 Group   6 Type F   : 7s4p1d contracted to 3s2p1d pattern {511/31/1}
 Group   7 Type H   : 4s1p contracted to 2s1p pattern {31/1}

Atom   0C    basis set group =>   1
Atom   1C    basis set group =>   1
Atom   2C    basis set group =>   1
Atom   3N    basis set group =>   2
Atom   4C    basis set group =>   1
Atom   5N    basis set group =>   2
Atom   6C    basis set group =>   1
Atom   7C    basis set group =>   1
Atom   8C    basis set group =>   1
Atom   9C    basis set group =>   1
Atom  10C    basis set group =>   1
Atom  11C    basis set group =>   1
Atom  12S    basis set group =>   3
Atom  13C    basis set group =>   1
Atom  14C    basis set group =>   1
Atom  15Br   basis set group =>   4
Atom  16C    basis set group =>   1
Atom  17O    basis set group =>   5
Atom  18C    basis set group =>   1
Atom  19C    basis set group =>   1
Atom  20C    basis set group =>   1
Atom  21S    basis set group =>   3
Atom  22C    basis set group =>   1
Atom  23C    basis set group =>   1
Atom  24C    basis set group =>   1
Atom  25C    basis set group =>   1
Atom  26F    basis set group =>   6
Atom  27F    basis set group =>   6
Atom  28F    basis set group =>   6
Atom  29C    basis set group =>   1
Atom  30F    basis set group =>   6
Atom  31F    basis set group =>   6
Atom  32F    basis set group =>   6
Atom  33C    basis set group =>   1
Atom  34C    basis set group =>   1
Atom  35C    basis set group =>   1
Atom  36C    basis set group =>   1
Atom  37C    basis set group =>   1
Atom  38C    basis set group =>   1
Atom  39C    basis set group =>   1
Atom  40S    basis set group =>   3
Atom  41C    basis set group =>   1
Atom  42C    basis set group =>   1
Atom  43C    basis set group =>   1
Atom  44C    basis set group =>   1
Atom  45S    basis set group =>   3
Atom  46C    basis set group =>   1
Atom  47C    basis set group =>   1
Atom  48S    basis set group =>   3
Atom  49C    basis set group =>   1
Atom  50C    basis set group =>   1
Atom  51C    basis set group =>   1
Atom  52C    basis set group =>   1
Atom  53F    basis set group =>   6
Atom  54F    basis set group =>   6
Atom  55F    basis set group =>   6
Atom  56C    basis set group =>   1
Atom  57F    basis set group =>   6
Atom  58F    basis set group =>   6
Atom  59F    basis set group =>   6
Atom  60C    basis set group =>   1
Atom  61C    basis set group =>   1
Atom  62C    basis set group =>   1
Atom  63C    basis set group =>   1
Atom  64C    basis set group =>   1
Atom  65C    basis set group =>   1
Atom  66C    basis set group =>   1
Atom  67N    basis set group =>   2
Atom  68C    basis set group =>   1
Atom  69N    basis set group =>   2
Atom  70C    basis set group =>   1
Atom  71C    basis set group =>   1
Atom  72C    basis set group =>   1
Atom  73O    basis set group =>   5
Atom  74C    basis set group =>   1
Atom  75C    basis set group =>   1
Atom  76C    basis set group =>   1
Atom  77C    basis set group =>   1
Atom  78S    basis set group =>   3
Atom  79C    basis set group =>   1
Atom  80C    basis set group =>   1
Atom  81Br   basis set group =>   4
Atom  82H    basis set group =>   7
Atom  83H    basis set group =>   7
Atom  84H    basis set group =>   7
Atom  85H    basis set group =>   7
Atom  86H    basis set group =>   7
Atom  87H    basis set group =>   7
Atom  88H    basis set group =>   7
Atom  89H    basis set group =>   7
Atom  90H    basis set group =>   7
Atom  91H    basis set group =>   7
Atom  92H    basis set group =>   7
Atom  93H    basis set group =>   7
Atom  94H    basis set group =>   7
Atom  95H    basis set group =>   7
Atom  96H    basis set group =>   7
Atom  97H    basis set group =>   7
Atom  98H    basis set group =>   7
Atom  99H    basis set group =>   7
---------------------------------
AUXILIARY/J BASIS SET INFORMATION
---------------------------------
There are 7 groups of distinct atoms

 Group   1 Type C   : 12s5p4d2f1g contracted to 6s4p3d1f1g pattern {711111/2111/211/2/1}
 Group   2 Type N   : 12s5p4d2f1g contracted to 6s4p3d1f1g pattern {711111/2111/211/2/1}
 Group   3 Type S   : 14s5p5d2f1g contracted to 8s4p3d1f1g pattern {71111111/2111/311/2/1}
 Group   4 Type Br  : 19s5p5d3f1g contracted to 8s4p3d2f1g pattern {121111111/2111/311/21/1}
 Group   5 Type O   : 12s5p4d2f1g contracted to 6s4p3d1f1g pattern {711111/2111/211/2/1}
 Group   6 Type F   : 12s5p4d2f1g contracted to 6s4p3d1f1g pattern {711111/2111/211/2/1}
 Group   7 Type H   : 5s2p1d contracted to 3s1p1d pattern {311/2/1}

Atom   0C    basis set group =>   1
Atom   1C    basis set group =>   1
Atom   2C    basis set group =>   1
Atom   3N    basis set group =>   2
Atom   4C    basis set group =>   1
Atom   5N    basis set group =>   2
Atom   6C    basis set group =>   1
Atom   7C    basis set group =>   1
Atom   8C    basis set group =>   1
Atom   9C    basis set group =>   1
Atom  10C    basis set group =>   1
Atom  11C    basis set group =>   1
Atom  12S    basis set group =>   3
Atom  13C    basis set group =>   1
Atom  14C    basis set group =>   1
Atom  15Br   basis set group =>   4
Atom  16C    basis set group =>   1
Atom  17O    basis set group =>   5
Atom  18C    basis set group =>   1
Atom  19C    basis set group =>   1
Atom  20C    basis set group =>   1
Atom  21S    basis set group =>   3
Atom  22C    basis set group =>   1
Atom  23C    basis set group =>   1
Atom  24C    basis set group =>   1
Atom  25C    basis set group =>   1
Atom  26F    basis set group =>   6
Atom  27F    basis set group =>   6
Atom  28F    basis set group =>   6
Atom  29C    basis set group =>   1
Atom  30F    basis set group =>   6
Atom  31F    basis set group =>   6
Atom  32F    basis set group =>   6
Atom  33C    basis set group =>   1
Atom  34C    basis set group =>   1
Atom  35C    basis set group =>   1
Atom  36C    basis set group =>   1
Atom  37C    basis set group =>   1
Atom  38C    basis set group =>   1
Atom  39C    basis set group =>   1
Atom  40S    basis set group =>   3
Atom  41C    basis set group =>   1
Atom  42C    basis set group =>   1
Atom  43C    basis set group =>   1
Atom  44C    basis set group =>   1
Atom  45S    basis set group =>   3
Atom  46C    basis set group =>   1
Atom  47C    basis set group =>   1
Atom  48S    basis set group =>   3
Atom  49C    basis set group =>   1
Atom  50C    basis set group =>   1
Atom  51C    basis set group =>   1
Atom  52C    basis set group =>   1
Atom  53F    basis set group =>   6
Atom  54F    basis set group =>   6
Atom  55F    basis set group =>   6
Atom  56C    basis set group =>   1
Atom  57F    basis set group =>   6
Atom  58F    basis set group =>   6
Atom  59F    basis set group =>   6
Atom  60C    basis set group =>   1
Atom  61C    basis set group =>   1
Atom  62C    basis set group =>   1
Atom  63C    basis set group =>   1
Atom  64C    basis set group =>   1
Atom  65C    basis set group =>   1
Atom  66C    basis set group =>   1
Atom  67N    basis set group =>   2
Atom  68C    basis set group =>   1
Atom  69N    basis set group =>   2
Atom  70C    basis set group =>   1
Atom  71C    basis set group =>   1
Atom  72C    basis set group =>   1
Atom  73O    basis set group =>   5
Atom  74C    basis set group =>   1
Atom  75C    basis set group =>   1
Atom  76C    basis set group =>   1
Atom  77C    basis set group =>   1
Atom  78S    basis set group =>   3
Atom  79C    basis set group =>   1
Atom  80C    basis set group =>   1
Atom  81Br   basis set group =>   4
Atom  82H    basis set group =>   7
Atom  83H    basis set group =>   7
Atom  84H    basis set group =>   7
Atom  85H    basis set group =>   7
Atom  86H    basis set group =>   7
Atom  87H    basis set group =>   7
Atom  88H    basis set group =>   7
Atom  89H    basis set group =>   7
Atom  90H    basis set group =>   7
Atom  91H    basis set group =>   7
Atom  92H    basis set group =>   7
Atom  93H    basis set group =>   7
Atom  94H    basis set group =>   7
Atom  95H    basis set group =>   7
Atom  96H    basis set group =>   7
Atom  97H    basis set group =>   7
Atom  98H    basis set group =>   7
Atom  99H    basis set group =>   7


           ************************************************************
           *        Program running with 6 parallel MPI-processes     *
           *              working on a common directory               *
           ************************************************************
------------------------------------------------------------------------------
                           ORCA GTO INTEGRAL CALCULATION
                           -- RI-GTO INTEGRALS CHOSEN --
------------------------------------------------------------------------------

                         BASIS SET STATISTICS AND STARTUP INFO

Gaussian basis set:
 # of primitive gaussian shells          ... 1146
 # of primitive gaussian functions       ... 2266
 # of contracted shells                  ...  570
 # of contracted basis functions         ... 1298
 Highest angular momentum                ...    2
 Maximum contraction depth               ...    6
Auxiliary gaussian basis set:
 # of primitive gaussian shells          ... 2148
 # of primitive gaussian functions       ... 6108
 # of contracted shells                  ... 1338
 # of contracted aux-basis functions     ... 4246
 Highest angular momentum                ...    4
 Maximum contraction depth               ...   12
Ratio of auxiliary to basis functions    ...  3.27
Integral package used                  ... LIBINT
 One Electron integrals                  ... done
 Ordering auxiliary basis shells         ... done
 Integral threshhold             Thresh  ...  2.500e-11
 Primitive cut-off               TCut    ...  2.500e-12
 Pre-screening matrix                    ... done
 Shell pair data                         ... 
 Ordering of the shell pairs             ... done (   0.013 sec) 64296 of 162735 pairs
 Determination of significant pairs      ... done (   0.000 sec)
 Creation of shell pair data             ... done (   0.008 sec)
 Storage of shell pair data              ... done (   0.012 sec)
 Shell pair data done in (   0.034 sec)
 Computing two index integrals           ... done
 Cholesky decomposition of the V-matrix  ... done


Timings:
 Total evaluation time                   ...   3.091 sec (  0.052 min)
 One electron matrix time                ...   0.797 sec (  0.013 min) = 25.8%
 Schwartz matrix evaluation time         ...   0.949 sec (  0.016 min) = 30.7%
 Two index repulsion integral time       ...   0.469 sec (  0.008 min) = 15.2%
 Cholesky decomposition of V             ...   0.825 sec (  0.014 min) = 26.7%
 Three index repulsion integral time     ...   0.000 sec (  0.000 min) =  0.0%



           ************************************************************
           *        Program running with 6 parallel MPI-processes     *
           *              working on a common directory               *
           ************************************************************
-------------------------------------------------------------------------------
                                 ORCA SCF
-------------------------------------------------------------------------------

------------
SCF SETTINGS
------------
Hamiltonian:
 Density Functional     Method          .... DFT(GTOs)
 Exchange Functional    Exchange        .... WB88
 Correlation Functional Correlation     .... LYP
 LDA part of GGA corr.  LDAOpt          .... VWN-5
 Gradients option       PostSCFGGA      .... off
 Hybrid DFT is turned on
   Fraction HF Exchange ScalHFX         ....  0.190000
   Scaling of DF-GGA-X  ScalDFX         ....  0.350000
   Scaling of DF-GGA-C  ScalDFC         ....  0.810000
   Scaling of DF-LDA-C  ScalLDAC        ....  1.000000
   Perturbative correction              ....  0.000000
   Density functional embedding theory  .... OFF
 Long-range corrected/Screened/Range-Separated Hybrid DFT is turned on
   Amount of maximum screened exact exchange              ....  0.460000
   Range separation parameter mu (erf(mu*r12)/r12)        ....  0.330000
 RI-approximation to the Coulomb term is turned on
   Number of auxiliary basis functions  .... 4246
   RIJ-COSX (HFX calculated with COS-X)).... on


General Settings:
 Integral files         IntName         .... xtbopt
 Hartree-Fock type      HFTyp           .... RHF
 Total Charge           Charge          ....    0
 Multiplicity           Mult            ....    1
 Number of Electrons    NEL             ....  672
 Basis Dimension        Dim             .... 1298
 Nuclear Repulsion      ENuc            ....  18753.3515484398 Eh

Convergence Acceleration:
 DIIS                   CNVDIIS         .... on
   Start iteration      DIISMaxIt       ....    12
   Startup error        DIISStart       ....  0.200000
   # of expansion vecs  DIISMaxEq       ....     5
   Bias factor          DIISBfac        ....   1.050
   Max. coefficient     DIISMaxC        ....  10.000
 Newton-Raphson         CNVNR           .... off
 SOSCF                  CNVSOSCF        .... on
   Start iteration      SOSCFMaxIt      ....   150
   Startup grad/error   SOSCFStart      ....  0.003300
 Level Shifting         CNVShift        .... on
   Level shift para.    LevelShift      ....    0.2500
   Turn off err/grad.   ShiftErr        ....    0.0010
 Zerner damping         CNVZerner       .... off
 Static damping         CNVDamp         .... on
   Fraction old density DampFac         ....    0.7000
   Max. Damping (<1)    DampMax         ....    0.9800
   Min. Damping (>=0)   DampMin         ....    0.0000
   Turn off err/grad.   DampErr         ....    0.1000
 Fernandez-Rico         CNVRico         .... off

SCF Procedure:
 Maximum # iterations   MaxIter         ....   125
 SCF integral mode      SCFMode         .... Direct
   Integral package                     .... LIBINT
 Reset frequency        DirectResetFreq ....    20
 Integral Threshold     Thresh          ....  2.500e-11 Eh
 Primitive CutOff       TCut            ....  2.500e-12 Eh

Convergence Tolerance:
 Convergence Check Mode ConvCheckMode   .... Total+1el-Energy
 Convergence forced     ConvForced      .... 1
 Energy Change          TolE            ....  1.000e-08 Eh
 1-El. energy change                    ....  1.000e-05 Eh
 Orbital Gradient       TolG            ....  1.000e-05
 Orbital Rotation angle TolX            ....  1.000e-05
 DIIS Error             TolErr          ....  5.000e-07


Diagonalization of the overlap matrix:
Smallest eigenvalue                        ... 1.753e-04
Time for diagonalization                   ...    0.263 sec
Threshold for overlap eigenvalues          ... 1.000e-08
Number of eigenvalues below threshold      ... 0
Time for construction of square roots      ...    0.211 sec
Total time needed                          ...    0.478 sec

-------------------
DFT GRID GENERATION
-------------------

General Integration Accuracy     IntAcc      ...  4.670
Radial Grid Type                 RadialGrid  ... Gauss-Chebyshev
Angular Grid (max. acc.)         AngularGrid ... Lebedev-302
Angular grid pruning method      GridPruning ... 3 (G Style)
Weight generation scheme         WeightScheme... Becke
Basis function cutoff            BFCut       ...    1.0000e-11
Integration weight cutoff        WCut        ...    1.0000e-14
Grids for H and He will be reduced by one unit

# of grid points (after initial pruning)     ... 581808 (   0.0 sec)
# of grid points (after weights+screening)   ... 488073 (   5.0 sec)
nearest neighbour list constructed           ...    0.0 sec
Grid point re-assignment to atoms done       ...    0.1 sec
Grid point division into batches done        ...    1.8 sec
Reduced shell lists constructed in    3.3 sec

Total number of grid points                  ...   488073
Total number of batches                      ...     7674
Average number of points per batch           ...       63
Average number of grid points per atom       ...     4881
Average number of shells per batch           ...   119.49 (20.96%)
Average number of basis functions per batch  ...   252.31 (19.44%)
Average number of large shells per batch     ...    67.72 (56.67%)
Average number of large basis fcns per batch ...   145.35 (57.61%)
Maximum spatial batch extension              ...  21.66, 20.82, 17.24 au
Average spatial batch extension              ...   0.34,  0.35,  0.32 au

Time for grid setup =    8.660 sec

------------------------------
INITIAL GUESS: MODEL POTENTIAL
------------------------------
Loading Hartree-Fock densities                     ... done
Calculating cut-offs                               ... done
Setting up the integral package                    ... done
Initializing the effective Hamiltonian             ... done
Starting the Coulomb interaction                   ... done (   2.2 sec)
Reading the grid                                   ... done
Mapping shells                                     ... done
Starting the XC term evaluation                    ... done (   1.7 sec)
  promolecular density results
     # of electrons  =    671.992648866
     EX              =   -782.478460924
     EC              =    -24.663360010
     EX+EC           =   -807.141820933
Transforming the Hamiltonian                       ... done (   0.1 sec)
Diagonalizing the Hamiltonian                      ... done (   0.2 sec)
Back transforming the eigenvectors                 ... done (   0.1 sec)
Now organizing SCF variables                       ... done
                      ------------------
                      INITIAL GUESS DONE (  13.1 sec)
                      ------------------
--------------------
COSX GRID GENERATION
--------------------

General Integration Accuracy     IntAcc      ...  3.340
Radial Grid Type                 RadialGrid  ... Gauss-Chebyshev
Angular Grid (max. acc.)         AngularGrid ... Lebedev-50
Angular grid pruning method      GridPruning ... 3 (G Style)
Weight generation scheme         WeightScheme... Becke
Basis function cutoff            BFCut       ...    1.0000e-11
Integration weight cutoff        WCut        ...    1.0000e-14
Grids for H and He will be reduced by one unit

# of grid points (after initial pruning)     ...  54944 (   0.0 sec)
# of grid points (after weights+screening)   ...  48686 (   0.5 sec)
nearest neighbour list constructed           ...    0.0 sec
Grid point re-assignment to atoms done       ...    0.0 sec
Grid point division into batches done        ...    0.0 sec
Reduced shell lists constructed in    0.2 sec

Total number of grid points                  ...    48686
Total number of batches                      ...      812
Average number of points per batch           ...       59
Average number of grid points per atom       ...      487
Average number of shells per batch           ...   148.39 (26.03%)
Average number of basis functions per batch  ...   317.68 (24.47%)
Average number of large shells per batch     ...    83.50 (56.27%)
Average number of large basis fcns per batch ...   181.15 (57.02%)
Maximum spatial batch extension              ...  17.28, 20.57, 15.18 au
Average spatial batch extension              ...   0.70,  0.80,  0.59 au

Overlap Fitting                  UseSFitting ... on
Constructing numerical overlap ... done (      0.1 sec)
Inverting numerical overlap    ... done (      0.1 sec)
Obtaining analytic overlap     ... done (      0.0 sec)
Final contraction and storage  ... done (      0.1 sec)


General Integration Accuracy     IntAcc      ...  3.670
Radial Grid Type                 RadialGrid  ... Gauss-Chebyshev
Angular Grid (max. acc.)         AngularGrid ... Lebedev-50
Angular grid pruning method      GridPruning ... 3 (G Style)
Weight generation scheme         WeightScheme... Becke
Basis function cutoff            BFCut       ...    1.0000e-11
Integration weight cutoff        WCut        ...    1.0000e-14
Grids for H and He will be reduced by one unit

# of grid points (after initial pruning)     ...  67772 (   0.0 sec)
# of grid points (after weights+screening)   ...  59751 (   0.6 sec)
nearest neighbour list constructed           ...    0.0 sec
Grid point re-assignment to atoms done       ...    0.0 sec
Grid point division into batches done        ...    0.0 sec
Reduced shell lists constructed in    0.2 sec

Total number of grid points                  ...    59751
Total number of batches                      ...      982
Average number of points per batch           ...       60
Average number of grid points per atom       ...      598
Average number of shells per batch           ...   144.27 (25.31%)
Average number of basis functions per batch  ...   308.11 (23.74%)
Average number of large shells per batch     ...    80.91 (56.08%)
Average number of large basis fcns per batch ...   175.30 (56.89%)
Maximum spatial batch extension              ...  19.50, 22.03, 16.85 au
Average spatial batch extension              ...   0.66,  0.72,  0.54 au

Overlap Fitting                  UseSFitting ... on
Constructing numerical overlap ... done (      0.2 sec)
Inverting numerical overlap    ... done (      0.1 sec)
Obtaining analytic overlap     ... done (      0.0 sec)
Final contraction and storage  ... done (      0.1 sec)


General Integration Accuracy     IntAcc      ...  4.010
Radial Grid Type                 RadialGrid  ... Gauss-Chebyshev
Angular Grid (max. acc.)         AngularGrid ... Lebedev-110
Angular grid pruning method      GridPruning ... 3 (G Style)
Weight generation scheme         WeightScheme... Becke
Basis function cutoff            BFCut       ...    1.0000e-11
Integration weight cutoff        WCut        ...    1.0000e-14
Grids for H and He will be reduced by one unit

# of grid points (after initial pruning)     ... 135256 (   0.0 sec)
# of grid points (after weights+screening)   ... 117503 (   1.2 sec)
nearest neighbour list constructed           ...    0.0 sec
Grid point re-assignment to atoms done       ...    0.0 sec
Grid point division into batches done        ...    0.1 sec
Reduced shell lists constructed in    0.5 sec

Total number of grid points                  ...   117503
Total number of batches                      ...     1884
Average number of points per batch           ...       62
Average number of grid points per atom       ...     1175
Average number of shells per batch           ...   135.47 (23.77%)
Average number of basis functions per batch  ...   289.09 (22.27%)
Average number of large shells per batch     ...    76.82 (56.70%)
Average number of large basis fcns per batch ...   165.88 (57.38%)
Maximum spatial batch extension              ...  18.39, 19.09, 16.76 au
Average spatial batch extension              ...   0.57,  0.62,  0.48 au

Overlap Fitting                  UseSFitting ... on
Constructing numerical overlap ... done (      0.3 sec)
Inverting numerical overlap    ... done (      0.1 sec)
Obtaining analytic overlap     ... done (      0.0 sec)
Final contraction and storage  ... done (      0.1 sec)

Time for X-Grid setup             =    4.510 sec
--------------
SCF ITERATIONS
--------------
ITER       Energy         Delta-E        Max-DP      RMS-DP      [F,P]     Damp
               ***  Starting incremental Fock matrix formation  ***
  0 -11242.8364006036   0.000000000000 0.07977873  0.00090469  0.2281567 0.7000
  1 -11243.4566705082  -0.620269904612 0.04470357  0.00063883  0.0980099 0.7000
                               ***Turning on DIIS***
  2 -11243.7199553605  -0.263284852332 0.08478519  0.00116113  0.0320789 0.0000
  3 -11244.1466356529  -0.426680292338 0.05397454  0.00048543  0.0560031 0.0000
  4 -11244.2324809366  -0.085845283702 0.01492651  0.00016185  0.0175805 0.0000
  5 -11244.2384681467  -0.005987210119 0.00939842  0.00007581  0.0097712 0.0000
  6 -11244.2403271079  -0.001858961165 0.00371506  0.00004525  0.0017311 0.0000
  7 -11244.2412860583  -0.000958950430 0.00282393  0.00003633  0.0010970 0.0000
  8 -11244.2419298542  -0.000643795898 0.00557120  0.00007514  0.0008600 0.0000
               *** Restarting incremental Fock matrix formation ***
                                   *** Resetting DIIS ***
                      *** Initiating the SOSCF procedure ***
                           *** Shutting down DIIS ***
                      *** Re-Reading the Fockian *** 
                      *** Removing any level shift *** 
ITER      Energy       Delta-E        Grad      Rot      Max-DP    RMS-DP
  9 -11244.24276107  -0.0008312141  0.001417  0.001417  0.003079  0.000032
               *** Restarting incremental Fock matrix formation ***
 10 -11244.24292116  -0.0001600934  0.001166  0.009602  0.002269  0.000026
 11 -11244.24296121  -0.0000400499  0.000619  0.005193  0.001281  0.000016
 12 -11244.24302877  -0.0000675622  0.000223  0.003778  0.001477  0.000014
 13 -11244.24303187  -0.0000030924  0.000186  0.001149  0.000768  0.000007
 14 -11244.24303952  -0.0000076526  0.000078  0.000788  0.000420  0.000003
 15 -11244.24303969  -0.0000001754  0.000064  0.000184  0.000182  0.000001
 16 -11244.24304052  -0.0000008209  0.000028  0.000345  0.000151  0.000001
 17 -11244.24304044   0.0000000709  0.000020  0.000121  0.000088  0.000001
 18 -11244.24304064  -0.0000001964  0.000010  0.000155  0.000031  0.000000
 19 -11244.24304065  -0.0000000055  0.000005  0.000095  0.000023  0.000000
                  ***Gradient check signals convergence***
              ***Rediagonalizing the Fockian in SOSCF/NRSCF***

               *****************************************************
               *                     SUCCESS                       *
               *           SCF CONVERGED AFTER  20 CYCLES          *
               *****************************************************

Setting up the final grid:

General Integration Accuracy     IntAcc      ...  5.010
Radial Grid Type                 RadialGrid  ... Gauss-Chebyshev
Angular Grid (max. acc.)         AngularGrid ... Lebedev-434
Angular grid pruning method      GridPruning ... 3 (G Style)
Weight generation scheme         WeightScheme... Becke
Basis function cutoff            BFCut       ...    1.0000e-11
Integration weight cutoff        WCut        ...    1.0000e-14
Grids for H and He will be reduced by one unit

# of grid points (after initial pruning)     ... 1015792 (   0.1 sec)
# of grid points (after weights+screening)   ... 848706 (   8.4 sec)
nearest neighbour list constructed           ...    0.0 sec
Grid point re-assignment to atoms done       ...    0.1 sec
Grid point division into batches done        ...    5.6 sec
Reduced shell lists constructed in    7.9 sec

Total number of grid points                  ...   848706
Total number of batches                      ...    13309
Average number of points per batch           ...       63
Average number of grid points per atom       ...     8487
Average number of shells per batch           ...   116.88 (20.51%)
Average number of basis functions per batch  ...   246.06 (18.96%)
Average number of large shells per batch     ...    66.32 (56.74%)
Average number of large basis fcns per batch ...   141.98 (57.70%)
Maximum spatial batch extension              ...  19.89, 22.14, 17.35 au
Average spatial batch extension              ...   0.28,  0.28,  0.26 au

Final grid set up in   16.9 sec
Final integration                            ... done (   3.8 sec)
Change in XC energy                          ...    -0.000192741
Integrated number of electrons               ...   672.000310754
Previous integrated no of electrons          ...   672.001127406
Old exchange energy                            =   -203.368237494 Eh
New exchange energy                            =   -203.365678854 Eh
Exchange energy change after final integration =      0.002558640 Eh
Total energy after final integration           = -11244.240674682 Eh
Final COS-X integration done in                =    91.204 sec

----------------
TOTAL SCF ENERGY
----------------

Total Energy       :       -11244.24067468 Eh         -305971.34404 eV

Components:
Nuclear Repulsion  :        18753.35154844 Eh          510304.63902 eV
Electronic Energy  :       -29997.59222312 Eh         -816275.98306 eV
One Electron Energy:       -52953.61511027 Eh        -1440941.12318 eV
Two Electron Energy:        22956.02288714 Eh          624665.14012 eV

Virial components:
Potential Energy   :       -22447.08051145 Eh         -610816.11401 eV
Kinetic Energy     :        11202.83983677 Eh          304844.76997 eV
Virial Ratio       :            2.00369557


DFT components:
N(Alpha)           :      336.000155376812 electrons
N(Beta)            :      336.000155376812 electrons
N(Total)           :      672.000310753625 electrons
E(XC)              :     -613.191804227003 Eh       
DFET-embed. en.    :        0.000000000000 Eh       

---------------
SCF CONVERGENCE
---------------

  Last Energy change         ...    6.4978e-08  Tolerance :   1.0000e-08
  Last MAX-Density change    ...    8.4377e-15  Tolerance :   1.0000e-07
  Last RMS-Density change    ...    4.2118e-17  Tolerance :   5.0000e-09
  Last Orbital Gradient      ...    2.1620e-06  Tolerance :   1.0000e-05
  Last Orbital Rotation      ...    1.6812e-05  Tolerance :   1.0000e-05

             **** THE GBW FILE WAS UPDATED (xtbopt.gbw) ****
             **** DENSITY FILE WAS UPDATED (xtbopt.scfp) ****
             **** ENERGY FILE WAS UPDATED (xtbopt.en.tmp) ****
             **** THE GBW FILE WAS UPDATED (xtbopt.gbw) ****
             **** DENSITY FILE WAS UPDATED (xtbopt.scfp) ****
----------------
ORBITAL ENERGIES
----------------

  NO   OCC          E(Eh)            E(eV) 
   0   2.0000    -482.885751    -13139.9893 
   1   2.0000    -482.879410    -13139.8168 
   2   2.0000     -88.982305     -2421.3316 
   3   2.0000     -88.980748     -2421.2892 
   4   2.0000     -88.978262     -2421.2216 
   5   2.0000     -88.975243     -2421.1395 
   6   2.0000     -88.969204     -2420.9751 
   7   2.0000     -88.964790     -2420.8550 
   8   2.0000     -62.563473     -1702.4387 
   9   2.0000     -62.557062     -1702.2642 
  10   2.0000     -56.397407     -1534.6515 
  11   2.0000     -56.394722     -1534.5784 
  12   2.0000     -56.394683     -1534.5774 
  13   2.0000     -56.391020     -1534.4777 
  14   2.0000     -56.388314     -1534.4040 
  15   2.0000     -56.388249     -1534.4023 
  16   2.0000     -24.810926      -675.1396 
  17   2.0000     -24.806727      -675.0254 
  18   2.0000     -24.806323      -675.0144 
  19   2.0000     -24.805996      -675.0055 
  20   2.0000     -24.801819      -674.8918 
  21   2.0000     -24.801298      -674.8776 
  22   2.0000     -24.801275      -674.8770 
  23   2.0000     -24.801019      -674.8700 
  24   2.0000     -24.799628      -674.8322 
  25   2.0000     -24.798690      -674.8066 
  26   2.0000     -24.798386      -674.7984 
  27   2.0000     -24.797326      -674.7695 
  28   2.0000     -19.231713      -523.3215 
  29   2.0000     -19.221253      -523.0369 
  30   2.0000     -14.425702      -392.5433 
  31   2.0000     -14.421268      -392.4227 
  32   2.0000     -14.421156      -392.4196 
  33   2.0000     -14.419765      -392.3818 
  34   2.0000     -10.530076      -286.5379 
  35   2.0000     -10.528597      -286.4977 
  36   2.0000     -10.526850      -286.4501 
  37   2.0000     -10.525659      -286.4177 
  38   2.0000     -10.379717      -282.4465 
  39   2.0000     -10.370173      -282.1867 
  40   2.0000     -10.358998      -281.8827 
  41   2.0000     -10.358675      -281.8739 
  42   2.0000     -10.347730      -281.5760 
  43   2.0000     -10.346995      -281.5561 
  44   2.0000     -10.346849      -281.5521 
  45   2.0000     -10.346419      -281.5404 
  46   2.0000     -10.339463      -281.3511 
  47   2.0000     -10.336333      -281.2659 
  48   2.0000     -10.336134      -281.2605 
  49   2.0000     -10.333836      -281.1980 
  50   2.0000     -10.333269      -281.1826 
  51   2.0000     -10.332583      -281.1639 
  52   2.0000     -10.331063      -281.1225 
  53   2.0000     -10.330526      -281.1079 
  54   2.0000     -10.329310      -281.0748 
  55   2.0000     -10.329134      -281.0700 
  56   2.0000     -10.328794      -281.0608 
  57   2.0000     -10.328025      -281.0399 
  58   2.0000     -10.327520      -281.0261 
  59   2.0000     -10.326387      -280.9953 
  60   2.0000     -10.324261      -280.9374 
  61   2.0000     -10.323997      -280.9302 
  62   2.0000     -10.321644      -280.8662 
  63   2.0000     -10.319870      -280.8179 
  64   2.0000     -10.319055      -280.7958 
  65   2.0000     -10.318060      -280.7687 
  66   2.0000     -10.315322      -280.6942 
  67   2.0000     -10.313126      -280.6344 
  68   2.0000     -10.311839      -280.5994 
  69   2.0000     -10.311348      -280.5860 
  70   2.0000     -10.310933      -280.5747 
  71   2.0000     -10.308837      -280.5177 
  72   2.0000     -10.308595      -280.5111 
  73   2.0000     -10.307612      -280.4844 
  74   2.0000     -10.307548      -280.4826 
  75   2.0000     -10.307276      -280.4752 
  76   2.0000     -10.307107      -280.4706 
  77   2.0000     -10.305162      -280.4177 
  78   2.0000     -10.304935      -280.4115 
  79   2.0000     -10.301522      -280.3187 
  80   2.0000     -10.301247      -280.3112 
  81   2.0000     -10.300754      -280.2978 
  82   2.0000     -10.300096      -280.2799 
  83   2.0000     -10.298368      -280.2329 
  84   2.0000     -10.298313      -280.2314 
  85   2.0000     -10.298166      -280.2273 
  86   2.0000     -10.297249      -280.2024 
  87   2.0000     -10.296668      -280.1866 
  88   2.0000     -10.296309      -280.1768 
  89   2.0000     -10.295484      -280.1544 
  90   2.0000      -8.792908      -239.2672 
  91   2.0000      -8.786509      -239.0931 
  92   2.0000      -8.077250      -219.7931 
  93   2.0000      -8.073758      -219.6981 
  94   2.0000      -8.073633      -219.6947 
  95   2.0000      -8.071216      -219.6290 
  96   2.0000      -8.065126      -219.4632 
  97   2.0000      -8.060816      -219.3460 
  98   2.0000      -6.629181      -180.3892 
  99   2.0000      -6.622936      -180.2192 
 100   2.0000      -6.614682      -179.9947 
 101   2.0000      -6.614429      -179.9878 
 102   2.0000      -6.608194      -179.8181 
 103   2.0000      -6.607950      -179.8115 
 104   2.0000      -6.046435      -164.5319 
 105   2.0000      -6.043316      -164.4470 
 106   2.0000      -6.043021      -164.4390 
 107   2.0000      -6.042289      -164.4190 
 108   2.0000      -6.040871      -164.3805 
 109   2.0000      -6.039455      -164.3419 
 110   2.0000      -6.039028      -164.3303 
 111   2.0000      -6.038571      -164.3179 
 112   2.0000      -6.036567      -164.2633 
 113   2.0000      -6.036091      -164.2504 
 114   2.0000      -6.034970      -164.2199 
 115   2.0000      -6.034831      -164.2161 
 116   2.0000      -6.032532      -164.1535 
 117   2.0000      -6.030590      -164.1007 
 118   2.0000      -6.030483      -164.0978 
 119   2.0000      -6.026361      -163.9856 
 120   2.0000      -6.026237      -163.9823 
 121   2.0000      -6.021846      -163.8627 
 122   2.0000      -2.745062       -74.6969 
 123   2.0000      -2.741005       -74.5865 
 124   2.0000      -2.740816       -74.5814 
 125   2.0000      -2.738794       -74.5264 
 126   2.0000      -2.734648       -74.4135 
 127   2.0000      -2.734488       -74.4092 
 128   2.0000      -2.729296       -74.2679 
 129   2.0000      -2.729275       -74.2674 
 130   2.0000      -2.722760       -74.0901 
 131   2.0000      -2.722724       -74.0891 
 132   2.0000      -1.398528       -38.0559 
 133   2.0000      -1.397820       -38.0366 
 134   2.0000      -1.392830       -37.9008 
 135   2.0000      -1.392245       -37.8849 
 136   2.0000      -1.301875       -35.4258 
 137   2.0000      -1.301140       -35.4058 
 138   2.0000      -1.296128       -35.2694 
 139   2.0000      -1.295246       -35.2454 
 140   2.0000      -1.294307       -35.2199 
 141   2.0000      -1.292686       -35.1758 
 142   2.0000      -1.292299       -35.1652 
 143   2.0000      -1.288866       -35.0718 
 144   2.0000      -1.147590       -31.2275 
 145   2.0000      -1.135133       -30.8885 
 146   2.0000      -1.030208       -28.0334 
 147   2.0000      -1.026800       -27.9407 
 148   2.0000      -1.023759       -27.8579 
 149   2.0000      -1.020018       -27.7561 
 150   2.0000      -1.018920       -27.7262 
 151   2.0000      -1.016443       -27.6588 
 152   2.0000      -1.015072       -27.6215 
 153   2.0000      -1.003680       -27.3115 
 154   2.0000      -0.999473       -27.1970 
 155   2.0000      -0.996477       -27.1155 
 156   2.0000      -0.994198       -27.0535 
 157   2.0000      -0.993253       -27.0278 
 158   2.0000      -0.950053       -25.8523 
 159   2.0000      -0.947880       -25.7931 
 160   2.0000      -0.936678       -25.4883 
 161   2.0000      -0.934695       -25.4344 
 162   2.0000      -0.919433       -25.0190 
 163   2.0000      -0.913628       -24.8611 
 164   2.0000      -0.912856       -24.8401 
 165   2.0000      -0.910142       -24.7662 
 166   2.0000      -0.899260       -24.4701 
 167   2.0000      -0.898058       -24.4374 
 168   2.0000      -0.889503       -24.2046 
 169   2.0000      -0.888433       -24.1755 
 170   2.0000      -0.886069       -24.1112 
 171   2.0000      -0.880654       -23.9638 
 172   2.0000      -0.873037       -23.7565 
 173   2.0000      -0.862345       -23.4656 
 174   2.0000      -0.854499       -23.2521 
 175   2.0000      -0.845288       -23.0015 
 176   2.0000      -0.844096       -22.9690 
 177   2.0000      -0.837853       -22.7991 
 178   2.0000      -0.832618       -22.6567 
 179   2.0000      -0.830402       -22.5964 
 180   2.0000      -0.815168       -22.1818 
 181   2.0000      -0.795377       -21.6433 
 182   2.0000      -0.791950       -21.5501 
 183   2.0000      -0.779911       -21.2225 
 184   2.0000      -0.778220       -21.1765 
 185   2.0000      -0.776615       -21.1328 
 186   2.0000      -0.767947       -20.8969 
 187   2.0000      -0.766869       -20.8676 
 188   2.0000      -0.756287       -20.5796 
 189   2.0000      -0.746041       -20.3008 
 190   2.0000      -0.730524       -19.8786 
 191   2.0000      -0.722162       -19.6510 
 192   2.0000      -0.716938       -19.5089 
 193   2.0000      -0.711087       -19.3497 
 194   2.0000      -0.709903       -19.3174 
 195   2.0000      -0.705496       -19.1975 
 196   2.0000      -0.700376       -19.0582 
 197   2.0000      -0.695451       -18.9242 
 198   2.0000      -0.693149       -18.8615 
 199   2.0000      -0.691180       -18.8080 
 200   2.0000      -0.687131       -18.6978 
 201   2.0000      -0.680602       -18.5201 
 202   2.0000      -0.678327       -18.4582 
 203   2.0000      -0.678086       -18.4517 
 204   2.0000      -0.677066       -18.4239 
 205   2.0000      -0.676449       -18.4071 
 206   2.0000      -0.675576       -18.3833 
 207   2.0000      -0.674508       -18.3543 
 208   2.0000      -0.674090       -18.3429 
 209   2.0000      -0.671445       -18.2709 
 210   2.0000      -0.670256       -18.2386 
 211   2.0000      -0.660261       -17.9666 
 212   2.0000      -0.657700       -17.8969 
 213   2.0000      -0.652530       -17.7562 
 214   2.0000      -0.644373       -17.5343 
 215   2.0000      -0.641901       -17.4670 
 216   2.0000      -0.635931       -17.3046 
 217   2.0000      -0.630220       -17.1492 
 218   2.0000      -0.628300       -17.0969 
 219   2.0000      -0.619046       -16.8451 
 220   2.0000      -0.615562       -16.7503 
 221   2.0000      -0.613383       -16.6910 
 222   2.0000      -0.610467       -16.6117 
 223   2.0000      -0.599875       -16.3234 
 224   2.0000      -0.597293       -16.2532 
 225   2.0000      -0.590073       -16.0567 
 226   2.0000      -0.585950       -15.9445 
 227   2.0000      -0.583805       -15.8861 
 228   2.0000      -0.581414       -15.8211 
 229   2.0000      -0.573092       -15.5946 
 230   2.0000      -0.569262       -15.4904 
 231   2.0000      -0.565687       -15.3931 
 232   2.0000      -0.560605       -15.2548 
 233   2.0000      -0.559873       -15.2349 
 234   2.0000      -0.558994       -15.2110 
 235   2.0000      -0.556303       -15.1378 
 236   2.0000      -0.555877       -15.1262 
 237   2.0000      -0.555613       -15.1190 
 238   2.0000      -0.553011       -15.0482 
 239   2.0000      -0.551946       -15.0192 
 240   2.0000      -0.551770       -15.0144 
 241   2.0000      -0.548851       -14.9350 
 242   2.0000      -0.546246       -14.8641 
 243   2.0000      -0.544573       -14.8186 
 244   2.0000      -0.543964       -14.8020 
 245   2.0000      -0.542786       -14.7700 
 246   2.0000      -0.538176       -14.6445 
 247   2.0000      -0.532173       -14.4812 
 248   2.0000      -0.528653       -14.3854 
 249   2.0000      -0.527210       -14.3461 
 250   2.0000      -0.526642       -14.3307 
 251   2.0000      -0.524238       -14.2652 
 252   2.0000      -0.523138       -14.2353 
 253   2.0000      -0.522782       -14.2256 
 254   2.0000      -0.520287       -14.1577 
 255   2.0000      -0.517468       -14.0810 
 256   2.0000      -0.516961       -14.0672 
 257   2.0000      -0.515294       -14.0219 
 258   2.0000      -0.514875       -14.0105 
[...]
  61   4.816     257.4   0.044268   0.039511  -38.681486  -38.108658     0.27 ( 104-> 116)    0.11 ( 104-> 117)    0.08 ( 101-> 116)
  62   4.827     256.9   0.007988   0.007503   4.110550   3.488227     0.33 ( 110-> 118)    0.16 ( 111-> 119)    0.05 ( 107-> 117)
  63   4.842     256.1   0.022716   0.020586  -16.197306  -17.277368     0.29 ( 112-> 125)    0.15 ( 112-> 122)    0.10 ( 112-> 123)
  64   4.869     254.6   0.045513   0.039292  54.300147  50.839904     0.20 (  96-> 113)    0.11 ( 112-> 125)    0.07 ( 106-> 115)
  65   4.895     253.3   0.050403   0.043843  35.230984  33.308561     0.31 ( 111-> 119)    0.22 ( 110-> 118)    0.06 (  97-> 113)
  66   4.930     251.5   0.053583   0.047030  59.363158  55.436671     0.13 ( 105-> 117)    0.13 (  99-> 114)    0.08 ( 110-> 118)
  67   4.980     249.0   0.011270   0.009939   0.408829  -0.179294     0.19 ( 104-> 115)    0.15 (  96-> 113)    0.07 ( 109-> 118)

-----------------------------------------------------------------------------
         ABSORPTION SPECTRUM VIA TRANSITION ELECTRIC DIPOLE MOMENTS
-----------------------------------------------------------------------------
State   Energy  Wavelength   fosc         T2         TX        TY        TZ  
        (cm-1)    (nm)                  (au**2)     (au)      (au)      (au) 
-----------------------------------------------------------------------------
   0    8664.9   1154.1   0.160054390   6.08108   1.25941   1.07626  -1.82665
   1   13138.0    761.2   0.422948606  10.59828  -1.89958   1.68489  -2.03740
   2   17541.5    570.1   0.248432544   4.66249  -1.75008   0.09458   1.26126
   3   19053.7    524.8   0.694240873  11.99520  -2.40639   1.74724  -1.77528
   4   20266.1    493.4   0.404778902   6.57543  -0.30564   1.08481  -2.30330
   5   21321.6    469.0   0.018366890   0.28359  -0.51247  -0.11193  -0.09187
   6   21980.1    455.0   0.318821878   4.77522  -1.45472  -0.16057   1.62273
   7   22831.3    438.0   0.067580756   0.97447  -0.87325   0.14933   0.43543
   8   23154.5    431.9   0.143006472   2.03327  -0.10660   0.56705  -1.30398
   9   23686.4    422.2   0.297826742   4.13942   1.71179   0.10316  -1.09478
  10   24386.4    410.1   0.025633089   0.34604  -0.33762   0.17956   0.44700
  11   24733.5    404.3   0.176809675   2.35340   0.08938  -0.01538  -1.53140
  12   25105.9    398.3   0.377818333   4.95430  -1.14883   0.00961   1.90641
  13   26328.5    379.8   0.127551792   1.59491  -0.91529   0.37162  -0.78680
  14   26543.9    376.7   0.326437546   4.04865   0.06414   0.37736  -1.97538
  15   26714.9    374.3   0.176387673   2.17365  -1.30988   0.67564   0.03723
  16   27295.2    366.4   0.012161611   0.14668   0.11246   0.08291  -0.35660
  17   27551.3    363.0   0.042093744   0.50298   0.61976  -0.03505   0.34300
  18   27937.3    357.9   0.011906564   0.14031   0.30442   0.13658   0.17023
  19   28217.0    354.4   0.198366026   2.31436  -0.81742   0.26310   1.25577
  20   28514.5    350.7   0.021752315   0.25114   0.30413   0.22318   0.32991
  21   28774.8    347.5   0.024759677   0.28327   0.50441   0.16980  -0.00311
  22   29221.9    342.2   0.008128265   0.09157  -0.19323   0.09168  -0.21408
  23   29416.2    339.9   0.124377515   1.39197  -0.31820   0.09032   1.13250
  24   29899.8    334.5   0.065332580   0.71934   0.69458  -0.45458   0.17394
  25   30169.2    331.5   0.006276532   0.06849  -0.17973   0.15640   0.10830
  26   30425.5    328.7   0.022744844   0.24610  -0.05591  -0.13689   0.47354
  27   30722.6    325.5   0.168191712   1.80228   0.77534  -0.35883   1.03555
  28   31034.0    322.2   0.037773618   0.40071  -0.18055   0.24239  -0.55620
  29   31123.9    321.3   0.094686516   1.00154   0.32495  -0.40887   0.85368
  30   31374.8    318.7   0.109941648   1.15360  -0.37507   0.13275  -0.99765
  31   31675.9    315.7   0.115673898   1.20221  -0.18889   0.21552   1.05834
  32   31916.7    313.3   0.051488905   0.53109   0.25223  -0.17776   0.66021
  33   32047.8    312.0   0.008512018   0.08744   0.15081  -0.22503   0.11856
  34   32096.9    311.6   0.001503457   0.01542  -0.05190   0.10828  -0.03164
  35   32358.0    309.0   0.026912671   0.27381  -0.00519  -0.03240  -0.52224
  36   32408.5    308.6   0.061511539   0.62485   0.55093  -0.09536  -0.55878
  37   32768.7    305.2   0.080101739   0.80474  -0.28708   0.22750  -0.81888
  38   33174.0    301.4   0.156831029   1.55636  -0.38702   0.19994  -1.16901
  39   33267.4    300.6   0.073730449   0.72963  -0.33439   0.42037  -0.66416
  40   33367.6    299.7   0.009115732   0.08994  -0.02298  -0.29851  -0.01737
  41   33692.9    296.8   0.026913708   0.26297   0.06276  -0.12997   0.49208
  42   33767.2    296.1   0.067868655   0.66168  -0.09021   0.05532   0.80653
  43   34281.4    291.7   0.002456419   0.02359   0.08557  -0.08688   0.09337
  44   34425.1    290.5   0.017516028   0.16751  -0.23540  -0.32358   0.08595
  45   35064.3    285.2   0.041694774   0.39146   0.14226   0.24781  -0.55661
  46   35653.9    280.5   0.049313681   0.45534  -0.45998   0.07362   0.48820
  47   35869.3    278.8   0.131969154   1.21122   0.19788   0.04469  -1.08170
  48   35971.2    278.0   0.165378172   1.51356  -0.66347   0.12537  -1.02842
  49   36251.6    275.8   0.045223503   0.41069  -0.38388   0.30719   0.41104
  50   36270.4    275.7   0.120159028   1.09063   0.78295  -0.05809  -0.68866
  51   36536.3    273.7   0.105868265   0.95393   0.64340  -0.07255  -0.73123
  52   36861.2    271.3   0.066104169   0.59038  -0.53284   0.28714  -0.47330
  53   37015.4    270.2   0.041052759   0.36512   0.50491  -0.00395  -0.33193
  54   37259.0    268.4   0.053490513   0.47263   0.23663  -0.26782   0.58729
  55   37458.6    267.0   0.128378835   1.12828   0.60510  -0.29894   0.82023
  56   37562.4    266.2   0.010632399   0.09319  -0.14715   0.03325   0.26538
  57   37738.1    265.0   0.120100617   1.04771   0.11172  -0.12648   1.00957
  58   38022.7    263.0   0.027893918   0.24151  -0.47488   0.12220   0.03269
  59   38253.4    261.4   0.238961257   2.05652   1.26134  -0.43064  -0.52923
  60   38413.0    260.3   0.023153052   0.19843   0.43254  -0.07013  -0.08011
  61   38846.3    257.4   0.044268105   0.37516   0.58650  -0.12800   0.12164
  62   38931.1    256.9   0.007987646   0.06755  -0.12369   0.22259   0.05196
  63   39050.8    256.1   0.022715891   0.19150  -0.26425   0.09043   0.33689
  64   39273.5    254.6   0.045512684   0.38151   0.22377  -0.03072  -0.57489
  65   39478.7    253.3   0.050402856   0.42031   0.23686  -0.25435   0.54728
  66   39766.5    251.5   0.053582802   0.44359  -0.58823   0.24638   0.19202
  67   40164.8    249.0   0.011270389   0.09238   0.30198  -0.03164  -0.01365

-----------------------------------------------------------------------------
         ABSORPTION SPECTRUM VIA TRANSITION VELOCITY DIPOLE MOMENTS
-----------------------------------------------------------------------------
State   Energy  Wavelength   fosc         P2         PX        PY        PZ  
        (cm-1)    (nm)                  (au**2)     (au)      (au)      (au) 
-----------------------------------------------------------------------------
   0    8664.9   1154.1   0.443764091   0.02628   0.07889   0.06411  -0.12628
   1   13138.0    761.2   0.646674711   0.05807  -0.13542   0.12441  -0.15573
   2   17541.5    570.1   0.353982615   0.04244  -0.16491   0.00720   0.12326
   3   19053.7    524.8   0.851791678   0.11092  -0.23112   0.16770  -0.17141
   4   20266.1    493.4   0.508506887   0.07043  -0.02850   0.11222  -0.23880
   5   21321.6    469.0   0.020370741   0.00297  -0.05266  -0.01184  -0.00742
   6   21980.1    455.0   0.371461552   0.05580  -0.15664  -0.01851   0.17585
   7   22831.3    438.0   0.072748433   0.01135  -0.09368   0.01615   0.04811
   8   23154.5    431.9   0.160268565   0.02536  -0.01038   0.06301  -0.14589
   9   23686.4    422.2   0.344080116   0.05570   0.19429   0.01449  -0.13320
  10   24386.4    410.1   0.025865130   0.00431  -0.03465   0.01998   0.05207
  11   24733.5    404.3   0.192222870   0.03249   0.00823   0.00160  -0.18006
  12   25105.9    398.3   0.423534760   0.07267  -0.14518   0.00270   0.22713
  13   26328.5    379.8   0.144541220   0.02601  -0.11922   0.04889  -0.09698
  14   26543.9    376.7   0.338375194   0.06139   0.00555   0.04926  -0.24275
  15   26714.9    374.3   0.184483022   0.03368  -0.16367   0.08288   0.00522
  16   27295.2    366.4   0.012862084   0.00240   0.01620   0.00983  -0.04517
  17   27551.3    363.0   0.044074315   0.00830   0.07995  -0.00389   0.04349
  18   27937.3    357.9   0.012483542   0.00238   0.04143   0.01701   0.01944
  19   28217.0    354.4   0.199617008   0.03850  -0.10293   0.03313   0.16372
  20   28514.5    350.7   0.024290312   0.00473   0.04214   0.02738   0.04699
  21   28774.8    347.5   0.025901990   0.00509   0.06842   0.02006   0.00318
  22   29221.9    342.2   0.007433319   0.00148  -0.02511   0.01033  -0.02734
  23   29416.2    339.9   0.121592174   0.02445  -0.04175   0.00920   0.15039
  24   29899.8    334.5   0.066472830   0.01358   0.09535  -0.06221   0.02493
  25   30169.2    331.5   0.006870569   0.00142  -0.02559   0.02386   0.01387
  26   30425.5    328.7   0.023447857   0.00488  -0.00381  -0.02102   0.06648
  27   30722.6    325.5   0.167266131   0.03512   0.11078  -0.05017   0.14259
  28   31034.0    322.2   0.036402328   0.00772  -0.02677   0.03453  -0.07623
  29   31123.9    321.3   0.089535477   0.01905   0.04557  -0.05745   0.11691
  30   31374.8    318.7   0.105192396   0.02256  -0.05236   0.01784  -0.13963
  31   31675.9    315.7   0.109258846   0.02365  -0.02820   0.02997   0.14819
  32   31916.7    313.3   0.051045737   0.01113   0.03689  -0.02779   0.09488
  33   32047.8    312.0   0.007633224   0.00167   0.02001  -0.03179   0.01616
  34   32096.9    311.6   0.001652800   0.00036  -0.00804   0.01525  -0.00809
  35   32358.0    309.0   0.024949995   0.00552   0.00205  -0.00539  -0.07406
  36   32408.5    308.6   0.059573665   0.01320   0.07778  -0.01113  -0.08380
  37   32768.7    305.2   0.078425909   0.01756  -0.03936   0.03563  -0.12143
  38   33174.0    301.4   0.145917324   0.03308  -0.05918   0.03029  -0.16930
  39   33267.4    300.6   0.067965579   0.01545  -0.04678   0.06158  -0.09732
  40   33367.6    299.7   0.009345903   0.00213  -0.00289  -0.04606  -0.00135
  41   33692.9    296.8   0.022939693   0.00528   0.00738  -0.01833   0.06994
  42   33767.2    296.1   0.066094029   0.01525  -0.01225   0.00696   0.12270
  43   34281.4    291.7   0.001884978   0.00044   0.01226  -0.01287   0.01122
  44   34425.1    290.5   0.017083800   0.00402  -0.03504  -0.05054   0.01542
  45   35064.3    285.2   0.033375986   0.00800   0.01791   0.03782  -0.07904
  46   35653.9    280.5   0.042383956   0.01033  -0.06782   0.00976   0.07506
  47   35869.3    278.8   0.121677300   0.02983   0.03138   0.00740  -0.16968
  48   35971.2    278.0   0.148210932   0.03644  -0.10462   0.01806  -0.15864
  49   36251.6    275.8   0.040439100   0.01002  -0.06196   0.04786   0.06237
  50   36270.4    275.7   0.103418425   0.02564   0.12227  -0.00885  -0.10299
  51   36536.3    273.7   0.086335605   0.02156   0.09628  -0.01006  -0.11040
  52   36861.2    271.3   0.057606712   0.01451  -0.08461   0.04459  -0.07326
  53   37015.4    270.2   0.036641791   0.00927   0.07983   0.00014  -0.05382
  54   37259.0    268.4   0.043537253   0.01109   0.03732  -0.04238   0.08887
  55   37458.6    267.0   0.113928063   0.02917   0.09854  -0.04860   0.13075
  56   37562.4    266.2   0.009902109   0.00254  -0.02444   0.00353   0.04396
  57   37738.1    265.0   0.108976963   0.02811   0.02068  -0.02091   0.16505
  58   38022.7    263.0   0.024858417   0.00646  -0.07754   0.01965   0.00779
  59   38253.4    261.4   0.211994345   0.05542   0.20689  -0.06932  -0.08840
  60   38413.0    260.3   0.022313719   0.00586   0.07447  -0.01274  -0.01224
  61   38846.3    257.4   0.039511239   0.01049   0.09785  -0.02141   0.02139
  62   38931.1    256.9   0.007502939   0.00200  -0.02153   0.03856   0.00679
  63   39050.8    256.1   0.020585711   0.00549  -0.04494   0.01357   0.05737
  64   39273.5    254.6   0.039292461   0.01055   0.03532  -0.00312  -0.09638
  65   39478.7    253.3   0.043842655   0.01183   0.04012  -0.04285   0.09157
  66   39766.5    251.5   0.047030197   0.01278  -0.09955   0.04326   0.03163
  67   40164.8    249.0   0.009939246   0.00273   0.05178  -0.00674  -0.00140

-------------------------------------------------------------------
                             CD SPECTRUM
-------------------------------------------------------------------
State   Energy Wavelength       R         MX        MY        MZ   
        (cm-1)   (nm)       (1e40*cgs)   (au)      (au)      (au)  
-------------------------------------------------------------------
   0    8664.9   1154.1    -897.83477   3.26983   6.55030   4.02869
   1   13138.0    761.2    242.38109   2.48278   2.04436  -0.11950
   2   17541.5    570.1    113.41038  -2.14557  -3.55998  -3.09160
   3   19053.7    524.8    450.05960   2.53913   1.03967  -1.34305
   4   20266.1    493.4    114.99686   3.41872   2.48755   0.92975
   5   21321.6    469.0    -28.66110   0.07176  -0.50596  -1.10733
   6   21980.1    455.0    -52.50230  -2.51918  -1.70342  -2.28966
   7   22831.3    438.0      7.50682  -0.34754  -0.12823  -0.72615
   8   23154.5    431.9      0.11934   1.87022   1.40318   0.45768
   9   23686.4    422.2    -63.07276   1.68715   1.52009   2.53684
  10   24386.4    410.1     51.25064   0.20374  -0.10503  -0.29032
  11   24733.5    404.3     30.91111   2.68999   0.94701   0.23312
  12   25105.9    398.3     -4.34140  -2.83444  -1.37810  -1.69147
  13   26328.5    379.8     13.66343   1.14874   0.36796  -1.08888
  14   26543.9    376.7    -97.02505   2.29105   0.85937   0.03018
  15   26714.9    374.3    -17.26921  -0.46764  -0.69740  -1.82897
  16   27295.2    366.4     -5.72285   0.12500   0.40049   0.06446
  17   27551.3    363.0     41.25734  -0.84790  -0.13893   1.00757
  18   27937.3    357.9      4.42801  -0.52125  -0.13338   0.92883
  19   28217.0    354.4    -75.79663  -2.25464  -1.54937  -0.88695
  20   28514.5    350.7    -13.08690  -0.46682   0.28304   0.40715
  21   28774.8    347.5    -28.19286   0.00975   0.70730   1.74135
  22   29221.9    342.2     37.84202   1.09055   0.44868  -0.04230
  23   29416.2    339.9     37.04568  -1.75759  -0.52145  -0.59102
  24   29899.8    334.5     99.58827  -0.77342   0.10395   0.93119
  25   30169.2    331.5     30.69865   0.43205  -0.26985  -0.09583
  26   30425.5    328.7     -6.12058  -0.19342   0.02142   0.03819
  27   30722.6    325.5    -51.09737  -1.81787  -0.52400   1.38884
  28   31034.0    322.2    -67.42046   0.09043  -0.06049  -0.56995
  29   31123.9    321.3     94.81173  -1.54463  -0.17121   0.03480
  30   31374.8    318.7    -55.06514   1.00830   0.74405  -0.51423
  31   31675.9    315.7    -67.13708  -1.17042  -0.62171   0.18682
  32   31916.7    313.3      2.46108  -1.08240  -0.64747   0.22339
  33   32047.8    312.0     26.14021  -0.72088  -0.07712  -0.16475
  34   32096.9    311.6    -12.74360   0.06010   0.61247   0.28884
  35   32358.0    309.0    -44.63588   1.19500  -0.41990  -0.34842
  36   32408.5    308.6     24.22304   1.04442   1.43987   0.96793
  37   32768.7    305.2    -65.91188   1.11125   0.62610  -0.55710
  38   33174.0    301.4     24.48349   2.05343   0.65959  -0.47816
  39   33267.4    300.6      0.56062   1.39615   0.69712  -0.25812
  40   33367.6    299.7    -14.71337  -0.15349  -0.20668   0.16138
  41   33692.9    296.8     21.56351  -0.82596  -0.84635  -0.30409
  42   33767.2    296.1    -34.61376  -1.61458  -0.33439   0.02441
  43   34281.4    291.7      0.01521   0.03327   0.84202   0.75228
  44   34425.1    290.5    -58.90309  -0.35229  -0.66311  -0.55397
  45   35064.3    285.2    -27.88117   1.18689   1.56302   0.78672
  46   35653.9    280.5    -24.03344  -0.57448   0.32768  -0.38185
  47   35869.3    278.8     26.99518   2.47592   1.10946   0.60464
  48   35971.2    278.0    -161.07700   1.50462   0.35996  -1.59126
  49   36251.6    275.8    -31.70914  -0.46652   0.30769  -0.33837
  50   36270.4    275.7      9.14419   1.44174   1.66120   1.55533
  51   36536.3    273.7     42.79716   1.51725   1.31499   1.45283
  52   36861.2    271.3     45.65734   1.25602   1.13776  -0.31454
  53   37015.4    270.2     44.84650   0.40092   0.32046   1.17922
  54   37259.0    268.4     55.05342  -0.90023  -0.58324  -0.30093
  55   37458.6    267.0    -13.54805  -1.72649  -0.82214   1.04411
  56   37562.4    266.2      1.19929  -0.43370  -0.28229  -0.22429
  57   37738.1    265.0     -5.78837  -1.61485  -0.46755   0.14445
  58   38022.7    263.0      6.05416   0.07351   0.25810  -0.68264
  59   38253.4    261.4      8.40847   0.89726   0.30871   1.95469
  60   38413.0    260.3    -30.31311   0.56139   0.50313   0.98544
  61   38846.3    257.4    -38.68149   0.14629   0.48446   1.15349
  62   38931.1    256.9      4.11055  -0.28617  -0.19871  -0.16554
  63   39050.8    256.1    -16.19731  -1.04262  -0.76779  -0.40777
  64   39273.5    254.6     54.30015   0.83167   0.91080   0.67576
  65   39478.7    253.3     35.23098  -1.23916  -0.66765  -0.04709
  66   39766.5    251.5     59.36316  -0.05064  -0.47315  -0.85956
  67   40164.8    249.0      0.40883   0.06320   0.28484   0.86491

sTD-DFT done

Total run time:        4.668 sec

           *** ORCA-CIS/TD-DFT FINISHED WITHOUT ERROR ***

-------------------------   --------------------
FINAL SINGLE POINT ENERGY    -11244.240674682018
-------------------------   --------------------


                            ***************************************
                            *     ORCA property calculations      *
                            ***************************************

                                    ---------------------
                                    Active property flags
                                    ---------------------
   (+) Dipole Moment


------------------------------------------------------------------------------
                       ORCA ELECTRIC PROPERTIES CALCULATION
------------------------------------------------------------------------------

Dipole Moment Calculation                       ... on
Quadrupole Moment Calculation                   ... off
Polarizability Calculation                      ... off
GBWName                                         ... xtbopt.gbw
Electron density file                           ... xtbopt.scfp
The origin for moment calculation is the CENTER OF MASS  = (-6.976494, 13.126361 -1.823897)

-------------
DIPOLE MOMENT
-------------
                                X             Y             Z
Electronic contribution:     75.37446     -34.01030      34.13918
Nuclear contribution   :    -77.83668      35.81240     -35.62773
                        -----------------------------------------
Total Dipole Moment    :     -2.46222       1.80210      -1.48855
                        -----------------------------------------
Magnitude (a.u.)       :      3.39497
Magnitude (Debye)      :      8.62934



--------------------
Rotational spectrum 
--------------------
 
Rotational constants in cm-1:     0.000813     0.000437     0.000315 
Rotational constants in MHz :    24.359342    13.091738     9.443721 

 Dipole components along the rotational axes: 
x,y,z [a.u.] :    -1.685420     2.944367    -0.126141 
x,y,z [Debye]:    -4.283997     7.483986    -0.320625 

 

Timings for individual modules:

Sum of individual times         ...     1020.152 sec (=  17.003 min)
GTO integral calculation        ...        4.171 sec (=   0.070 min)   0.4 %
SCF iterations                  ...     1010.556 sec (=  16.843 min)  99.1 %
CIS module                      ...        5.425 sec (=   0.090 min)   0.5 %
                             ****ORCA TERMINATED NORMALLY****
TOTAL RUN TIME: 0 days 0 hours 17 minutes 1 seconds 222 msec
