
                                 *****************
                                 * O   R   C   A *
                                 *****************

           --- An Ab Initio, DFT and Semiempirical electronic structure package ---

                  #######################################################
                  #                        -***-                        #
                  #          Department of theory and spectroscopy      #
                  #               Directorship: Frank Neese             #
                  #        Max Planck Institute fuer Kohlenforschung    #
                  #                Kaiser Wilhelm Platz 1               #
                  #                 D-45470 Muelheim/Ruhr               #
                  #                      Germany                        #
                  #                                                     #
                  #                  All rights reserved                #
                  #                        -***-                        #
                  #######################################################


                         Program Version 4.2.0 -  RELEASE  -


 With contributions from (in alphabetic order):
   Daniel Aravena         : Magnetic Suceptibility
   Michael Atanasov       : Ab Initio Ligand Field Theory (pilot matlab implementation)
   Alexander A. Auer      : GIAO ZORA, VPT2
   Ute Becker             : Parallelization
   Giovanni Bistoni       : ED, misc. LED, open-shell LED, HFLED
   Martin Brehm           : Molecular dynamics
   Dmytro Bykov           : SCF Hessian
   Vijay G. Chilkuri      : MRCI spin determinant printing, contributions to CSF-ICE
   Dipayan Datta          : RHF DLPNO-CCSD density
   Achintya Kumar Dutta   : EOM-CC, STEOM-CC
   Dmitry Ganyushin       : Spin-Orbit,Spin-Spin,Magnetic field MRCI
   Miquel Garcia          : C-PCM Hessian, Gaussian charge scheme
   Yang Guo               : DLPNO-NEVPT2, CIM, IAO-localization
   Andreas Hansen         : Spin unrestricted coupled pair/coupled cluster methods
   Benjamin Helmich-Paris : CASSCF linear response (MC-RPA)
   Lee Huntington         : MR-EOM, pCC
   Robert Izsak           : Overlap fitted RIJCOSX, COSX-SCS-MP3, EOM
   Christian Kollmar      : KDIIS, OOCD, Brueckner-CCSD(T), CCSD density
   Simone Kossmann        : Meta GGA functionals, TD-DFT gradient, OOMP2, MP2 Hessian
   Martin Krupicka        : AUTO-CI
   Lucas Lang             : DCDCAS
   Dagmar Lenk            : GEPOL surface, SMD
   Dimitrios Liakos       : Extrapolation schemes; Compound Job, initial MDCI parallelization
   Dimitrios Manganas     : Further ROCIS development; embedding schemes
   Dimitrios Pantazis     : SARC Basis sets
   Taras Petrenko         : DFT Hessian,TD-DFT gradient, ASA, ECA, R-Raman, ABS, FL, XAS/XES, NRVS
   Peter Pinski           : DLPNO-MP2, DLPNO-MP2 Gradient
   Christoph Reimann      : Effective Core Potentials
   Marius Retegan         : Local ZFS, SOC
   Christoph Riplinger    : Optimizer, TS searches, QM/MM, DLPNO-CCSD(T), (RO)-DLPNO pert. Triples
   Tobias Risthaus        : Range-separated hybrids, TD-DFT gradient, RPA, STAB
   Michael Roemelt        : Original ROCIS implementation
   Masaaki Saitow         : Open-shell DLPNO-CCSD energy and density
   Barbara Sandhoefer     : DKH picture change effects
   Avijit Sen             : IP-ROCIS
   Kantharuban Sivalingam : CASSCF convergence, NEVPT2, FIC-MRCI
   Bernardo de Souza      : ESD, SOC TD-DFT
   Georgi Stoychev        : AutoAux, RI-MP2 NMR
   Willem Van den Heuvel  : Paramagnetic NMR
   Boris Wezisla          : Elementary symmetry handling
   Frank Wennmohs         : Technical directorship


 We gratefully acknowledge several colleagues who have allowed us to
 interface, adapt or use parts of their codes:
   Stefan Grimme, W. Hujo, H. Kruse,             : VdW corrections, initial TS optimization,
                  C. Bannwarth                     DFT functionals, gCP, sTDA/sTD-DF
   Ed Valeev, F. Pavosevic, A. Kumar             : LibInt (2-el integral package), F12 methods
   Garnet Chan, S. Sharma, J. Yang, R. Olivares  : DMRG
   Ulf Ekstrom                                   : XCFun DFT Library
   Mihaly Kallay                                 : mrcc  (arbitrary order and MRCC methods)
   Andreas Klamt, Michael Diedenhofen            : otool_cosmo (COSMO solvation model)
   Jiri Pittner, Ondrej Demel                    : Mk-CCSD
   Frank Weinhold                                : gennbo (NPA and NBO analysis)
   Christopher J. Cramer and Donald G. Truhlar   : smd solvation model
   Lars Goerigk                                  : TD-DFT with DH, B97 family of functionals
   V. Asgeirsson, H. Jonsson                     : NEB implementation
   FAccTs GmbH                                   : IRC, NEB, NEB-TS, Multilevel, MM, QM/MM, CI optimization
   S Lehtola, MJT Oliveira, MAL Marques          : LibXC Library


 Your calculation uses the libint2 library for the computation of 2-el integrals
 For citations please refer to: http://libint.valeyev.net

 Your ORCA version has been built with support for libXC version: 4.2.3
 For citations please refer to: https://tddft.org/programs/libxc/

 This ORCA versions uses:
   CBLAS   interface :  Fast vector & matrix operations
   LAPACKE interface :  Fast linear algebra routines
   SCALAPACK package :  Parallel linear algebra routines


XCFun DFT library Copyright 2009-2010 Ulf Ekstrom and contributors.
See http://admol.org/xcfun for more information. This is free soft-
ware; see the source code for copying conditions. There is ABSOLUTELY
NO WARRANTY; not even for MERCHANTABILITY or FITNESS FOR A PARTICULAR
PURPOSE. For details see the documentation. Scientific users of this 
library should cite U. Ekstrom, L. Visscher, R. Bast, A. J. Thorvald-
sen and K. Ruud; J.Chem.Theor.Comp. 2010, DOI: 10.1021/ct100117s
XCFun Version 0.99 
----- Orbital basis set information -----
Your calculation utilizes the basis: def2-SVP
   F. Weigend and R. Ahlrichs, Phys. Chem. Chem. Phys. 7, 3297 (2005).

----- AuxJ basis set information -----
Your calculation utilizes the auxiliary basis: def2/J
   F. Weigend, Phys. Chem. Chem. Phys. 8, 1057 (2006).

================================================================================
                                        WARNINGS
                       Please study these warnings very carefully!
================================================================================

INFO   : Checking CIS options ...

WARNING: CIS/ROCIS methods need fully converged wavefunctions
  ===> : Setting SCFConvForced true
         You can overwrite this default with %scf ConvForced false 


INFO   : the flag for use of LIBINT has been found!

================================================================================
                                       INPUT FILE
================================================================================
NAME = xtbopt.inp
|  1> # ORCA input file
|  2> # SCF done       -158.264682646870          0.000541576668
|  3> ! CAM-B3LYP def2-SVP def2/J RIJCOSX Grid4 TightSCF
|  4> %maxcore 5000
|  5> %tddft
|  6>     Mode sTDDFT
|  7>     Ethresh 5.0
|  8>     maxcore 5000
|  9> end
| 10> 
| 11> %pal
| 12>   nprocs 6
| 13>   end
| 14> * xyz 0 1
| 15>    C        0.95726         2.72197         3.13782
| 16>    S        1.14636         1.03876         3.13569
| 17>    C        0.69408         0.90614         1.46576
| 18>    C        0.41457         2.17640         0.93110
| 19>    C        0.54889         3.21537         1.90942
| 20>    C        0.27637         4.55390         1.56144
| 21>    C       -0.11876         4.84160         0.27873
| 22>    C       -0.40680         6.17822        -0.08989
| 23>    N       -0.64006         7.26504        -0.36492
| 24>    C       -0.25070         3.80203        -0.69708
| 25>    C       -0.66601         4.14941        -2.00504
| 26>    N       -1.00817         4.43656        -3.05944
| 27>    C        0.01208         2.48998        -0.37712
| 28>    C        0.68684        -0.32463         0.77010
| 29>    N        0.73622        -0.34438        -0.56174
| 30>    C        0.88716        -1.63167        -0.91099
| 31>    C        0.92978        -2.49811         0.28096
| 32>    C        1.14111        -3.90580        -0.11239
| 33>    O        1.30088        -4.87128         0.60456
| 34>    C        1.17665        -3.82826        -1.57850
| 35>    C        1.04037        -2.42116        -2.02466
| 36>    N        1.09076        -2.34461        -3.37472
| 37>    C        1.22742        -3.58215        -3.78684
| 38>    C        1.27517        -4.56142        -2.71735
| 39>    C        0.74713        -1.68199         1.35849
| 40>    C        0.70942        -2.08841         2.75482
| 41>    C        1.61887        -3.05561         3.11915
| 42>    C        1.69997        -3.52569         4.43563
| 43>    C        0.85248        -2.98341         5.39601
| 44>    C       -0.10320        -2.02042         5.06351
| 45>    C       -0.22211        -1.60435         3.70932
| 46>    C       -1.31304        -0.77989         3.32334
| 47>    C       -2.19188        -0.30791         4.24010
| 48>    C       -2.04463        -0.60344         5.62293
| 49>    C       -1.00581        -1.46561         6.04786
| 50>    C       -0.89763        -1.73852         7.41981
| 51>    C       -1.77293        -1.18920         8.32573
| 52>    C       -2.79991        -0.34565         7.90032
| 53>    C       -2.93139        -0.05865         6.56615
| 54>    C        2.57860        -4.61963         4.75813
| 55>    N        2.34609        -5.41985         5.77931
| 56>    C        3.20612        -6.45079         5.65525
| 57>    C        4.04765        -6.29254         4.45202
| 58>    C        4.98005        -7.42772         4.30845
| 59>    O        5.79218        -7.62482         3.43471
| 60>    C        4.66094        -8.24257         5.49549
| 61>    C        3.57621        -7.61065         6.28379
| 62>    N        3.30632        -8.34190         7.39340
| 63>    C        4.13739        -9.35268         7.34901
| 64>    C        5.02026        -9.34624         6.19809
| 65>    C        3.70438        -5.09350         3.90911
| 66>    C        4.26763        -4.39290         2.78941
| 67>    S        4.88230        -2.78405         2.97781
| 68>    C        5.20597        -2.63037         1.31064
| 69>    C        4.85036        -3.75975         0.60623
| 70>    C        4.33163        -4.79624         1.46101
| 71>    C        3.86400        -6.00366         0.90412
| 72>    C        3.89469        -6.16433        -0.45636
| 73>    C        3.37767        -7.33402        -1.05776
| 74>    N        2.94510        -8.26685        -1.56354
| 75>    C        4.40757        -5.12986        -1.31117
| 76>    C        4.37897        -5.31725        -2.71233
| 77>    N        4.34159        -5.44109        -3.85107
| 78>    C        4.88821        -3.95785        -0.79153
| 79>    H        1.15215         3.28390         4.03031
| 80>    H        0.37390         5.33722         2.29764
| 81>    H       -0.07215         1.70303        -1.11025
| 82>    H        1.30462        -3.80247        -4.83661
| 83>    H        1.37334        -5.62112        -2.84859
| 84>    H        2.23286        -3.49042         2.35239
| 85>    H        0.94098        -3.36359         6.39972
| 86>    H       -1.44839        -0.55628         2.27495
| 87>    H       -3.02573         0.30740         3.93400
| 88>    H       -0.11229        -2.38058         7.78405
| 89>    H       -1.66567        -1.41128         9.37679
| 90>    H       -3.48375         0.07647         8.62096
| 91>    H       -3.72051         0.59301         6.21967
| 92>    H        4.12233       -10.10236         8.12115
| 93>    H        5.77338       -10.07883         5.98553
| 94>    H        5.64104        -1.72841         0.92911
| 95>    H        3.46786        -6.77765         1.54178
| 96>    H        5.26684        -3.18013        -1.43794
| 97> *
| 98> 
| 99>                          ****END OF INPUT****
================================================================================

                       ****************************
                       * Single Point Calculation *
                       ****************************

---------------------------------
CARTESIAN COORDINATES (ANGSTROEM)
---------------------------------
  C      0.957260    2.721970    3.137820
  S      1.146360    1.038760    3.135690
  C      0.694080    0.906140    1.465760
  C      0.414570    2.176400    0.931100
  C      0.548890    3.215370    1.909420
  C      0.276370    4.553900    1.561440
  C     -0.118760    4.841600    0.278730
  C     -0.406800    6.178220   -0.089890
  N     -0.640060    7.265040   -0.364920
  C     -0.250700    3.802030   -0.697080
  C     -0.666010    4.149410   -2.005040
  N     -1.008170    4.436560   -3.059440
  C      0.012080    2.489980   -0.377120
  C      0.686840   -0.324630    0.770100
  N      0.736220   -0.344380   -0.561740
  C      0.887160   -1.631670   -0.910990
  C      0.929780   -2.498110    0.280960
  C      1.141110   -3.905800   -0.112390
  O      1.300880   -4.871280    0.604560
  C      1.176650   -3.828260   -1.578500
  C      1.040370   -2.421160   -2.024660
  N      1.090760   -2.344610   -3.374720
  C      1.227420   -3.582150   -3.786840
  C      1.275170   -4.561420   -2.717350
  C      0.747130   -1.681990    1.358490
  C      0.709420   -2.088410    2.754820
  C      1.618870   -3.055610    3.119150
  C      1.699970   -3.525690    4.435630
  C      0.852480   -2.983410    5.396010
  C     -0.103200   -2.020420    5.063510
  C     -0.222110   -1.604350    3.709320
  C     -1.313040   -0.779890    3.323340
  C     -2.191880   -0.307910    4.240100
  C     -2.044630   -0.603440    5.622930
  C     -1.005810   -1.465610    6.047860
  C     -0.897630   -1.738520    7.419810
  C     -1.772930   -1.189200    8.325730
  C     -2.799910   -0.345650    7.900320
  C     -2.931390   -0.058650    6.566150
  C      2.578600   -4.619630    4.758130
  N      2.346090   -5.419850    5.779310
  C      3.206120   -6.450790    5.655250
  C      4.047650   -6.292540    4.452020
  C      4.980050   -7.427720    4.308450
  O      5.792180   -7.624820    3.434710
  C      4.660940   -8.242570    5.495490
  C      3.576210   -7.610650    6.283790
  N      3.306320   -8.341900    7.393400
  C      4.137390   -9.352680    7.349010
  C      5.020260   -9.346240    6.198090
  C      3.704380   -5.093500    3.909110
  C      4.267630   -4.392900    2.789410
  S      4.882300   -2.784050    2.977810
  C      5.205970   -2.630370    1.310640
  C      4.850360   -3.759750    0.606230
  C      4.331630   -4.796240    1.461010
  C      3.864000   -6.003660    0.904120
  C      3.894690   -6.164330   -0.456360
  C      3.377670   -7.334020   -1.057760
  N      2.945100   -8.266850   -1.563540
  C      4.407570   -5.129860   -1.311170
  C      4.378970   -5.317250   -2.712330
  N      4.341590   -5.441090   -3.851070
  C      4.888210   -3.957850   -0.791530
  H      1.152150    3.283900    4.030310
  H      0.373900    5.337220    2.297640
  H     -0.072150    1.703030   -1.110250
  H      1.304620   -3.802470   -4.836610
  H      1.373340   -5.621120   -2.848590
  H      2.232860   -3.490420    2.352390
  H      0.940980   -3.363590    6.399720
  H     -1.448390   -0.556280    2.274950
  H     -3.025730    0.307400    3.934000
  H     -0.112290   -2.380580    7.784050
  H     -1.665670   -1.411280    9.376790
  H     -3.483750    0.076470    8.620960
  H     -3.720510    0.593010    6.219670
  H      4.122330  -10.102360    8.121150
  H      5.773380  -10.078830    5.985530
  H      5.641040   -1.728410    0.929110
  H      3.467860   -6.777650    1.541780
  H      5.266840   -3.180130   -1.437940

----------------------------
CARTESIAN COORDINATES (A.U.)
----------------------------
  NO LB      ZA    FRAG     MASS         X           Y           Z
   0 C     6.0000    0    12.011    1.808959    5.143778    5.929620
   1 S    16.0000    0    32.060    2.166306    1.962972    5.925595
   2 C     6.0000    0    12.011    1.311621    1.712356    2.769885
   3 C     6.0000    0    12.011    0.783424    4.112800    1.759524
   4 C     6.0000    0    12.011    1.037252    6.076169    3.608281
   5 C     6.0000    0    12.011    0.522264    8.605624    2.950694
   6 C     6.0000    0    12.011   -0.224424    9.149298    0.526723
   7 C     6.0000    0    12.011   -0.768741   11.675144   -0.169867
   8 N     7.0000    0    14.007   -1.209538   13.728936   -0.689599
   9 C     6.0000    0    12.011   -0.473754    7.184795   -1.317290
  10 C     6.0000    0    12.011   -1.258577    7.841249   -3.788976
  11 N     7.0000    0    14.007   -1.905165    8.383883   -5.781504
  12 C     6.0000    0    12.011    0.022828    4.705380   -0.712654
  13 C     6.0000    0    12.011    1.297939   -0.613462    1.455278
  14 N     7.0000    0    14.007    1.391254   -0.650784   -1.061535
  15 C     6.0000    0    12.011    1.676489   -3.083409   -1.721522
  16 C     6.0000    0    12.011    1.757030   -4.720744    0.530937
  17 C     6.0000    0    12.011    2.156385   -7.380892   -0.212386
  18 O     8.0000    0    15.999    2.458307   -9.205385    1.142453
  19 C     6.0000    0    12.011    2.223546   -7.234363   -2.982933
  20 C     6.0000    0    12.011    1.966014   -4.575329   -3.826053
  21 N     7.0000    0    14.007    2.061238   -4.430671   -6.377297
  22 C     6.0000    0    12.011    2.319488   -6.769282   -7.156091
  23 C     6.0000    0    12.011    2.409722   -8.619835   -5.135047
  24 C     6.0000    0    12.011    1.411871   -3.178500    2.567174
  25 C     6.0000    0    12.011    1.340610   -3.946523    5.205855
  26 C     6.0000    0    12.011    3.059221   -5.774266    5.894339
  27 C     6.0000    0    12.011    3.212478   -6.662589    8.382126
  28 C     6.0000    0    12.011    1.610954   -5.637828   10.196981
  29 C     6.0000    0    12.011   -0.195020   -3.818040    9.568647
  30 C     6.0000    0    12.011   -0.419727   -3.031782    7.009599
  31 C     6.0000    0    12.011   -2.481286   -1.473779    6.280202
  32 C     6.0000    0    12.011   -4.142053   -0.581866    8.012628
  33 C     6.0000    0    12.011   -3.863791   -1.140336   10.625798
  34 C     6.0000    0    12.011   -1.900705   -2.769602   11.428799
  35 C     6.0000    0    12.011   -1.696275   -3.285327   14.021409
  36 C     6.0000    0    12.011   -3.350352   -2.247262   15.733350
  37 C     6.0000    0    12.011   -5.291063   -0.653184   14.929441
  38 C     6.0000    0    12.011   -5.539524   -0.110832   12.408225
  39 C     6.0000    0    12.011    4.872848   -8.729836    8.991563
  40 N     7.0000    0    14.007    4.433468  -10.242032   10.921313
  41 C     6.0000    0    12.011    6.058689  -12.190226   10.686874
  42 C     6.0000    0    12.011    7.648950  -11.891177    8.413099
  43 C     6.0000    0    12.011    9.410931  -14.036357    8.141791
  44 O     8.0000    0    15.999   10.945634  -14.408822    6.490661
  45 C     6.0000    0    12.011    8.807900  -15.576200   10.384971
  46 C     6.0000    0    12.011    6.758057  -14.382044   11.874642
  47 N     7.0000    0    14.007    6.248039  -15.763906   13.971501
  48 C     6.0000    0    12.011    7.818534  -17.674004   13.887616
  49 C     6.0000    0    12.011    9.486917  -17.661834   11.712693
  50 C     6.0000    0    12.011    7.000264   -9.625320    7.387147
  51 C     6.0000    0    12.011    8.064652   -8.301378    5.271221
  52 S    16.0000    0    32.060    9.226210   -5.261092    5.627245
  53 C     6.0000    0    12.011    9.837858   -4.970679    2.476751
  54 C     6.0000    0    12.011    9.165852   -7.104898    1.145609
  55 C     6.0000    0    12.011    8.185594   -9.063580    2.760909
  56 C     6.0000    0    12.011    7.301902  -11.345273    1.708539
  57 C     6.0000    0    12.011    7.359897  -11.648895   -0.862395
  58 C     6.0000    0    12.011    6.382871  -13.859289   -1.998877
  59 N     7.0000    0    14.007    5.565432  -15.622082   -2.954662
  60 C     6.0000    0    12.011    8.329100   -9.694031   -2.477752
  61 C     6.0000    0    12.011    8.275054  -10.048146   -5.125561
  62 N     7.0000    0    14.007    8.204416  -10.282170   -7.277468
  63 C     6.0000    0    12.011    9.237378   -7.479253   -1.495775
  64 H     1.0000    0     1.008    2.177248    6.205672    7.616182
  65 H     1.0000    0     1.008    0.706569   10.085884    4.341910
  66 H     1.0000    0     1.008   -0.136344    3.218260   -2.098068
  67 H     1.0000    0     1.008    2.465375   -7.185627   -9.139868
  68 H     1.0000    0     1.008    2.595236  -10.622377   -5.383055
  69 H     1.0000    0     1.008    4.219494   -6.595938    4.445373
  70 H     1.0000    0     1.008    1.778194   -6.356264   12.093718
  71 H     1.0000    0     1.008   -2.737060   -1.051217    4.299032
  72 H     1.0000    0     1.008   -5.717801    0.580902    7.434183
  73 H     1.0000    0     1.008   -0.212197   -4.498644   14.709723
  74 H     1.0000    0     1.008   -3.147660   -2.666933   17.719565
  75 H     1.0000    0     1.008   -6.583333    0.144507   16.291253
  76 H     1.0000    0     1.008   -7.030745    1.120626   11.753473
  77 H     1.0000    0     1.008    7.790075  -19.090694   15.346749
  78 H     1.0000    0     1.008   10.910107  -19.046228   11.311012
  79 H     1.0000    0     1.008   10.660021   -3.266222    1.755763
  80 H     1.0000    0     1.008    6.553306  -12.807902    2.913542
  81 H     1.0000    0     1.008    9.952885   -6.009575   -2.717313

--------------------------------
INTERNAL COORDINATES (ANGSTROEM)
--------------------------------
 C      0   0   0     0.000000000000     0.00000000     0.00000000
 S      1   0   0     1.693800239403     0.00000000     0.00000000
 C      2   1   0     1.735169002633    92.75485922     0.00000000
 C      3   2   1     1.406253043837   110.40635493     0.55098144
 C      1   2   3     1.385343342605   112.68876577     0.38939330
 C      5   1   2     1.409616895366   127.88513253   178.93070381
 C      6   5   1     1.372677657354   119.03559354   179.93028108
 C      7   6   5     1.416121735728   119.97454682   179.55273485
 N      8   7   6     1.145089272022   178.80838155   346.33643604
 C      7   6   5     1.431893538151   120.74217838   359.84014152
 C     10   7   6     1.415596913708   118.59001526   179.77260261
 N     11  10   7     1.145114818741   179.52654956   319.88999877
 C     10   7   6     1.375828089734   121.08252544     0.09296214
 C      3   2   1     1.413785714350   122.78075643   177.75238396
 N     14   3   2     1.332901433903   120.28969957   200.49302795
 C     15  14   3     1.342338999731   106.16165693   172.31070909
 C     16  15  14     1.474204714583   110.88641013     0.34482332
 C     17  16  15     1.476812692084   110.42660988   181.88430712
 O     18  17  16     1.213134529143   128.31913130   175.52810953
 C     18  17  16     1.468589144485   102.65243704   358.27675750
 C     16  15  14     1.373691607713   140.77104479   181.88277146
 N     21  16  15     1.353167047411   141.30568780   357.77687072
 C     22  21  16     1.311496893477   105.30838802   181.96661856
 C     20  18  17     1.358016604648   144.13970727   182.93541623
 C     17  16  15     1.363995519714   106.45120445     2.24508413
 C     25  17  16     1.454763461667   126.48154987   179.83164735
 C     26  25  17     1.376703123916   115.66813980    39.73598767
 C     27  26  25     1.400239981860   121.52868408   179.23616144
 C     28  27  26     1.390912162180   118.88080226   359.01178629
 C     29  28  27     1.396864435978   121.41849605     2.31547183
 C     26  25  17     1.418848996370   124.57009010   222.75725441
 C     31  26  25     1.420859992012   121.28540198     7.54612065
 C     32  31  26     1.354833481871   121.08919207   180.72611124
 C     33  32  31     1.421702976117   121.23552302     0.92202593
 C     34  33  32     1.415291350288   119.64903913   356.49384408
 C     35  34  33     1.403007335334   117.94916930   180.33190815
 C     36  35  34     1.374261110124   121.18141579     0.10735187
 C     37  36  35     1.395434767734   120.62508348     0.24751241
 C     38  37  36     1.371008963975   119.58997031   359.70167637
 C     28  27  26     1.439688039299   120.06916097   174.49033677
 N     40  28  27     1.318037002857   121.81782241   206.54175052
 C     41  40  28     1.348287717106   106.28504458   169.44407825
 C     42  41  40     1.476813541480   110.88588309   359.69339080
 C     43  42  41     1.476013461084   110.90370744   180.56679391
 O     44  43  42     1.209059607505   128.31499376   179.01578983
 C     44  43  42     1.474745970057   102.12029262   359.01889759
 C     42  41  40     1.370147568439   141.01946457   179.04867788
 N     47  42  41     1.356024161547   141.08816400   357.63126173
 C     48  47  42     1.309321971633   105.20234752   182.92126287
 C     46  44  43     1.356777465652   143.99578113   184.85211128
 C     43  42  41     1.360250889579   106.01220048     3.25601379
 C     51  43  42     1.435903552646   129.96597252   175.05846086
 S     52  51  43     1.732544975289   120.49423381   237.00226376
 C     53  52  51     1.705237701964    92.56278556   184.54073111
 C     54  53  52     1.377734047122   112.14791510     0.58087696
 C     52  51  43     1.389757430489   128.44915641    61.61364807
 C     56  52  51     1.409491874897   127.66135268   359.37557902
 C     57  56  52     1.370278276629   119.03130798   173.38981311
 C     58  57  56     1.413211355920   120.75495874   182.97256543
 N     59  58  57     1.145906637645   178.62999742   132.94630552
 C     58  57  56     1.436619020966   120.95235616     0.68546483
 C     61  58  57     1.413924438469   119.14291293   182.15197531
 N     62  61  58     1.146063871519   178.42097645   128.41744354
 C     61  58  57     1.369177847944   121.05619622     0.42629636
 H      1   2   3     1.072513793431   120.09405784   180.50313090
 H      6   5   1     1.079394628160   120.21630390   359.64544877
 H     13  10   7     1.078825561571   121.51259230   180.84042234
 H     23  22  21     1.075415173456   120.50010433   180.68271993
 H     24  20  18     1.072299107759   130.00188613     0.02412902
 H     27  26  25     1.074227328734   118.23236692   355.59520974
 H     29  28  27     1.076941431323   117.11724517   180.17801193
 H     32  31  26     1.080482598981   118.67559604     2.46011429
 H     33  32  31     1.080559775579   120.48134367   180.82974203
 H     36  35  34     1.077808302436   120.16706357   180.75735923
 H     37  36  35     1.079607038510   119.75360554   180.27854012
 H     38  37  36     1.079418570157   119.94172092   179.74266629
 H     39  38  37     1.080471897089   120.55424021   180.03619180
 H     49  48  47     1.076311797575   120.29861069   180.71402464
 H     50  46  44     1.071941974222   129.74039007   356.55093485
 H     54  53  52     1.071626281593   120.06587518   180.78754879
 H     57  56  52     1.078238236801   120.20863037   354.77729436
 H     64  61  58     1.079840249018   120.82381870   180.40696113

---------------------------
INTERNAL COORDINATES (A.U.)
---------------------------
 C      0   0   0     0.000000000000     0.00000000     0.00000000
 S      1   0   0     3.200818578041     0.00000000     0.00000000
 C      2   1   0     3.278994211047    92.75485922     0.00000000
 C      3   2   1     2.657433127845   110.40635493     0.55098144
 C      1   2   3     2.617919518974   112.68876577     0.38939330
 C      5   1   2     2.663789885989   127.88513253   178.93070381
 C      6   5   1     2.593984842552   119.03559354   179.93028108
 C      7   6   5     2.676082252818   119.97454682   179.55273485
 N      8   7   6     2.163905123013   178.80838155   346.33643604
 C      7   6   5     2.705886640038   120.74217838   359.84014152
 C     10   7   6     2.675090482933   118.59001526   179.77260261
 N     11  10   7     2.163953399315   179.52654956   319.88999877
 C     10   7   6     2.599938296953   121.08252544     0.09296214
 C      3   2   1     2.671667812172   122.78075643   177.75238396
 N     14   3   2     2.518818673587   120.28969957   200.49302795
 C     15  14   3     2.536653088374   106.16165693   172.31070909
 C     16  15  14     2.785843175898   110.88641013     0.34482332
 C     17  16  15     2.790771539137   110.42660988   181.88430712
 O     18  17  16     2.292492023685   128.31913130   175.52810953
 C     18  17  16     2.775231286327   102.65243704   358.27675750
 C     16  15  14     2.595900931043   140.77104479   181.88277146
 N     21  16  15     2.557115133054   141.30568780   357.77687072
 C     22  21  16     2.478369954160   105.30838802   181.96661856
 C     20  18  17     2.566279468103   144.13970727   182.93541623
 C     17  16  15     2.577577980155   106.45120445     2.24508413
 C     25  17  16     2.749104532185   126.48154987   179.83164735
 C     26  25  17     2.601591871915   115.66813980    39.73598767
 C     27  26  25     2.646070087483   121.52868408   179.23616144
 C     28  27  26     2.628443062860   118.88080226   359.01178629
 C     29  28  27     2.639691230213   121.41849605     2.31547183
 C     26  25  17     2.681236028528   124.57009010   222.75725441
 C     31  26  25     2.685036259548   121.28540198     7.54612065
 C     32  31  26     2.560264237804   121.08919207   180.72611124
 C     33  32  31     2.686629268642   121.23552302     0.92202593
 C     34  33  32     2.674513051752   119.64903913   356.49384408
 C     35  34  33     2.651299627663   117.94916930   180.33190815
 C     36  35  34     2.596977134633   121.18141579     0.10735187
 C     37  36  35     2.636989548769   120.62508348     0.24751241
 C     38  37  36     2.590831469064   119.58997031   359.70167637
 C     28  27  26     2.720616112557   120.06916097   174.49033677
 N     40  28  27     2.490728969774   121.81782241   206.54175052
 C     41  40  28     2.547894535061   106.28504458   169.44407825
 C     42  41  40     2.790773144264   110.88588309   359.69339080
 C     43  42  41     2.789261211429   110.90370744   180.56679391
 O     44  43  42     2.284791537771   128.31499376   179.01578983
 C     44  43  42     2.786866000512   102.12029262   359.01889759
 C     42  41  40     2.589203667408   141.01946457   179.04867788
 N     47  42  41     2.562514296305   141.08816400   357.63126173
 C     48  47  42     2.474259947512   105.20234752   182.92126287
 C     46  44  43     2.563937834757   143.99578113   184.85211128
 C     43  42  41     2.570501654727   106.01220048     3.25601379
 C     51  43  42     2.713464469225   129.96597252   175.05846086
 S     52  51  43     3.274035517998   120.49423381   237.00226376
 C     53  52  51     3.222432249949    92.56278556   184.54073111
 C     54  53  52     2.603540034440   112.14791510     0.58087696
 C     52  51  43     2.626260936207   128.44915641    61.61364807
 C     56  52  51     2.663553631542   127.66135268   359.37557902
 C     57  56  52     2.589450670089   119.03130798   173.38981311
 C     58  57  56     2.670582432035   120.75495874   182.97256543
 N     59  58  57     2.165449720193   178.62999742   132.94630552
 C     58  57  56     2.714816508407   120.95235616     0.68546483
 C     61  58  57     2.671929962765   119.14291293   182.15197531
 N     62  61  58     2.165746849151   178.42097645   128.41744354
 C     61  58  57     2.587371161245   121.05619622     0.42629636
 H      1   2   3     2.026757344438   120.09405784   180.50313090
 H      6   5   1     2.039760237648   120.21630390   359.64544877
 H     13  10   7     2.038684857644   121.51259230   180.84042234
 H     23  22  21     2.032240158096   120.50010433   180.68271993
 H     24  20  18     2.026351647312   130.00188613     0.02412902
 H     27  26  25     2.029995456882   118.23236692   355.59520974
 H     29  28  27     2.035124367474   117.11724517   180.17801193
 H     32  31  26     2.041816204541   118.67559604     2.46011429
 H     33  32  31     2.041962047176   120.48134367   180.82974203
 H     36  35  34     2.036762516471   120.16706357   180.75735923
 H     37  36  35     2.040161635037   119.75360554   180.27854012
 H     38  37  36     2.039805481466   119.94172092   179.74266629
 H     39  38  37     2.041795980897   120.55424021   180.03619180
 H     49  48  47     2.033934532126   120.29861069   180.71402464
 H     50  46  44     2.025676762735   129.74039007   356.55093485
 H     54  53  52     2.025080190122   120.06587518   180.78754879
 H     57  56  52     2.037574974676   120.20863037   354.77729436
 H     64  61  58     2.040602339030   120.82381870   180.40696113

---------------------
BASIS SET INFORMATION
---------------------
There are 5 groups of distinct atoms

 Group   1 Type C   : 7s4p1d contracted to 3s2p1d pattern {511/31/1}
 Group   2 Type S   : 10s7p1d contracted to 4s3p1d pattern {5311/511/1}
 Group   3 Type N   : 7s4p1d contracted to 3s2p1d pattern {511/31/1}
 Group   4 Type O   : 7s4p1d contracted to 3s2p1d pattern {511/31/1}
 Group   5 Type H   : 4s1p contracted to 2s1p pattern {31/1}

Atom   0C    basis set group =>   1
Atom   1S    basis set group =>   2
Atom   2C    basis set group =>   1
Atom   3C    basis set group =>   1
Atom   4C    basis set group =>   1
Atom   5C    basis set group =>   1
Atom   6C    basis set group =>   1
Atom   7C    basis set group =>   1
Atom   8N    basis set group =>   3
Atom   9C    basis set group =>   1
Atom  10C    basis set group =>   1
Atom  11N    basis set group =>   3
Atom  12C    basis set group =>   1
Atom  13C    basis set group =>   1
Atom  14N    basis set group =>   3
Atom  15C    basis set group =>   1
Atom  16C    basis set group =>   1
Atom  17C    basis set group =>   1
Atom  18O    basis set group =>   4
Atom  19C    basis set group =>   1
Atom  20C    basis set group =>   1
Atom  21N    basis set group =>   3
Atom  22C    basis set group =>   1
Atom  23C    basis set group =>   1
Atom  24C    basis set group =>   1
Atom  25C    basis set group =>   1
Atom  26C    basis set group =>   1
Atom  27C    basis set group =>   1
Atom  28C    basis set group =>   1
Atom  29C    basis set group =>   1
Atom  30C    basis set group =>   1
Atom  31C    basis set group =>   1
Atom  32C    basis set group =>   1
Atom  33C    basis set group =>   1
Atom  34C    basis set group =>   1
Atom  35C    basis set group =>   1
Atom  36C    basis set group =>   1
Atom  37C    basis set group =>   1
Atom  38C    basis set group =>   1
Atom  39C    basis set group =>   1
Atom  40N    basis set group =>   3
Atom  41C    basis set group =>   1
Atom  42C    basis set group =>   1
Atom  43C    basis set group =>   1
Atom  44O    basis set group =>   4
Atom  45C    basis set group =>   1
Atom  46C    basis set group =>   1
Atom  47N    basis set group =>   3
Atom  48C    basis set group =>   1
Atom  49C    basis set group =>   1
Atom  50C    basis set group =>   1
Atom  51C    basis set group =>   1
Atom  52S    basis set group =>   2
Atom  53C    basis set group =>   1
Atom  54C    basis set group =>   1
Atom  55C    basis set group =>   1
Atom  56C    basis set group =>   1
Atom  57C    basis set group =>   1
Atom  58C    basis set group =>   1
Atom  59N    basis set group =>   3
Atom  60C    basis set group =>   1
Atom  61C    basis set group =>   1
Atom  62N    basis set group =>   3
Atom  63C    basis set group =>   1
Atom  64H    basis set group =>   5
Atom  65H    basis set group =>   5
Atom  66H    basis set group =>   5
Atom  67H    basis set group =>   5
Atom  68H    basis set group =>   5
Atom  69H    basis set group =>   5
Atom  70H    basis set group =>   5
Atom  71H    basis set group =>   5
Atom  72H    basis set group =>   5
Atom  73H    basis set group =>   5
Atom  74H    basis set group =>   5
Atom  75H    basis set group =>   5
Atom  76H    basis set group =>   5
Atom  77H    basis set group =>   5
Atom  78H    basis set group =>   5
Atom  79H    basis set group =>   5
Atom  80H    basis set group =>   5
Atom  81H    basis set group =>   5
---------------------------------
AUXILIARY/J BASIS SET INFORMATION
---------------------------------
There are 5 groups of distinct atoms

 Group   1 Type C   : 12s5p4d2f1g contracted to 6s4p3d1f1g pattern {711111/2111/211/2/1}
 Group   2 Type S   : 14s5p5d2f1g contracted to 8s4p3d1f1g pattern {71111111/2111/311/2/1}
 Group   3 Type N   : 12s5p4d2f1g contracted to 6s4p3d1f1g pattern {711111/2111/211/2/1}
 Group   4 Type O   : 12s5p4d2f1g contracted to 6s4p3d1f1g pattern {711111/2111/211/2/1}
 Group   5 Type H   : 5s2p1d contracted to 3s1p1d pattern {311/2/1}

Atom   0C    basis set group =>   1
Atom   1S    basis set group =>   2
Atom   2C    basis set group =>   1
Atom   3C    basis set group =>   1
Atom   4C    basis set group =>   1
Atom   5C    basis set group =>   1
Atom   6C    basis set group =>   1
Atom   7C    basis set group =>   1
Atom   8N    basis set group =>   3
Atom   9C    basis set group =>   1
Atom  10C    basis set group =>   1
Atom  11N    basis set group =>   3
Atom  12C    basis set group =>   1
Atom  13C    basis set group =>   1
Atom  14N    basis set group =>   3
Atom  15C    basis set group =>   1
Atom  16C    basis set group =>   1
Atom  17C    basis set group =>   1
Atom  18O    basis set group =>   4
Atom  19C    basis set group =>   1
Atom  20C    basis set group =>   1
Atom  21N    basis set group =>   3
Atom  22C    basis set group =>   1
Atom  23C    basis set group =>   1
Atom  24C    basis set group =>   1
Atom  25C    basis set group =>   1
Atom  26C    basis set group =>   1
Atom  27C    basis set group =>   1
Atom  28C    basis set group =>   1
Atom  29C    basis set group =>   1
Atom  30C    basis set group =>   1
Atom  31C    basis set group =>   1
Atom  32C    basis set group =>   1
Atom  33C    basis set group =>   1
Atom  34C    basis set group =>   1
Atom  35C    basis set group =>   1
Atom  36C    basis set group =>   1
Atom  37C    basis set group =>   1
Atom  38C    basis set group =>   1
Atom  39C    basis set group =>   1
Atom  40N    basis set group =>   3
Atom  41C    basis set group =>   1
Atom  42C    basis set group =>   1
Atom  43C    basis set group =>   1
Atom  44O    basis set group =>   4
Atom  45C    basis set group =>   1
Atom  46C    basis set group =>   1
Atom  47N    basis set group =>   3
Atom  48C    basis set group =>   1
Atom  49C    basis set group =>   1
Atom  50C    basis set group =>   1
Atom  51C    basis set group =>   1
Atom  52S    basis set group =>   2
Atom  53C    basis set group =>   1
Atom  54C    basis set group =>   1
Atom  55C    basis set group =>   1
Atom  56C    basis set group =>   1
Atom  57C    basis set group =>   1
Atom  58C    basis set group =>   1
Atom  59N    basis set group =>   3
Atom  60C    basis set group =>   1
Atom  61C    basis set group =>   1
Atom  62N    basis set group =>   3
Atom  63C    basis set group =>   1
Atom  64H    basis set group =>   5
Atom  65H    basis set group =>   5
Atom  66H    basis set group =>   5
Atom  67H    basis set group =>   5
Atom  68H    basis set group =>   5
Atom  69H    basis set group =>   5
Atom  70H    basis set group =>   5
Atom  71H    basis set group =>   5
Atom  72H    basis set group =>   5
Atom  73H    basis set group =>   5
Atom  74H    basis set group =>   5
Atom  75H    basis set group =>   5
Atom  76H    basis set group =>   5
Atom  77H    basis set group =>   5
Atom  78H    basis set group =>   5
Atom  79H    basis set group =>   5
Atom  80H    basis set group =>   5
Atom  81H    basis set group =>   5


           ************************************************************
           *        Program running with 6 parallel MPI-processes     *
           *              working on a common directory               *
           ************************************************************
------------------------------------------------------------------------------
                           ORCA GTO INTEGRAL CALCULATION
                           -- RI-GTO INTEGRALS CHOSEN --
------------------------------------------------------------------------------

                         BASIS SET STATISTICS AND STARTUP INFO

Gaussian basis set:
 # of primitive gaussian shells          ...  870
 # of primitive gaussian functions       ... 1686
 # of contracted shells                  ...  442
 # of contracted basis functions         ...  994
 Highest angular momentum                ...    2
 Maximum contraction depth               ...    5
Auxiliary gaussian basis set:
 # of primitive gaussian shells          ... 1686
 # of primitive gaussian functions       ... 4782
 # of contracted shells                  ... 1054
 # of contracted aux-basis functions     ... 3338
 Highest angular momentum                ...    4
 Maximum contraction depth               ...    7
Ratio of auxiliary to basis functions    ...  3.36
Integral package used                  ... LIBINT
 One Electron integrals                  ... done
 Ordering auxiliary basis shells         ... done
 Integral threshhold             Thresh  ...  2.500e-11
 Primitive cut-off               TCut    ...  2.500e-12
 Pre-screening matrix                    ... done
 Shell pair data                         ... 
 Ordering of the shell pairs             ... done (   0.009 sec) 46240 of 97903 pairs
 Determination of significant pairs      ... done (   0.000 sec)
 Creation of shell pair data             ... done (   0.004 sec)
 Storage of shell pair data              ... done (   0.005 sec)
 Shell pair data done in (   0.019 sec)
 Computing two index integrals           ... done
 Cholesky decomposition of the V-matrix  ... done


Timings:
 Total evaluation time                   ...   1.672 sec (  0.028 min)
 One electron matrix time                ...   0.389 sec (  0.006 min) = 23.3%
 Schwartz matrix evaluation time         ...   0.437 sec (  0.007 min) = 26.1%
 Two index repulsion integral time       ...   0.193 sec (  0.003 min) = 11.5%
 Cholesky decomposition of V             ...   0.618 sec (  0.010 min) = 36.9%
 Three index repulsion integral time     ...   0.000 sec (  0.000 min) =  0.0%



           ************************************************************
           *        Program running with 6 parallel MPI-processes     *
           *              working on a common directory               *
           ************************************************************
-------------------------------------------------------------------------------
                                 ORCA SCF
-------------------------------------------------------------------------------

------------
SCF SETTINGS
------------
Hamiltonian:
 Density Functional     Method          .... DFT(GTOs)
 Exchange Functional    Exchange        .... WB88
 Correlation Functional Correlation     .... LYP
 LDA part of GGA corr.  LDAOpt          .... VWN-5
 Gradients option       PostSCFGGA      .... off
 Hybrid DFT is turned on
   Fraction HF Exchange ScalHFX         ....  0.190000
   Scaling of DF-GGA-X  ScalDFX         ....  0.350000
   Scaling of DF-GGA-C  ScalDFC         ....  0.810000
   Scaling of DF-LDA-C  ScalLDAC        ....  1.000000
   Perturbative correction              ....  0.000000
   Density functional embedding theory  .... OFF
 Long-range corrected/Screened/Range-Separated Hybrid DFT is turned on
   Amount of maximum screened exact exchange              ....  0.460000
   Range separation parameter mu (erf(mu*r12)/r12)        ....  0.330000
 RI-approximation to the Coulomb term is turned on
   Number of auxiliary basis functions  .... 3338
   RIJ-COSX (HFX calculated with COS-X)).... on


General Settings:
 Integral files         IntName         .... xtbopt
 Hartree-Fock type      HFTyp           .... RHF
 Total Charge           Charge          ....    0
 Multiplicity           Mult            ....    1
 Number of Electrons    NEL             ....  434
 Basis Dimension        Dim             ....  994
 Nuclear Repulsion      ENuc            ....   9099.3975279655 Eh

Convergence Acceleration:
 DIIS                   CNVDIIS         .... on
   Start iteration      DIISMaxIt       ....    12
   Startup error        DIISStart       ....  0.200000
   # of expansion vecs  DIISMaxEq       ....     5
   Bias factor          DIISBfac        ....   1.050
   Max. coefficient     DIISMaxC        ....  10.000
 Newton-Raphson         CNVNR           .... off
 SOSCF                  CNVSOSCF        .... on
   Start iteration      SOSCFMaxIt      ....   150
   Startup grad/error   SOSCFStart      ....  0.003300
 Level Shifting         CNVShift        .... on
   Level shift para.    LevelShift      ....    0.2500
   Turn off err/grad.   ShiftErr        ....    0.0010
 Zerner damping         CNVZerner       .... off
 Static damping         CNVDamp         .... on
   Fraction old density DampFac         ....    0.7000
   Max. Damping (<1)    DampMax         ....    0.9800
   Min. Damping (>=0)   DampMin         ....    0.0000
   Turn off err/grad.   DampErr         ....    0.1000
 Fernandez-Rico         CNVRico         .... off

SCF Procedure:
 Maximum # iterations   MaxIter         ....   125
 SCF integral mode      SCFMode         .... Direct
   Integral package                     .... LIBINT
 Reset frequency        DirectResetFreq ....    20
 Integral Threshold     Thresh          ....  2.500e-11 Eh
 Primitive CutOff       TCut            ....  2.500e-12 Eh

Convergence Tolerance:
 Convergence Check Mode ConvCheckMode   .... Total+1el-Energy
 Convergence forced     ConvForced      .... 1
 Energy Change          TolE            ....  1.000e-08 Eh
 1-El. energy change                    ....  1.000e-05 Eh
 Orbital Gradient       TolG            ....  1.000e-05
 Orbital Rotation angle TolX            ....  1.000e-05
 DIIS Error             TolErr          ....  5.000e-07


Diagonalization of the overlap matrix:
Smallest eigenvalue                        ... 1.307e-04
Time for diagonalization                   ...    0.477 sec
Threshold for overlap eigenvalues          ... 1.000e-08
Number of eigenvalues below threshold      ... 0
Time for construction of square roots      ...    0.155 sec
Total time needed                          ...    0.633 sec

-------------------
DFT GRID GENERATION
-------------------

General Integration Accuracy     IntAcc      ...  4.670
Radial Grid Type                 RadialGrid  ... Gauss-Chebyshev
Angular Grid (max. acc.)         AngularGrid ... Lebedev-302
Angular grid pruning method      GridPruning ... 3 (G Style)
Weight generation scheme         WeightScheme... Becke
Basis function cutoff            BFCut       ...    1.0000e-11
Integration weight cutoff        WCut        ...    1.0000e-14
Grids for H and He will be reduced by one unit

# of grid points (after initial pruning)     ... 459928 (   0.0 sec)
# of grid points (after weights+screening)   ... 388441 (   2.7 sec)
nearest neighbour list constructed           ...    0.0 sec
Grid point re-assignment to atoms done       ...    0.0 sec
Grid point division into batches done        ...    1.5 sec
Reduced shell lists constructed in    2.2 sec

Total number of grid points                  ...   388441
Total number of batches                      ...     6109
Average number of points per batch           ...       63
Average number of grid points per atom       ...     4737
Average number of shells per batch           ...    92.38 (20.90%)
Average number of basis functions per batch  ...   195.70 (19.69%)
Average number of large shells per batch     ...    54.49 (58.98%)
Average number of large basis fcns per batch ...   118.06 (60.33%)
Maximum spatial batch extension              ...  27.73, 19.80, 19.76 au
Average spatial batch extension              ...   0.39,  0.34,  0.36 au

Time for grid setup =    5.286 sec

------------------------------
INITIAL GUESS: MODEL POTENTIAL
------------------------------
Loading Hartree-Fock densities                     ... done
Calculating cut-offs                               ... done
Setting up the integral package                    ... done
Initializing the effective Hamiltonian             ... done
Starting the Coulomb interaction                   ... done (   1.2 sec)
Reading the grid                                   ... done
Mapping shells                                     ... done
Starting the XC term evaluation                    ... done (   1.1 sec)
  promolecular density results
     # of electrons  =    433.990692975
     EX              =   -389.820835399
     EC              =    -14.927506401
     EX+EC           =   -404.748341801
Transforming the Hamiltonian                       ... done (   0.4 sec)
Diagonalizing the Hamiltonian                      ... done (   0.5 sec)
Back transforming the eigenvectors                 ... done (   0.1 sec)
Now organizing SCF variables                       ... done
                      ------------------
                      INITIAL GUESS DONE (   8.6 sec)
                      ------------------
--------------------
COSX GRID GENERATION
--------------------

General Integration Accuracy     IntAcc      ...  3.340
Radial Grid Type                 RadialGrid  ... Gauss-Chebyshev
Angular Grid (max. acc.)         AngularGrid ... Lebedev-50
Angular grid pruning method      GridPruning ... 3 (G Style)
Weight generation scheme         WeightScheme... Becke
Basis function cutoff            BFCut       ...    1.0000e-11
Integration weight cutoff        WCut        ...    1.0000e-14
Grids for H and He will be reduced by one unit

# of grid points (after initial pruning)     ...  43020 (   0.0 sec)
# of grid points (after weights+screening)   ...  38236 (   0.3 sec)
nearest neighbour list constructed           ...    0.0 sec
Grid point re-assignment to atoms done       ...    0.0 sec
Grid point division into batches done        ...    0.0 sec
Reduced shell lists constructed in    0.1 sec

Total number of grid points                  ...    38236
Total number of batches                      ...      643
Average number of points per batch           ...       59
Average number of grid points per atom       ...      466
Average number of shells per batch           ...   114.83 (25.98%)
Average number of basis functions per batch  ...   244.96 (24.64%)
Average number of large shells per batch     ...    66.45 (57.87%)
Average number of large basis fcns per batch ...   145.31 (59.32%)
Maximum spatial batch extension              ...  17.81, 18.25, 17.44 au
Average spatial batch extension              ...   0.87,  0.63,  0.66 au

Overlap Fitting                  UseSFitting ... on
Constructing numerical overlap ... done (      0.2 sec)
Inverting numerical overlap    ... done (      0.1 sec)
Obtaining analytic overlap     ... done (      0.0 sec)
Final contraction and storage  ... done (      0.2 sec)


General Integration Accuracy     IntAcc      ...  3.670
Radial Grid Type                 RadialGrid  ... Gauss-Chebyshev
Angular Grid (max. acc.)         AngularGrid ... Lebedev-50
Angular grid pruning method      GridPruning ... 3 (G Style)
Weight generation scheme         WeightScheme... Becke
Basis function cutoff            BFCut       ...    1.0000e-11
Integration weight cutoff        WCut        ...    1.0000e-14
Grids for H and He will be reduced by one unit

# of grid points (after initial pruning)     ...  53408 (   0.0 sec)
# of grid points (after weights+screening)   ...  47253 (   0.3 sec)
nearest neighbour list constructed           ...    0.0 sec
Grid point re-assignment to atoms done       ...    0.0 sec
Grid point division into batches done        ...    0.0 sec
Reduced shell lists constructed in    0.1 sec

Total number of grid points                  ...    47253
Total number of batches                      ...      773
Average number of points per batch           ...       61
Average number of grid points per atom       ...      576
Average number of shells per batch           ...   110.94 (25.10%)
Average number of basis functions per batch  ...   236.23 (23.77%)
Average number of large shells per batch     ...    64.49 (58.13%)
Average number of large basis fcns per batch ...   140.98 (59.68%)
Maximum spatial batch extension              ...  19.80, 20.03, 21.79 au
Average spatial batch extension              ...   0.81,  0.60,  0.65 au

Overlap Fitting                  UseSFitting ... on
Constructing numerical overlap ... done (      0.2 sec)
Inverting numerical overlap    ... done (      0.1 sec)
Obtaining analytic overlap     ... done (      0.0 sec)
Final contraction and storage  ... done (      0.2 sec)


General Integration Accuracy     IntAcc      ...  4.010
Radial Grid Type                 RadialGrid  ... Gauss-Chebyshev
Angular Grid (max. acc.)         AngularGrid ... Lebedev-110
Angular grid pruning method      GridPruning ... 3 (G Style)
Weight generation scheme         WeightScheme... Becke
Basis function cutoff            BFCut       ...    1.0000e-11
Integration weight cutoff        WCut        ...    1.0000e-14
Grids for H and He will be reduced by one unit

# of grid points (after initial pruning)     ... 106212 (   0.0 sec)
# of grid points (after weights+screening)   ...  92722 (   0.6 sec)
nearest neighbour list constructed           ...    0.0 sec
Grid point re-assignment to atoms done       ...    0.0 sec
Grid point division into batches done        ...    0.1 sec
Reduced shell lists constructed in    0.3 sec

Total number of grid points                  ...    92722
Total number of batches                      ...     1487
Average number of points per batch           ...       62
Average number of grid points per atom       ...     1131
Average number of shells per batch           ...   103.77 (23.48%)
Average number of basis functions per batch  ...   220.69 (22.20%)
Average number of large shells per batch     ...    60.94 (58.73%)
Average number of large basis fcns per batch ...   133.02 (60.27%)
Maximum spatial batch extension              ...  19.66, 19.10, 20.66 au
Average spatial batch extension              ...   0.67,  0.53,  0.56 au

Overlap Fitting                  UseSFitting ... on
Constructing numerical overlap ... done (      0.4 sec)
Inverting numerical overlap    ... done (      0.1 sec)
Obtaining analytic overlap     ... done (      0.0 sec)
Final contraction and storage  ... done (      0.2 sec)

Time for X-Grid setup             =    3.674 sec
--------------
SCF ITERATIONS
--------------
ITER       Energy         Delta-E        Max-DP      RMS-DP      [F,P]     Damp
               ***  Starting incremental Fock matrix formation  ***
  0  -3372.3715622152   0.000000000000 0.08004000  0.00132156  0.2212848 0.7000
  1  -3372.8810054643  -0.509443249190 0.05480830  0.00094222  0.1003674 0.7000
                               ***Turning on DIIS***
  2  -3373.0967763729  -0.215770908540 0.11022586  0.00167776  0.0362859 0.0000
  3  -3373.4548131800  -0.358036807145 0.06870164  0.00072641  0.0509876 0.0000
  4  -3373.5204540630  -0.065640882964 0.01606570  0.00020879  0.0179743 0.0000
  5  -3373.5257598183  -0.005305755334 0.00686174  0.00007571  0.0050608 0.0000
                      *** Initiating the SOSCF procedure ***
                           *** Shutting down DIIS ***
                      *** Re-Reading the Fockian *** 
                      *** Removing any level shift *** 
ITER      Energy       Delta-E        Grad      Rot      Max-DP    RMS-DP
  6  -3373.52652777  -0.0007679536  0.001818  0.001818  0.003866  0.000042
               *** Restarting incremental Fock matrix formation ***
  7  -3373.52683154  -0.0003037691  0.001294  0.007903  0.002827  0.000039
  8  -3373.52704867  -0.0002171259  0.000716  0.010255  0.004769  0.000057
  9  -3373.52705205  -0.0000033862  0.001047  0.003630  0.002495  0.000025
 10  -3373.52713002  -0.0000779632  0.000173  0.000748  0.000774  0.000009
 11  -3373.52712979   0.0000002228  0.000145  0.000523  0.000375  0.000005
 12  -3373.52713329  -0.0000034973  0.000024  0.000157  0.000206  0.000002
 13  -3373.52713333  -0.0000000394  0.000038  0.000105  0.000091  0.000001
 14  -3373.52713345  -0.0000001167  0.000009  0.000028  0.000033  0.000000
 15  -3373.52713346  -0.0000000151  0.000016  0.000018  0.000021  0.000000
                  ***Gradient check signals convergence***
              ***Rediagonalizing the Fockian in SOSCF/NRSCF***

               *****************************************************
               *                     SUCCESS                       *
               *           SCF CONVERGED AFTER  16 CYCLES          *
               *****************************************************

Setting up the final grid:

General Integration Accuracy     IntAcc      ...  5.010
Radial Grid Type                 RadialGrid  ... Gauss-Chebyshev
Angular Grid (max. acc.)         AngularGrid ... Lebedev-434
Angular grid pruning method      GridPruning ... 3 (G Style)
Weight generation scheme         WeightScheme... Becke
Basis function cutoff            BFCut       ...    1.0000e-11
Integration weight cutoff        WCut        ...    1.0000e-14
Grids for H and He will be reduced by one unit

# of grid points (after initial pruning)     ... 806636 (   0.0 sec)
# of grid points (after weights+screening)   ... 678831 (   5.6 sec)
nearest neighbour list constructed           ...    0.0 sec
Grid point re-assignment to atoms done       ...    0.1 sec
Grid point division into batches done        ...    4.7 sec
Reduced shell lists constructed in    6.0 sec

Total number of grid points                  ...   678831
Total number of batches                      ...    10645
Average number of points per batch           ...       63
Average number of grid points per atom       ...     8278
Average number of shells per batch           ...    90.70 (20.52%)
Average number of basis functions per batch  ...   191.74 (19.29%)
Average number of large shells per batch     ...    53.42 (58.90%)
Average number of large basis fcns per batch ...   115.70 (60.34%)
Maximum spatial batch extension              ...  23.95, 17.29, 19.47 au
Average spatial batch extension              ...   0.31,  0.29,  0.30 au

Final grid set up in   13.9 sec
Final integration                            ... done (   3.6 sec)
Change in XC energy                          ...    -0.000014008
Integrated number of electrons               ...   434.000021347
Previous integrated no of electrons          ...   433.999862329
Old exchange energy                            =   -109.080499944 Eh
New exchange energy                            =   -109.079089677 Eh
Exchange energy change after final integration =      0.001410267 Eh
Total energy after final integration           =  -3373.525737218 Eh
Final COS-X integration done in                =    53.389 sec

----------------
TOTAL SCF ENERGY
----------------

Total Energy       :        -3373.52573722 Eh          -91798.30225 eV

Components:
Nuclear Repulsion  :         9099.39752797 Eh          247607.19484 eV
Electronic Energy  :       -12472.92326518 Eh         -339405.49709 eV
One Electron Energy:       -22717.14042569 Eh         -618164.81788 eV
Two Electron Energy:        10244.21716050 Eh          278759.32079 eV

Virial components:
Potential Energy   :        -6721.63244326 Eh         -182904.91749 eV
Kinetic Energy     :         3348.10670605 Eh           91106.61524 eV
Virial Ratio       :            2.00759206


DFT components:
N(Alpha)           :      217.000010673434 electrons
N(Beta)            :      217.000010673434 electrons
N(Total)           :      434.000021346869 electrons
E(XC)              :     -302.194860902431 Eh       
DFET-embed. en.    :        0.000000000000 Eh       

---------------
SCF CONVERGENCE
---------------

  Last Energy change         ...   -1.4687e-08  Tolerance :   1.0000e-08
  Last MAX-Density change    ...    8.8818e-15  Tolerance :   1.0000e-07
  Last RMS-Density change    ...    3.8778e-17  Tolerance :   5.0000e-09
  Last Orbital Gradient      ...    2.4089e-06  Tolerance :   1.0000e-05
  Last Orbital Rotation      ...    7.3626e-06  Tolerance :   1.0000e-05

             **** THE GBW FILE WAS UPDATED (xtbopt.gbw) ****
             **** DENSITY FILE WAS UPDATED (xtbopt.scfp) ****
             **** ENERGY FILE WAS UPDATED (xtbopt.en.tmp) ****
             **** THE GBW FILE WAS UPDATED (xtbopt.gbw) ****
             **** DENSITY FILE WAS UPDATED (xtbopt.scfp) ****
----------------
ORBITAL ENERGIES
----------------

  NO   OCC          E(Eh)            E(eV) 
   0   2.0000     -89.016471     -2422.2613 
   1   2.0000     -88.998734     -2421.7787 
   2   2.0000     -19.225634      -523.1561 
   3   2.0000     -19.221359      -523.0398 
   4   2.0000     -14.425037      -392.5252 
   5   2.0000     -14.423001      -392.4698 
   6   2.0000     -14.417675      -392.3249 
   7   2.0000     -14.415659      -392.2700 
   8   2.0000     -14.414994      -392.2519 
   9   2.0000     -14.413739      -392.2178 
  10   2.0000     -14.412357      -392.1802 
  11   2.0000     -14.407359      -392.0442 
  12   2.0000     -10.385179      -282.5951 
  13   2.0000     -10.382365      -282.5185 
  14   2.0000     -10.366106      -282.0761 
  15   2.0000     -10.357825      -281.8507 
  16   2.0000     -10.346633      -281.5462 
  17   2.0000     -10.344800      -281.4963 
  18   2.0000     -10.343836      -281.4701 
  19   2.0000     -10.342998      -281.4473 
  20   2.0000     -10.342772      -281.4411 
  21   2.0000     -10.341166      -281.3974 
  22   2.0000     -10.336108      -281.2598 
  23   2.0000     -10.335453      -281.2420 
  24   2.0000     -10.334978      -281.2290 
  25   2.0000     -10.333995      -281.2023 
  26   2.0000     -10.333120      -281.1785 
  27   2.0000     -10.331439      -281.1328 
  28   2.0000     -10.328614      -281.0559 
  29   2.0000     -10.328086      -281.0415 
  30   2.0000     -10.327316      -281.0206 
  31   2.0000     -10.326399      -280.9956 
  32   2.0000     -10.325836      -280.9803 
  33   2.0000     -10.324541      -280.9450 
  34   2.0000     -10.322846      -280.8989 
  35   2.0000     -10.316735      -280.7326 
  36   2.0000     -10.315972      -280.7119 
  37   2.0000     -10.315740      -280.7056 
  38   2.0000     -10.313057      -280.6326 
  39   2.0000     -10.313005      -280.6311 
  40   2.0000     -10.312768      -280.6247 
  41   2.0000     -10.312516      -280.6178 
  42   2.0000     -10.312415      -280.6151 
  43   2.0000     -10.311514      -280.5905 
  44   2.0000     -10.310685      -280.5680 
  45   2.0000     -10.308619      -280.5118 
  46   2.0000     -10.307314      -280.4763 
  47   2.0000     -10.307116      -280.4709 
  48   2.0000     -10.306189      -280.4457 
  49   2.0000     -10.305992      -280.4403 
  50   2.0000     -10.303501      -280.3725 
  51   2.0000     -10.301326      -280.3133 
  52   2.0000     -10.299736      -280.2701 
  53   2.0000     -10.299075      -280.2521 
  54   2.0000     -10.298989      -280.2497 
  55   2.0000     -10.298192      -280.2281 
  56   2.0000     -10.297040      -280.1967 
  57   2.0000     -10.296754      -280.1889 
  58   2.0000     -10.295959      -280.1673 
  59   2.0000     -10.295055      -280.1427 
  60   2.0000     -10.288717      -279.9702 
  61   2.0000     -10.288231      -279.9570 
  62   2.0000     -10.287668      -279.9417 
  63   2.0000     -10.286849      -279.9194 
  64   2.0000      -8.110142      -220.6882 
  65   2.0000      -8.093511      -220.2356 
  66   2.0000      -6.078969      -165.4172 
  67   2.0000      -6.074483      -165.2951 
  68   2.0000      -6.073802      -165.2766 
  69   2.0000      -6.062407      -164.9665 
  70   2.0000      -6.058037      -164.8476 
  71   2.0000      -6.056794      -164.8137 
  72   2.0000      -1.140097       -31.0236 
  73   2.0000      -1.136268       -30.9194 
  74   2.0000      -1.093246       -29.7487 
  75   2.0000      -1.092016       -29.7153 
  76   2.0000      -1.071120       -29.1467 
  77   2.0000      -1.069390       -29.0996 
  78   2.0000      -1.039184       -28.2776 
  79   2.0000      -1.027885       -27.9702 
  80   2.0000      -1.011946       -27.5364 
  81   2.0000      -1.005629       -27.3646 
  82   2.0000      -1.004444       -27.3323 
  83   2.0000      -0.996372       -27.1127 
  84   2.0000      -0.990553       -26.9543 
  85   2.0000      -0.973818       -26.4989 
  86   2.0000      -0.972045       -26.4507 
  87   2.0000      -0.963228       -26.2108 
  88   2.0000      -0.949795       -25.8452 
  89   2.0000      -0.947857       -25.7925 
  90   2.0000      -0.928431       -25.2639 
  91   2.0000      -0.919577       -25.0229 
  92   2.0000      -0.914077       -24.8733 
  93   2.0000      -0.909198       -24.7405 
  94   2.0000      -0.889679       -24.2094 
  95   2.0000      -0.888451       -24.1760 
  96   2.0000      -0.881274       -23.9807 
  97   2.0000      -0.875558       -23.8252 
  98   2.0000      -0.874222       -23.7888 
  99   2.0000      -0.868651       -23.6372 
 100   2.0000      -0.861535       -23.4436 
 101   2.0000      -0.854239       -23.2450 
 102   2.0000      -0.834426       -22.7059 
 103   2.0000      -0.830945       -22.6112 
 104   2.0000      -0.827651       -22.5215 
 105   2.0000      -0.791190       -21.5294 
 106   2.0000      -0.785484       -21.3741 
 107   2.0000      -0.776473       -21.1289 
 108   2.0000      -0.771750       -21.0004 
 109   2.0000      -0.768086       -20.9007 
 110   2.0000      -0.762477       -20.7481 
 111   2.0000      -0.748822       -20.3765 
 112   2.0000      -0.742735       -20.2109 
 113   2.0000      -0.739981       -20.1359 
 114   2.0000      -0.734916       -19.9981 
 115   2.0000      -0.724994       -19.7281 
 116   2.0000      -0.721086       -19.6218 
 117   2.0000      -0.706831       -19.2339 
 118   2.0000      -0.702246       -19.1091 
 119   2.0000      -0.693183       -18.8625 
 120   2.0000      -0.691011       -18.8034 
 121   2.0000      -0.668655       -18.1950 
 122   2.0000      -0.665693       -18.1144 
 123   2.0000      -0.657561       -17.8931 
 124   2.0000      -0.647576       -17.6215 
 125   2.0000      -0.641280       -17.4501 
 126   2.0000      -0.638864       -17.3844 
 127   2.0000      -0.637090       -17.3361 
 128   2.0000      -0.629174       -17.1207 
 129   2.0000      -0.625129       -17.0106 
 130   2.0000      -0.623436       -16.9645 
 131   2.0000      -0.620422       -16.8825 
 132   2.0000      -0.613559       -16.6958 
 133   2.0000      -0.612545       -16.6682 
 134   2.0000      -0.607103       -16.5201 
 135   2.0000      -0.588694       -16.0192 
 136   2.0000      -0.587003       -15.9732 
 137   2.0000      -0.585723       -15.9383 
 138   2.0000      -0.576058       -15.6753 
 139   2.0000      -0.570666       -15.5286 
 140   2.0000      -0.567064       -15.4306 
 141   2.0000      -0.562752       -15.3133 
 142   2.0000      -0.561376       -15.2758 
 143   2.0000      -0.556494       -15.1430 
 144   2.0000      -0.554395       -15.0858 
 145   2.0000      -0.553203       -15.0534 
 146   2.0000      -0.549644       -14.9566 
 147   2.0000      -0.548089       -14.9143 
 148   2.0000      -0.544556       -14.8181 
 149   2.0000      -0.544264       -14.8102 
 150   2.0000      -0.538321       -14.6485 
 151   2.0000      -0.533746       -14.5240 
 152   2.0000      -0.532764       -14.4973 
 153   2.0000      -0.530093       -14.4246 
 154   2.0000      -0.527915       -14.3653 
 155   2.0000      -0.522015       -14.2048 
 156   2.0000      -0.520823       -14.1723 
 157   2.0000      -0.519156       -14.1270 
 158   2.0000      -0.516017       -14.0415 
 159   2.0000      -0.513748       -13.9798 
 160   2.0000      -0.511232       -13.9113 
 161   2.0000      -0.508281       -13.8310 
 162   2.0000      -0.506453       -13.7813 
 163   2.0000      -0.499448       -13.5907 
 164   2.0000      -0.496931       -13.5222 
 165   2.0000      -0.491332       -13.3698 
 166   2.0000      -0.486433       -13.2365 
 167   2.0000      -0.485475       -13.2104 
 168   2.0000      -0.484710       -13.1896 
 169   2.0000      -0.482889       -13.1401 
 170   2.0000      -0.479786       -13.0556 
 171   2.0000      -0.478102       -13.0098 
 172   2.0000      -0.476496       -12.9661 
 173   2.0000      -0.475412       -12.9366 
 174   2.0000      -0.469873       -12.7859 
 175   2.0000      -0.468017       -12.7354 
 176   2.0000      -0.462718       -12.5912 
 177   2.0000      -0.459115       -12.4931 
 178   2.0000      -0.457950       -12.4615 
 179   2.0000      -0.454326       -12.3628 
 180   2.0000      -0.451466       -12.2850 
 181   2.0000      -0.445078       -12.1112 
 182   2.0000      -0.444317       -12.0905 
 183   2.0000      -0.441337       -12.0094 
 184   2.0000      -0.441007       -12.0004 
 185   2.0000      -0.435145       -11.8409 
 186   2.0000      -0.432798       -11.7770 
 187   2.0000      -0.428057       -11.6480 
 188   2.0000      -0.424899       -11.5621 
 189   2.0000      -0.423713       -11.5298 
 190   2.0000      -0.419347       -11.4110 
 191   2.0000      -0.416773       -11.3410 
 192   2.0000      -0.410797       -11.1783 
 193   2.0000      -0.410571       -11.1722 
 194   2.0000      -0.406808       -11.0698 
 195   2.0000      -0.402140       -10.9428 
 196   2.0000      -0.394809       -10.7433 
 197   2.0000      -0.393203       -10.6996 
 198   2.0000      -0.378216       -10.2918 
 199   2.0000      -0.371197       -10.1008 
 200   2.0000      -0.369319       -10.0497 
 201   2.0000      -0.363707        -9.8970 
 202   2.0000      -0.361970        -9.8497 
 203   2.0000      -0.355567        -9.6755 
 204   2.0000      -0.350396        -9.5348 
 205   2.0000      -0.348024        -9.4702 
 206   2.0000      -0.343774        -9.3546 
 207   2.0000      -0.343060        -9.3351 
 208   2.0000      -0.341271        -9.2864 
 209   2.0000      -0.339504        -9.2384 
 210   2.0000      -0.338868        -9.2211 
 211   2.0000      -0.333206        -9.0670 
 212   2.0000      -0.329649        -8.9702 
 213   2.0000      -0.307234        -8.3603 
 214   2.0000      -0.292843        -7.9687 
 215   2.0000      -0.289132        -7.8677 
 216   2.0000      -0.283429        -7.7125 
 217   0.0000      -0.127956        -3.4818 
 218   0.0000      -0.122145        -3.3237 
 219   0.0000      -0.078261        -2.1296 
 220   0.0000      -0.072660        -1.9772 
 221   0.0000      -0.058422        -1.5897 
 222   0.0000      -0.050271        -1.3680 
 223   0.0000      -0.035687        -0.9711 
 224   0.0000      -0.031498        -0.8571 
 225   0.0000      -0.024805        -0.6750 
 226   0.0000      -0.016069        -0.4373 
 227   0.0000       0.003491         0.0950 
 228   0.0000       0.011507         0.3131 
 229   0.0000       0.029401         0.8000 
 230   0.0000       0.037799         1.0286 
 231   0.0000       0.053650         1.4599 
 232   0.0000       0.059769         1.6264 
 233   0.0000       0.067985         1.8500 
 234   0.0000       0.068225         1.8565 
 235   0.0000       0.070797         1.9265 
 236   0.0000       0.073660         2.0044 
 237   0.0000       0.082228         2.2375 
 238   0.0000       0.083571         2.2741 
 239   0.0000       0.089279         2.4294 
 240   0.0000       0.091099         2.4789 
 241   0.0000       0.091673         2.4945 
 242   0.0000       0.098294         2.6747 
 243   0.0000       0.100065         2.7229 
 244   0.0000       0.100739         2.7413 
 245   0.0000       0.114141         3.1059 
 246   0.0000       0.115339         3.1385 
 247   0.0000       0.118368         3.2210 
 248   0.0000       0.122412         3.3310 
 249   0.0000       0.122797         3.3415 
 250   0.0000       0.124792         3.3958 
 251   0.0000       0.127483         3.4690 
 252   0.0000       0.131204         3.5702 
 253   0.0000       0.131857         3.5880 
 254   0.0000       0.137293         3.7359 
 255   0.0000       0.139938         3.8079 
 256   0.0000       0.140489         3.8229 
 257   0.0000       0.143530         3.9056 
 258   0.0000       0.146565         3.9882 
 259   0.0000       0.147588         4.0161 
 260   0.0000       0.150052         4.0831 
 261   0.0000       0.152133         4.1397 
 262   0.0000       0.158585         4.3153 
 263   0.0000       0.159208         4.3323 
 264   0.0000       0.161763         4.4018 
 265   0.0000       0.163581         4.4513 
 266   0.0000       0.166491         4.5305 
 267   0.0000       0.167893         4.5686 
 268   0.0000       0.173382         4.7180 
 269   0.0000       0.182619         4.9693 
 270   0.0000       0.185993         5.0611 
 271   0.0000       0.194784         5.3003 
 272   0.0000       0.200810         5.4643 
 273   0.0000       0.204494         5.5646 
 274   0.0000       0.214020         5.8238 
 275   0.0000       0.222316         6.0495 
 276   0.0000       0.226244         6.1564 
 277   0.0000       0.227038         6.1780 
 278   0.0000       0.234149         6.3715 
 279   0.0000       0.234496         6.3810 
 280   0.0000       0.238215         6.4822 
 281   0.0000       0.242019         6.5857 
 282   0.0000       0.244201         6.6450 
 283   0.0000       0.247579         6.7370 
 284   0.0000       0.250104         6.8057 
 285   0.0000       0.256333         6.9752 
 286   0.0000       0.262446         7.1415 
 287   0.0000       0.264076         7.1859 
 288   0.0000       0.266857         7.2616 
 289   0.0000       0.269029         7.3207 
 290   0.0000       0.270603         7.3635 
 291   0.0000       0.274197         7.4613 
 292   0.0000       0.276915         7.5352 
 293   0.0000       0.278916         7.5897 
 294   0.0000       0.288950         7.8627 
 295   0.0000       0.292128         7.9492 
 296   0.0000       0.292841         7.9686 
 297   0.0000       0.295988         8.0542 
 298   0.0000       0.299104         8.1390 
 299   0.0000       0.300924         8.1885 
 300   0.0000       0.305352         8.3091 
 301   0.0000       0.306782         8.3480 
 302   0.0000       0.308780         8.4023 
 303   0.0000       0.309662         8.4263 
 304   0.0000       0.315564         8.5869 
 305   0.0000       0.319286         8.6882 
 306   0.0000       0.322641         8.7795 
 307   0.0000       0.325909         8.8684 
 308   0.0000       0.329095         8.9551 
 309   0.0000       0.335625         9.1328 
 310   0.0000       0.336496         9.1565 
 311   0.0000       0.339761         9.2454 
 312   0.0000       0.341297         9.2872 
 313   0.0000       0.342576         9.3220 
 314   0.0000       0.348481         9.4827 
 315   0.0000       0.351407         9.5623 
 316   0.0000       0.352432         9.5902 
 317   0.0000       0.354099         9.6355 
 318   0.0000       0.358374         9.7519 
 319   0.0000       0.360014         9.7965 
 320   0.0000       0.361625         9.8403 
 321   0.0000       0.362816         9.8727 
 322   0.0000       0.366653         9.9771 
 323   0.0000       0.368450        10.0260 
 324   0.0000       0.373664        10.1679 
 325   0.0000       0.376671        10.2497 
 326   0.0000       0.377423        10.2702 
 327   0.0000       0.381246        10.3742 
 328   0.0000       0.386531        10.5181 
 329   0.0000       0.387770        10.5518 
 330   0.0000       0.395635        10.7658 
 331   0.0000       0.402172        10.9437 
 332   0.0000       0.404216        10.9993 
 333   0.0000       0.406949        11.0736 
 334   0.0000       0.409510        11.1433 
 335   0.0000       0.412346        11.2205 
 336   0.0000       0.414788        11.2869 
 337   0.0000       0.416595        11.3361 
 338   0.0000       0.419464        11.4142 
 339   0.0000       0.421319        11.4647 
 340   0.0000       0.426932        11.6174 
 341   0.0000       0.428217        11.6524 
 342   0.0000       0.429815        11.6959 
 343   0.0000       0.430627        11.7180 
 344   0.0000       0.433690        11.8013 
 345   0.0000       0.440533        11.9875 
 346   0.0000       0.443872        12.0784 
 347   0.0000       0.447833        12.1862 
 348   0.0000       0.451720        12.2919 
 349   0.0000       0.454203        12.3595 
 350   0.0000       0.456366        12.4184 
 351   0.0000       0.457856        12.4589 
 352   0.0000       0.459776        12.5112 
 353   0.0000       0.464078        12.6282 
 354   0.0000       0.468461        12.7475 
 355   0.0000       0.473608        12.8875 
 356   0.0000       0.476568        12.9681 
 357   0.0000       0.478697        13.0260 
 358   0.0000       0.484052        13.1717 
 359   0.0000       0.485278        13.2051 
 360   0.0000       0.489938        13.3319 
 361   0.0000       0.495058        13.4712 
 362   0.0000       0.497612        13.5407 
 363   0.0000       0.498367        13.5612 
 364   0.0000       0.500331        13.6147 
 365   0.0000       0.503411        13.6985 
 366   0.0000       0.505451        13.7540 
 367   0.0000       0.508675        13.8418 
 368   0.0000       0.510873        13.9016 
 369   0.0000       0.514286        13.9944 
 370   0.0000       0.517749        14.0887 
 371   0.0000       0.518861        14.1189 
 372   0.0000       0.525213        14.2918 
 373   0.0000       0.525614        14.3027 
 374   0.0000       0.527213        14.3462 
 375   0.0000       0.530551        14.4370 
 376   0.0000       0.533079        14.5058 
 377   0.0000       0.535234        14.5645 
 378   0.0000       0.535836        14.5808 
 379   0.0000       0.538290        14.6476 
 380   0.0000       0.539931        14.6923 
 381   0.0000       0.542374        14.7588 
 382   0.0000       0.546068        14.8593 
 383   0.0000       0.546119        14.8607 
 384   0.0000       0.551192        14.9987 
 385   0.0000       0.552719        15.0402 
 386   0.0000       0.554364        15.0850 
 387   0.0000       0.556762        15.1503 
 388   0.0000       0.560810        15.2604 
 389   0.0000       0.563435        15.3318 
 390   0.0000       0.566703        15.4208 
 391   0.0000       0.569842        15.5062 
 392   0.0000       0.573166        15.5966 
 393   0.0000       0.576878        15.6976 
 394   0.0000       0.578822        15.7505 
 395   0.0000       0.580498        15.7962 
 396   0.0000       0.586066        15.9477 
 397   0.0000       0.587813        15.9952 
 398   0.0000       0.590029        16.0555 
 399   0.0000       0.592836        16.1319 
 400   0.0000       0.595262        16.1979 
 401   0.0000       0.598389        16.2830 
 402   0.0000       0.602918        16.4062 
 403   0.0000       0.604735        16.4557 
 404   0.0000       0.609642        16.5892 
 405   0.0000       0.610264        16.6061 
 406   0.0000       0.616040        16.7633 
 407   0.0000       0.617551        16.8044 
 408   0.0000       0.620000        16.8711 
 409   0.0000       0.623633        16.9699 
 410   0.0000       0.625303        17.0154 
 411   0.0000       0.626535        17.0489 
 412   0.0000       0.629843        17.1389 
 413   0.0000       0.632675        17.2160 
 414   0.0000       0.634952        17.2779 
 415   0.0000       0.640806        17.4372 
 416   0.0000       0.641226        17.4486 
 417   0.0000       0.644343        17.5335 
 418   0.0000       0.646074        17.5806 
 419   0.0000       0.651802        17.7364 
 420   0.0000       0.653173        17.7737 
 421   0.0000       0.653850        17.7922 
 422   0.0000       0.659813        17.9544 
 423   0.0000       0.661938        18.0123 
 424   0.0000       0.663646        18.0587 
 425   0.0000       0.668911        18.2020 
[...]
  48   4.647     266.8   0.152703   0.130205  29.381269  20.977330     0.40 (  81->  88)    0.13 (  80->  88)    0.06 (  79->  87)
  49   4.702     263.7   0.052921   0.046303  -2.149950  -6.695313     0.46 (  82->  89)    0.06 (  77->  86)    0.05 (  75->  86)
  50   4.727     262.3   0.040697   0.038095   0.574464   0.584728     0.37 (  79->  87)    0.09 (  82->  89)    0.06 (  77->  87)
  51   4.743     261.4   0.005712   0.004275  17.016997  14.342838     0.56 (  66->  83)    0.11 (  69->  83)    0.07 (  79->  87)
  52   4.769     260.0   0.030313   0.026492  -12.772573  -12.047124     0.32 (  71->  84)    0.29 (  70->  84)    0.08 (  78->  85)
  53   4.803     258.1   0.024364   0.021004  -9.061959  -4.630456     0.35 (  72->  86)    0.14 (  75->  86)    0.09 (  82->  89)
  54   4.834     256.5   0.011374   0.010321  -5.533027  -6.212618     0.45 (  81->  89)    0.16 (  64->  84)    0.03 (  77->  85)
  55   4.858     255.2   0.134009   0.121088  -27.198044  -26.155726     0.13 (  78->  85)    0.12 (  80->  89)    0.08 (  77->  85)
  56   4.872     254.5   0.114198   0.096566  92.562092  85.026293     0.25 (  64->  83)    0.13 (  63->  83)    0.11 (  62->  83)
  57   4.910     252.5   0.014330   0.013452  19.575888  18.106479     0.15 (  68->  84)    0.12 (  68->  87)    0.08 (  72->  87)
  58   4.918     252.1   0.024428   0.023517  -37.324744  -36.116171     0.10 (  68->  87)    0.09 (  72->  86)    0.07 (  76->  85)
  59   4.929     251.5   0.087598   0.079146  72.446570  72.603138     0.10 (  75->  86)    0.08 (  77->  86)    0.06 (  65->  84)
  60   4.941     251.0   0.024022   0.017903  22.600504  19.323215     0.16 (  64->  84)    0.15 (  68->  84)    0.07 (  72->  85)
  61   4.978     249.1   0.007019   0.006010  14.707663  13.822847     0.14 (  68->  84)    0.08 (  82->  90)    0.07 (  77->  85)
  62   4.993     248.3   0.032552   0.026400  13.909970  13.655034     0.08 (  82->  90)    0.07 (  78->  85)    0.07 (  64->  83)

-----------------------------------------------------------------------------
         ABSORPTION SPECTRUM VIA TRANSITION ELECTRIC DIPOLE MOMENTS
-----------------------------------------------------------------------------
State   Energy  Wavelength   fosc         T2         TX        TY        TZ  
        (cm-1)    (nm)                  (au**2)     (au)      (au)      (au) 
-----------------------------------------------------------------------------
   0   17632.5    567.1   0.050244573   0.93811  -0.14995   0.86926  -0.40001
   1   17760.8    563.0   0.037182166   0.68920  -0.06174  -0.42590   0.70993
   2   18324.7    545.7   0.013657800   0.24537   0.05342  -0.44332   0.21445
   3   20253.8    493.7   0.505857813   8.22238   0.10124   2.35167   1.63762
   4   21385.0    467.6   0.645853969   9.94263   1.59274  -2.71306  -0.21250
   5   22432.1    445.8   0.006562751   0.09631   0.19755   0.11006   0.21254
   6   22471.4    445.0   0.086473001   1.26685  -0.61350   0.93624  -0.11800
   7   23079.4    433.3   0.015334823   0.21874  -0.04995  -0.36528  -0.28778
   8   23999.2    416.7   0.199192955   2.73246  -0.84710   1.29903  -0.57219
   9   24922.4    401.2   0.012136903   0.16032  -0.14335   0.13011  -0.35049
  10   25001.4    400.0   0.013324651   0.17546  -0.05513   0.41342  -0.03877
  11   25874.1    386.5   0.039962535   0.50847   0.51781  -0.42884  -0.23757
  12   26065.6    383.6   0.000589380   0.00744  -0.00083  -0.08401   0.01965
  13   26589.7    376.1   0.003119197   0.03862   0.01006   0.01307  -0.19582
  14   27088.5    369.2   0.000254241   0.00309   0.04481  -0.02741   0.01817
  15   27397.8    365.0   0.078882455   0.94785   0.44245   0.33141  -0.80141
  16   28022.0    356.9   0.006692905   0.07863   0.27633   0.03288  -0.03452
  17   28253.1    353.9   0.040271155   0.46925  -0.09062  -0.21626   0.64364
  18   28433.9    351.7   0.031547561   0.36526  -0.05421   0.47305  -0.37222
  19   28883.7    346.2   0.321083439   3.65966  -0.31755  -0.79410   1.71121
  20   29436.9    339.7   0.014464042   0.16176   0.13965  -0.18936  -0.32620
  21   29591.1    337.9   0.047378177   0.52710   0.02813   0.52348   0.50228
  22   29956.6    333.8   0.038867301   0.42714  -0.16991  -0.27707   0.56701
  23   30093.0    332.3   0.016732660   0.18305   0.01080  -0.24380  -0.35142
  24   30740.4    325.3   0.182200873   1.95127   0.47939  -1.10667   0.70479
  25   30765.0    325.0   0.062111578   0.66465  -0.15643   0.75293  -0.27071
  26   31254.0    320.0   0.064646217   0.68095  -0.40515   0.71884  -0.00782
  27   31418.7    318.3   0.018849585   0.19751   0.18325  -0.29805  -0.27404
  28   31481.8    317.6   0.024640252   0.25767   0.15653  -0.44238   0.19357
  29   31641.0    316.0   0.014285031   0.14863  -0.18570  -0.11134   0.31898
  30   32089.6    311.6   0.216860361   2.22480  -0.75544   0.94835  -0.86876
  31   32267.0    309.9   0.026716742   0.27258   0.33565  -0.36092  -0.17223
  32   32631.4    306.5   0.117958696   1.19006   0.01880   0.01297   1.09066
  33   32664.4    306.1   0.044957132   0.45311   0.07646  -0.32393  -0.58509
  34   32789.2    305.0   0.032879610   0.33012  -0.22405   0.52600   0.05697
  35   32965.4    303.3   0.093158820   0.93034   0.42918  -0.65695   0.56086
  36   33335.6    300.0   0.069917955   0.69049   0.31476  -0.51183   0.57398
  37   33434.1    299.1   0.029661716   0.29207  -0.21832   0.32913   0.36888
  38   34248.0    292.0   0.024477826   0.23529   0.04021  -0.31549  -0.36626
  39   34637.8    288.7   0.001312205   0.01247   0.02901  -0.08362  -0.06810
  40   34690.4    288.3   0.123597091   1.17293  -0.15060   0.79306   0.72202
  41   34780.1    287.5   0.008566641   0.08109   0.03883  -0.13701  -0.24660
  42   35257.7    283.6   0.068399728   0.63867  -0.35821   0.50186  -0.50842
  43   36346.6    275.1   0.092169224   0.83483  -0.49038   0.74274  -0.20664
  44   36791.5    271.8   0.021186359   0.18958   0.04851  -0.36009  -0.23991
  45   36901.9    271.0   0.000775306   0.00692  -0.04630  -0.02219  -0.06542
  46   37126.5    269.3   0.018408773   0.16324   0.16738  -0.24802  -0.27149
  47   37384.6    267.5   0.022364744   0.19695   0.07260   0.42091   0.12045
  48   37480.1    266.8   0.152703380   1.34129  -0.84482   0.60082   0.51632
  49   37928.0    263.7   0.052921297   0.45935   0.34561  -0.41223  -0.41228
  50   38122.1    262.3   0.040697196   0.35145  -0.12208   0.56311   0.13947
  51   38254.4    261.4   0.005712017   0.04916   0.03177   0.19123  -0.10761
  52   38464.9    260.0   0.030313297   0.25944  -0.16803   0.33857   0.34143
  53   38738.2    258.1   0.024364089   0.20706  -0.07953   0.03847   0.44637
  54   38988.5    256.5   0.011373801   0.09604  -0.01709   0.00036  -0.30943
  55   39185.3    255.2   0.134009370   1.12587  -0.26048   1.01720  -0.15269
  56   39293.4    254.5   0.114198431   0.95679  -0.17732   0.91754  -0.28889
  57   39600.1    252.5   0.014330237   0.11913  -0.00528  -0.03171  -0.34366
  58   39666.8    252.1   0.024427881   0.20274   0.19012   0.02650   0.40729
  59   39753.7    251.5   0.087597772   0.72542   0.28992  -0.16062   0.78458
  60   39848.1    251.0   0.024021726   0.19846  -0.07842   0.25283  -0.35831
  61   40148.7    249.1   0.007018791   0.05755  -0.02962  -0.02007   0.23722
  62   40274.6    248.3   0.032551933   0.26609  -0.33777   0.18126   0.34517

-----------------------------------------------------------------------------
         ABSORPTION SPECTRUM VIA TRANSITION VELOCITY DIPOLE MOMENTS
-----------------------------------------------------------------------------
State   Energy  Wavelength   fosc         P2         PX        PY        PZ  
        (cm-1)    (nm)                  (au**2)     (au)      (au)      (au) 
-----------------------------------------------------------------------------
   0   17632.5    567.1   0.057650506   0.00695  -0.01103   0.07475  -0.03518
   1   17760.8    563.0   0.048273102   0.00586  -0.00699  -0.03908   0.06545
   2   18324.7    545.7   0.020124157   0.00252   0.00472  -0.04380   0.02408
   3   20253.8    493.7   0.601441993   0.08325   0.00637   0.23788   0.16317
   4   21385.0    467.6   0.720219146   0.10526   0.16320  -0.27917  -0.02634
   5   22432.1    445.8   0.007949981   0.00122   0.02338   0.01151   0.02323
   6   22471.4    445.0   0.089358949   0.01372  -0.06498   0.09667  -0.01254
   7   23079.4    433.3   0.015256486   0.00241  -0.00512  -0.03613  -0.03279
   8   23999.2    416.7   0.200311170   0.03286  -0.09378   0.14289  -0.06035
   9   24922.4    401.2   0.012537206   0.00214  -0.01624   0.01746  -0.03958
  10   25001.4    400.0   0.009284996   0.00159  -0.00474   0.03955   0.00021
  11   25874.1    386.5   0.031112235   0.00550   0.05258  -0.04801  -0.02079
  12   26065.6    383.6   0.000515319   0.00009  -0.00005  -0.00900   0.00329
  13   26589.7    376.1   0.003337059   0.00061  -0.00117   0.00020  -0.02460
  14   27088.5    369.2   0.000716275   0.00013   0.00726  -0.00802   0.00396
  15   27397.8    365.0   0.069360160   0.01299   0.05053   0.03927  -0.09430
  16   28022.0    356.9   0.005553962   0.00106   0.03222  -0.00047  -0.00502
  17   28253.1    353.9   0.040332048   0.00779  -0.01537  -0.02616   0.08287
  18   28433.9    351.7   0.028731366   0.00558  -0.00837   0.05675  -0.04788
  19   28883.7    346.2   0.302827114   0.05978  -0.04051  -0.09796   0.22032
  20   29436.9    339.7   0.014529776   0.00292   0.01966  -0.02810  -0.04180
  21   29591.1    337.9   0.044215912   0.00894   0.00593   0.06914   0.06424
  22   29956.6    333.8   0.040006271   0.00819  -0.02732  -0.03529   0.07873
  23   30093.0    332.3   0.015239380   0.00313   0.00361  -0.03369  -0.04457
  24   30740.4    325.3   0.155871995   0.03275   0.06498  -0.14239   0.09084
  25   30765.0    325.0   0.059182442   0.01244  -0.02220   0.10297  -0.03672
  26   31254.0    320.0   0.058453360   0.01249  -0.05627   0.09653  -0.00039
  27   31418.7    318.3   0.017191417   0.00369   0.02535  -0.04054  -0.03749
  28   31481.8    317.6   0.022182707   0.00477   0.02199  -0.05947   0.02744
  29   31641.0    316.0   0.013435142   0.00291  -0.02514  -0.01181   0.04620
  30   32089.6    311.6   0.198621266   0.04356  -0.10261   0.13479  -0.12192
  31   32267.0    309.9   0.025979012   0.00573   0.04627  -0.05553  -0.02246
  32   32631.4    306.5   0.106110758   0.02366   0.00129   0.00785   0.15363
  33   32664.4    306.1   0.043985868   0.00982   0.01151  -0.04772  -0.08608
  34   32789.2    305.0   0.033109810   0.00742  -0.03071   0.08020   0.00664
  35   32965.4    303.3   0.084424266   0.01902   0.06038  -0.09539   0.07922
  36   33335.6    300.0   0.058758936   0.01339   0.04671  -0.06990   0.07949
  37   33434.1    299.1   0.027998913   0.00640  -0.03151   0.04960   0.05427
  38   34248.0    292.0   0.024403687   0.00571   0.00722  -0.05011  -0.05612
  39   34637.8    288.7   0.001226060   0.00029   0.00435  -0.01250  -0.01073
  40   34690.4    288.3   0.118266421   0.02804  -0.02409   0.12085   0.11338
  41   34780.1    287.5   0.007811485   0.00186   0.00441  -0.02114  -0.03729
  42   35257.7    283.6   0.058979810   0.01421  -0.05410   0.07654  -0.07367
  43   36346.6    275.1   0.079733539   0.01981  -0.07418   0.11552  -0.03096
  44   36791.5    271.8   0.016881772   0.00424   0.00828  -0.05307  -0.03688
  45   36901.9    271.0   0.000737960   0.00019  -0.00687  -0.00422  -0.01101
  46   37126.5    269.3   0.013993911   0.00355   0.02464  -0.03613  -0.04048
  47   37384.6    267.5   0.017660047   0.00451   0.01107   0.06239   0.02231
  48   37480.1    266.8   0.130204727   0.03335  -0.13217   0.09950   0.07735
  49   37928.0    263.7   0.046302535   0.01200   0.05600  -0.06945  -0.06359
  50   38122.1    262.3   0.038094966   0.00993  -0.01999   0.09422   0.02547
  51   38254.4    261.4   0.004274905   0.00112   0.00596   0.02837  -0.01666
  52   38464.9    260.0   0.026492080   0.00696  -0.02719   0.05436   0.05719
  53   38738.2    258.1   0.021004176   0.00556  -0.01436   0.00272   0.07313
  54   38988.5    256.5   0.010320869   0.00275  -0.00012   0.00039  -0.05244
  55   39185.3    255.2   0.121088052   0.03243  -0.04317   0.17350  -0.02155
  56   39293.4    254.5   0.096566278   0.02593  -0.02906   0.15110  -0.04751
  57   39600.1    252.5   0.013452217   0.00364  -0.00204  -0.00507  -0.06009
  58   39666.8    252.1   0.023517202   0.00638   0.03351   0.00435   0.07234
  59   39753.7    251.5   0.079145820   0.02150   0.04719  -0.03001   0.13556
  60   39848.1    251.0   0.017902525   0.00488  -0.01203   0.03871  -0.05685
  61   40148.7    249.1   0.006010104   0.00165  -0.00559   0.00125   0.04020
  62   40274.6    248.3   0.026400087   0.00727  -0.05695   0.03053   0.05560

-------------------------------------------------------------------
                             CD SPECTRUM
-------------------------------------------------------------------
State   Energy Wavelength       R         MX        MY        MZ   
        (cm-1)   (nm)       (1e40*cgs)   (au)      (au)      (au)  
-------------------------------------------------------------------
   0   17632.5    567.1     70.10401  -0.20431  -0.48011  -0.22324
   1   17760.8    563.0    -29.92460  -0.08894   0.26899   0.33246
   2   18324.7    545.7     -7.50717   0.14010  -0.01754   0.07734
   3   20253.8    493.7    223.52147   0.14479  -0.08860  -0.46075
   4   21385.0    467.6     87.81115  -1.65377  -0.81900  -0.18585
   5   22432.1    445.8     -8.86316  -0.01740   0.16166   0.10936
   6   22471.4    445.0    -90.34323   0.35491   0.65181   0.07837
   7   23079.4    433.3     28.81854  -0.03182   0.20489   0.17029
   8   23999.2    416.7    -47.98261   0.80082   0.74832   0.15757
   9   24922.4    401.2     16.12298   0.62795   0.19679   0.01137
  10   25001.4    400.0    -11.80554  -0.41175   0.06641   0.00189
  11   25874.1    386.5     -0.67266  -0.76110  -0.71310  -0.38366
  12   26065.6    383.6     -1.01599  -0.12887  -0.05697  -0.02967
  13   26589.7    376.1      5.94854  -0.13565   0.12996   0.13057
  14   27088.5    369.2     -1.19499   0.11389   0.15338   0.22951
  15   27397.8    365.0    -12.30625  -0.32951  -0.83536  -0.59251
  16   28022.0    356.9     67.58312  -1.05716  -0.84809  -0.96481
  17   28253.1    353.9    -18.62999  -0.36009   0.15226   0.12326
  18   28433.9    351.7     26.97982  -0.69149  -0.60197  -0.35683
  19   28883.7    346.2    -115.30769   0.82321   0.52715   0.68325
  20   29436.9    339.7    -18.94558   0.64733   0.27341  -0.12798
  21   29591.1    337.9     33.54792  -0.06761  -0.00301  -0.27643
  22   29956.6    333.8    -50.23544   0.36123   0.64856   0.80102
  23   30093.0    332.3     -2.07433  -0.30121  -0.30843   0.17968
  24   30740.4    325.3    -33.50934  -1.18924  -0.40834   0.36944
  25   30765.0    325.0    -64.22030   0.07023   0.30439  -0.20038
  26   31254.0    320.0    -79.94153   0.27272   0.62991   0.40625
  27   31418.7    318.3      7.98790  -0.55743  -0.66209   0.47101
  28   31481.8    317.6     42.20274  -0.28959   0.29434  -0.01808
  29   31641.0    316.0     36.72323   0.78618   0.14900   0.02131
  30   32089.6    311.6     86.25823   0.72720   0.14749  -0.05013
  31   32267.0    309.9     47.33145  -0.91543  -0.16872  -0.26461
  32   32631.4    306.5    -29.29895  -0.14066  -0.05711   0.11707
  33   32664.4    306.1    -40.09649   0.29703  -0.04207  -0.22862
  34   32789.2    305.0    -30.32127  -0.11989   0.20088  -0.06834
  35   32965.4    303.3     81.80528  -0.44149   0.19552  -0.05191
  36   33335.6    300.0    -19.65929  -0.25766  -0.19646   0.11141
  37   33434.1    299.1     -2.05131   0.40978   0.18556   0.10054
  38   34248.0    292.0      2.30761   0.03798  -0.01830   0.04666
  39   34637.8    288.7      1.68615  -0.04767   0.06078   0.01010
  40   34690.4    288.3     91.40158   0.34556  -0.19270  -0.25330
  41   34780.1    287.5      8.57533  -0.15665   0.01055   0.11700
  42   35257.7    283.6     85.14980   0.21267  -0.09745   0.46446
  43   36346.6    275.1     19.49907   0.86504   0.51299   0.19135
  44   36791.5    271.8    -27.30577  -0.56905  -0.49495   0.14498
  45   36901.9    271.0      1.34127   0.08728   0.02179   0.01781
  46   37126.5    269.3     -8.08172  -0.26049  -0.20640  -0.09832
  47   37384.6    267.5     27.72904   0.07220  -0.24552  -0.16216
  48   37480.1    266.8     29.38127   1.44821   1.22253   0.70558
  49   37928.0    263.7     -2.14995  -0.73061  -0.93331   0.29862
  50   38122.1    262.3      0.57446   0.66423   0.17593  -0.14636
  51   38254.4    261.4     17.01700   0.06438  -0.40756  -0.03438
  52   38464.9    260.0    -12.77257   0.26936   0.15952   0.13308
  53   38738.2    258.1     -9.06196   0.52017   0.59701   0.12735
  54   38988.5    256.5     -5.53303   0.17636   0.64002  -0.08486
  55   39185.3    255.2    -27.19804   1.54083   0.44782  -0.40094
  56   39293.4    254.5     92.56209   0.79570  -0.40567  -0.41757
  57   39600.1    252.5     19.57589  -0.66833  -0.17632   0.26819
  58   39666.8    252.1    -37.32474   0.90776   0.56255  -0.07157
  59   39753.7    251.5     72.44657   0.22908   0.89568  -0.29301
  60   39848.1    251.0     22.60050   0.31705  -0.14127   0.09851
  61   40148.7    249.1     14.70766  -0.00374  -0.03333  -0.26631
  62   40274.6    248.3     13.90997   0.68194   0.45752   0.25610

sTD-DFT done

Total run time:        2.198 sec

           *** ORCA-CIS/TD-DFT FINISHED WITHOUT ERROR ***

-------------------------   --------------------
FINAL SINGLE POINT ENERGY     -3373.525737218054
-------------------------   --------------------


                            ***************************************
                            *     ORCA property calculations      *
                            ***************************************

                                    ---------------------
                                    Active property flags
                                    ---------------------
   (+) Dipole Moment


------------------------------------------------------------------------------
                       ORCA ELECTRIC PROPERTIES CALCULATION
------------------------------------------------------------------------------

Dipole Moment Calculation                       ... on
Quadrupole Moment Calculation                   ... off
Polarizability Calculation                      ... off
GBWName                                         ... xtbopt.gbw
Electron density file                           ... xtbopt.scfp
The origin for moment calculation is the CENTER OF MASS  = ( 3.251888, -4.571416  3.938218)

-------------
DIPOLE MOMENT
-------------
                                X             Y             Z
Electronic contribution:     12.61382      -1.31936     -15.42057
Nuclear contribution   :    -12.08382       2.00828      20.60686
                        -----------------------------------------
Total Dipole Moment    :      0.53000       0.68891       5.18629
                        -----------------------------------------
Magnitude (a.u.)       :      5.25862
Magnitude (Debye)      :     13.36635



--------------------
Rotational spectrum 
--------------------
 
Rotational constants in cm-1:     0.001664     0.000953     0.000683 
Rotational constants in MHz :    49.885555    28.572068    20.478396 

 Dipole components along the rotational axes: 
x,y,z [a.u.] :    -0.923358     4.841491    -1.833150 
x,y,z [Debye]:    -2.346990    12.306093    -4.659497 

 

Timings for individual modules:

Sum of individual times         ...      533.195 sec (=   8.887 min)
GTO integral calculation        ...        2.312 sec (=   0.039 min)   0.4 %
SCF iterations                  ...      528.067 sec (=   8.801 min)  99.0 %
CIS module                      ...        2.816 sec (=   0.047 min)   0.5 %
                             ****ORCA TERMINATED NORMALLY****
TOTAL RUN TIME: 0 days 0 hours 8 minutes 54 seconds 77 msec
