
                                 *****************
                                 * O   R   C   A *
                                 *****************

           --- An Ab Initio, DFT and Semiempirical electronic structure package ---

                  #######################################################
                  #                        -***-                        #
                  #          Department of theory and spectroscopy      #
                  #               Directorship: Frank Neese             #
                  #        Max Planck Institute fuer Kohlenforschung    #
                  #                Kaiser Wilhelm Platz 1               #
                  #                 D-45470 Muelheim/Ruhr               #
                  #                      Germany                        #
                  #                                                     #
                  #                  All rights reserved                #
                  #                        -***-                        #
                  #######################################################


                         Program Version 4.2.0 -  RELEASE  -


 With contributions from (in alphabetic order):
   Daniel Aravena         : Magnetic Suceptibility
   Michael Atanasov       : Ab Initio Ligand Field Theory (pilot matlab implementation)
   Alexander A. Auer      : GIAO ZORA, VPT2
   Ute Becker             : Parallelization
   Giovanni Bistoni       : ED, misc. LED, open-shell LED, HFLED
   Martin Brehm           : Molecular dynamics
   Dmytro Bykov           : SCF Hessian
   Vijay G. Chilkuri      : MRCI spin determinant printing, contributions to CSF-ICE
   Dipayan Datta          : RHF DLPNO-CCSD density
   Achintya Kumar Dutta   : EOM-CC, STEOM-CC
   Dmitry Ganyushin       : Spin-Orbit,Spin-Spin,Magnetic field MRCI
   Miquel Garcia          : C-PCM Hessian, Gaussian charge scheme
   Yang Guo               : DLPNO-NEVPT2, CIM, IAO-localization
   Andreas Hansen         : Spin unrestricted coupled pair/coupled cluster methods
   Benjamin Helmich-Paris : CASSCF linear response (MC-RPA)
   Lee Huntington         : MR-EOM, pCC
   Robert Izsak           : Overlap fitted RIJCOSX, COSX-SCS-MP3, EOM
   Christian Kollmar      : KDIIS, OOCD, Brueckner-CCSD(T), CCSD density
   Simone Kossmann        : Meta GGA functionals, TD-DFT gradient, OOMP2, MP2 Hessian
   Martin Krupicka        : AUTO-CI
   Lucas Lang             : DCDCAS
   Dagmar Lenk            : GEPOL surface, SMD
   Dimitrios Liakos       : Extrapolation schemes; Compound Job, initial MDCI parallelization
   Dimitrios Manganas     : Further ROCIS development; embedding schemes
   Dimitrios Pantazis     : SARC Basis sets
   Taras Petrenko         : DFT Hessian,TD-DFT gradient, ASA, ECA, R-Raman, ABS, FL, XAS/XES, NRVS
   Peter Pinski           : DLPNO-MP2, DLPNO-MP2 Gradient
   Christoph Reimann      : Effective Core Potentials
   Marius Retegan         : Local ZFS, SOC
   Christoph Riplinger    : Optimizer, TS searches, QM/MM, DLPNO-CCSD(T), (RO)-DLPNO pert. Triples
   Tobias Risthaus        : Range-separated hybrids, TD-DFT gradient, RPA, STAB
   Michael Roemelt        : Original ROCIS implementation
   Masaaki Saitow         : Open-shell DLPNO-CCSD energy and density
   Barbara Sandhoefer     : DKH picture change effects
   Avijit Sen             : IP-ROCIS
   Kantharuban Sivalingam : CASSCF convergence, NEVPT2, FIC-MRCI
   Bernardo de Souza      : ESD, SOC TD-DFT
   Georgi Stoychev        : AutoAux, RI-MP2 NMR
   Willem Van den Heuvel  : Paramagnetic NMR
   Boris Wezisla          : Elementary symmetry handling
   Frank Wennmohs         : Technical directorship


 We gratefully acknowledge several colleagues who have allowed us to
 interface, adapt or use parts of their codes:
   Stefan Grimme, W. Hujo, H. Kruse,             : VdW corrections, initial TS optimization,
                  C. Bannwarth                     DFT functionals, gCP, sTDA/sTD-DF
   Ed Valeev, F. Pavosevic, A. Kumar             : LibInt (2-el integral package), F12 methods
   Garnet Chan, S. Sharma, J. Yang, R. Olivares  : DMRG
   Ulf Ekstrom                                   : XCFun DFT Library
   Mihaly Kallay                                 : mrcc  (arbitrary order and MRCC methods)
   Andreas Klamt, Michael Diedenhofen            : otool_cosmo (COSMO solvation model)
   Jiri Pittner, Ondrej Demel                    : Mk-CCSD
   Frank Weinhold                                : gennbo (NPA and NBO analysis)
   Christopher J. Cramer and Donald G. Truhlar   : smd solvation model
   Lars Goerigk                                  : TD-DFT with DH, B97 family of functionals
   V. Asgeirsson, H. Jonsson                     : NEB implementation
   FAccTs GmbH                                   : IRC, NEB, NEB-TS, Multilevel, MM, QM/MM, CI optimization
   S Lehtola, MJT Oliveira, MAL Marques          : LibXC Library


 Your calculation uses the libint2 library for the computation of 2-el integrals
 For citations please refer to: http://libint.valeyev.net

 Your ORCA version has been built with support for libXC version: 4.2.3
 For citations please refer to: https://tddft.org/programs/libxc/

 This ORCA versions uses:
   CBLAS   interface :  Fast vector & matrix operations
   LAPACKE interface :  Fast linear algebra routines
   SCALAPACK package :  Parallel linear algebra routines


XCFun DFT library Copyright 2009-2010 Ulf Ekstrom and contributors.
See http://admol.org/xcfun for more information. This is free soft-
ware; see the source code for copying conditions. There is ABSOLUTELY
NO WARRANTY; not even for MERCHANTABILITY or FITNESS FOR A PARTICULAR
PURPOSE. For details see the documentation. Scientific users of this 
library should cite U. Ekstrom, L. Visscher, R. Bast, A. J. Thorvald-
sen and K. Ruud; J.Chem.Theor.Comp. 2010, DOI: 10.1021/ct100117s
XCFun Version 0.99 
----- Orbital basis set information -----
Your calculation utilizes the basis: def2-SVP
   F. Weigend and R. Ahlrichs, Phys. Chem. Chem. Phys. 7, 3297 (2005).

----- AuxJ basis set information -----
Your calculation utilizes the auxiliary basis: def2/J
   F. Weigend, Phys. Chem. Chem. Phys. 8, 1057 (2006).

================================================================================
                                        WARNINGS
                       Please study these warnings very carefully!
================================================================================

INFO   : Checking CIS options ...

WARNING: CIS/ROCIS methods need fully converged wavefunctions
  ===> : Setting SCFConvForced true
         You can overwrite this default with %scf ConvForced false 


INFO   : the flag for use of LIBINT has been found!

================================================================================
                                       INPUT FILE
================================================================================
NAME = xtbopt.inp
|  1> # ORCA input file
|  2> # SCF done       -184.856734918894          0.000965199790
|  3> ! CAM-B3LYP def2-SVP def2/J RIJCOSX Grid4 TightSCF
|  4> %maxcore 5000
|  5> %tddft
|  6>     Mode sTDDFT
|  7>     Ethresh 5.0
|  8>     maxcore 5000
|  9> end
| 10> 
| 11> %pal
| 12>   nprocs 6
| 13>   end
| 14> * xyz 0 1
| 15>    C        2.47424         2.32224        -6.06093
| 16>    C        1.51681         1.53892        -6.58979
| 17>    C        0.13844         1.80644        -6.28230
| 18>    C       -0.90539         1.03079        -6.76320
| 19>    C       -2.23736         1.32343        -6.42975
| 20>    N       -3.31968         1.57955        -6.14134
| 21>    C       -0.68662        -0.08515        -7.58582
| 22>    N       -0.50230        -0.99750        -8.25889
| 23>    C       -0.09355         2.93588        -5.44668
| 24>    C        0.95197         3.67294        -4.96991
| 25>    O        2.23229         3.34975        -5.23982
| 26>    C        0.75921         4.86230        -4.17488
| 27>    C        1.40068         6.08102        -4.30093
| 28>    N        2.37444         6.45045        -5.25424
| 29>    O        2.97090         7.49323        -5.06303
| 30>    O        2.54619         5.72230        -6.21528
| 31>    C        0.82952         7.01706        -3.36947
| 32>    C       -0.19079         6.40539        -2.72088
| 33>    C       -0.27252         5.03627        -3.16479
| 34>    C       -1.05698         4.04022        -2.60089
| 35>    C       -0.69581         2.67662        -2.41588
| 36>    C       -1.57537         2.09719        -1.54127
| 37>    C       -2.58086         3.04486        -1.19776
| 38>    N       -3.66418         2.74346        -0.35623
| 39>    O       -4.49890         3.61221        -0.14340
| 40>    O       -3.70176         1.62909         0.13184
| 41>    C       -2.32441         4.24766        -1.87253
| 42>    C       -3.19945         5.33336        -1.99997
| 43>    C       -3.13160         6.24325        -3.02819
| 44>    C       -3.91279         7.37590        -3.28178
| 45>    N       -4.94816         7.95701        -2.58552
| 46>    C       -5.51714         7.54803        -1.31943
| 47>    C       -4.61303         7.91175        -0.14576
| 48>    C       -5.42797         9.10307        -3.23317
| 49>    O       -6.33910         9.79065        -2.81093
| 50>    C       -4.61596         9.22679        -4.43107
| 51>    C       -3.70503         8.16851        -4.42692
| 52>    C       -2.86334         8.27282        -5.60346
| 53>    O       -1.93346         7.60358        -5.99348
| 54>    N       -3.35259         9.41643        -6.26744
| 55>    C       -2.80254         9.84082        -7.53376
| 56>    C       -3.66763         9.38959        -8.70746
| 57>    C       -4.39646         9.99733        -5.59379
| 58>    C       -5.09290        11.13998        -6.01571
| 59>    C       -6.11391        11.66187        -5.26442
| 60>    C       -6.88283        12.77837        -5.60042
| 61>    S       -6.69254        13.65663        -7.08529
| 62>    C       -7.95703        14.77175        -6.69940
| 63>    C       -8.51800        14.48611        -5.43904
| 64>    C       -7.91137        13.35068        -4.81835
| 65>    C       -8.34239        12.91230        -3.55795
| 66>    C       -9.35572        13.59337        -2.91993
| 67>    C       -9.80481        13.17715        -1.64375
| 68>    N      -10.16411        12.83631        -0.61130
| 69>    C       -9.96172        14.72839        -3.53381
| 70>    C      -10.99886        15.41653        -2.85891
| 71>    N      -11.83803        15.99080        -2.33238
| 72>    C       -9.55211        15.16635        -4.77296
| 73>    C       -8.29724        15.79571        -7.63451
| 74>    C       -7.67867        15.92827        -8.84888
| 75>    C       -8.05267        16.95286        -9.76133
| 76>    C       -7.44215        17.09439       -10.99398
| 77>    C       -7.81493        18.10504       -11.89573
| 78>    N       -8.12521        18.93360       -12.62749
| 79>    C       -6.41617        16.22573       -11.40251
| 80>    N       -5.57985        15.50190       -11.71119
| 81>    C       -9.10977        17.82383        -9.31011
| 82>    C       -9.65777        17.62267        -8.10400
| 83>    O       -9.29112        16.64342        -7.25316
| 84>    H        3.53010         2.19230        -6.24433
| 85>    H        1.77042         0.72156        -7.24420
| 86>    H       -1.10551         3.23164        -5.22185
| 87>    H        1.17878         8.02486        -3.25527
| 88>    H       -0.78753         6.82016        -1.93251
| 89>    H        0.19851         2.22297        -2.79616
| 90>    H       -1.54331         1.09577        -1.15494
| 91>    H       -4.00872         5.36029        -1.28516
| 92>    H       -2.39356         6.07952        -3.80370
| 93>    H       -5.73044         6.47745        -1.33973
| 94>    H       -6.46426         8.08746        -1.22914
| 95>    H       -3.63139         7.45511        -0.24662
| 96>    H       -5.06355         7.56248         0.77833
| 97>    H       -4.49021         8.99073        -0.08781
| 98>    H       -1.81545         9.37646        -7.60649
| 99>    H       -2.68221        10.92736        -7.53185
|100>    H       -3.74059         8.30503        -8.72075
|101>    H       -3.21781         9.71782        -9.63986
|102>    H       -4.67105         9.80388        -8.63836
|103>    H       -4.81547        11.61212        -6.94782
|104>    H       -6.36159        11.17640        -4.32977
|105>    H       -7.89151        12.05245        -3.08655
|106>    H      -10.02400        16.02558        -5.21898
|107>    H       -6.89386        15.24120        -9.12602
|108>    H       -9.44942        18.62530        -9.94437
|109>    H      -10.45159        18.22692        -7.69154
|110> *
|111> 
|112>                          ****END OF INPUT****
================================================================================

                       ****************************
                       * Single Point Calculation *
                       ****************************

---------------------------------
CARTESIAN COORDINATES (ANGSTROEM)
---------------------------------
  C      2.474240    2.322240   -6.060930
  C      1.516810    1.538920   -6.589790
  C      0.138440    1.806440   -6.282300
  C     -0.905390    1.030790   -6.763200
  C     -2.237360    1.323430   -6.429750
  N     -3.319680    1.579550   -6.141340
  C     -0.686620   -0.085150   -7.585820
  N     -0.502300   -0.997500   -8.258890
  C     -0.093550    2.935880   -5.446680
  C      0.951970    3.672940   -4.969910
  O      2.232290    3.349750   -5.239820
  C      0.759210    4.862300   -4.174880
  C      1.400680    6.081020   -4.300930
  N      2.374440    6.450450   -5.254240
  O      2.970900    7.493230   -5.063030
  O      2.546190    5.722300   -6.215280
  C      0.829520    7.017060   -3.369470
  C     -0.190790    6.405390   -2.720880
  C     -0.272520    5.036270   -3.164790
  C     -1.056980    4.040220   -2.600890
  C     -0.695810    2.676620   -2.415880
  C     -1.575370    2.097190   -1.541270
  C     -2.580860    3.044860   -1.197760
  N     -3.664180    2.743460   -0.356230
  O     -4.498900    3.612210   -0.143400
  O     -3.701760    1.629090    0.131840
  C     -2.324410    4.247660   -1.872530
  C     -3.199450    5.333360   -1.999970
  C     -3.131600    6.243250   -3.028190
  C     -3.912790    7.375900   -3.281780
  N     -4.948160    7.957010   -2.585520
  C     -5.517140    7.548030   -1.319430
  C     -4.613030    7.911750   -0.145760
  C     -5.427970    9.103070   -3.233170
  O     -6.339100    9.790650   -2.810930
  C     -4.615960    9.226790   -4.431070
  C     -3.705030    8.168510   -4.426920
  C     -2.863340    8.272820   -5.603460
  O     -1.933460    7.603580   -5.993480
  N     -3.352590    9.416430   -6.267440
  C     -2.802540    9.840820   -7.533760
  C     -3.667630    9.389590   -8.707460
  C     -4.396460    9.997330   -5.593790
  C     -5.092900   11.139980   -6.015710
  C     -6.113910   11.661870   -5.264420
  C     -6.882830   12.778370   -5.600420
  S     -6.692540   13.656630   -7.085290
  C     -7.957030   14.771750   -6.699400
  C     -8.518000   14.486110   -5.439040
  C     -7.911370   13.350680   -4.818350
  C     -8.342390   12.912300   -3.557950
  C     -9.355720   13.593370   -2.919930
  C     -9.804810   13.177150   -1.643750
  N    -10.164110   12.836310   -0.611300
  C     -9.961720   14.728390   -3.533810
  C    -10.998860   15.416530   -2.858910
  N    -11.838030   15.990800   -2.332380
  C     -9.552110   15.166350   -4.772960
  C     -8.297240   15.795710   -7.634510
  C     -7.678670   15.928270   -8.848880
  C     -8.052670   16.952860   -9.761330
  C     -7.442150   17.094390  -10.993980
  C     -7.814930   18.105040  -11.895730
  N     -8.125210   18.933600  -12.627490
  C     -6.416170   16.225730  -11.402510
  N     -5.579850   15.501900  -11.711190
  C     -9.109770   17.823830   -9.310110
  C     -9.657770   17.622670   -8.104000
  O     -9.291120   16.643420   -7.253160
  H      3.530100    2.192300   -6.244330
  H      1.770420    0.721560   -7.244200
  H     -1.105510    3.231640   -5.221850
  H      1.178780    8.024860   -3.255270
  H     -0.787530    6.820160   -1.932510
  H      0.198510    2.222970   -2.796160
  H     -1.543310    1.095770   -1.154940
  H     -4.008720    5.360290   -1.285160
  H     -2.393560    6.079520   -3.803700
  H     -5.730440    6.477450   -1.339730
  H     -6.464260    8.087460   -1.229140
  H     -3.631390    7.455110   -0.246620
  H     -5.063550    7.562480    0.778330
  H     -4.490210    8.990730   -0.087810
  H     -1.815450    9.376460   -7.606490
  H     -2.682210   10.927360   -7.531850
  H     -3.740590    8.305030   -8.720750
  H     -3.217810    9.717820   -9.639860
  H     -4.671050    9.803880   -8.638360
  H     -4.815470   11.612120   -6.947820
  H     -6.361590   11.176400   -4.329770
  H     -7.891510   12.052450   -3.086550
  H    -10.024000   16.025580   -5.218980
  H     -6.893860   15.241200   -9.126020
  H     -9.449420   18.625300   -9.944370
  H    -10.451590   18.226920   -7.691540

----------------------------
CARTESIAN COORDINATES (A.U.)
----------------------------
  NO LB      ZA    FRAG     MASS         X           Y           Z
   0 C     6.0000    0    12.011    4.675636    4.388398  -11.453498
   1 C     6.0000    0    12.011    2.866355    2.908137  -12.452898
   2 C     6.0000    0    12.011    0.261614    3.413677  -11.871826
   3 C     6.0000    0    12.011   -1.710939    1.947911  -12.780596
   4 C     6.0000    0    12.011   -4.227998    2.500920  -12.150467
   5 N     7.0000    0    14.007   -6.273286    2.984917  -11.605451
   6 C     6.0000    0    12.011   -1.297524   -0.160910  -14.335122
   7 N     7.0000    0    14.007   -0.949209   -1.885002  -15.607040
   8 C     6.0000    0    12.011   -0.176784    5.548009  -10.292734
   9 C     6.0000    0    12.011    1.798963    6.940851   -9.391769
  10 O     8.0000    0    15.999    4.218417    6.330110   -9.901825
  11 C     6.0000    0    12.011    1.434699    9.188415   -7.889380
  12 C     6.0000    0    12.011    2.646902   11.491462   -8.127580
  13 N     7.0000    0    14.007    4.487041   12.189584   -9.929075
  14 O     8.0000    0    15.999    5.614187   14.160153   -9.567740
  15 O     8.0000    0    15.999    4.811602   10.813580  -11.745177
  16 C     6.0000    0    12.011    1.567566   13.260322   -6.367376
  17 C     6.0000    0    12.011   -0.360541   12.104433   -5.141718
  18 C     6.0000    0    12.011   -0.514988    9.517171   -5.980586
  19 C     6.0000    0    12.011   -1.997403    7.634909   -4.914970
  20 C     6.0000    0    12.011   -1.314890    5.058079   -4.565352
  21 C     6.0000    0    12.011   -2.977018    3.963115   -2.912578
  22 C     6.0000    0    12.011   -4.877119    5.753952   -2.263438
  23 N     7.0000    0    14.007   -6.924297    5.184388   -0.673177
  24 O     8.0000    0    15.999   -8.501689    6.826088   -0.270987
  25 O     8.0000    0    15.999   -6.995313    3.078534    0.249141
  26 C     6.0000    0    12.011   -4.392498    8.026914   -3.538569
  27 C     6.0000    0    12.011   -6.046084   10.078590   -3.779396
  28 C     6.0000    0    12.011   -5.917866   11.798033   -5.722450
  29 C     6.0000    0    12.011   -7.394102   13.938431   -6.201665
  30 N     7.0000    0    14.007   -9.350667   15.036570   -4.885925
  31 C     6.0000    0    12.011  -10.425884   14.263710   -2.493361
  32 C     6.0000    0    12.011   -8.717363   14.951041   -0.275446
  33 C     6.0000    0    12.011  -10.257377   17.202309   -6.109806
  34 O     8.0000    0    15.999  -11.979163   18.501647   -5.311888
  35 C     6.0000    0    12.011   -8.722900   17.436106   -8.373509
  36 C     6.0000    0    12.011   -7.001492   15.436247   -8.365666
  37 C     6.0000    0    12.011   -5.410928   15.633364  -10.589005
  38 O     8.0000    0    15.999   -3.653710   14.368684  -11.326036
  39 N     7.0000    0    14.007   -6.335477   17.794474  -11.843745
  40 C     6.0000    0    12.011   -5.296033   18.596455  -14.236743
  41 C     6.0000    0    12.011   -6.930816   17.743754  -16.454715
  42 C     6.0000    0    12.011   -8.308105   18.892216  -10.570731
  43 C     6.0000    0    12.011   -9.624186   21.051511  -11.368044
  44 C     6.0000    0    12.011  -11.553616   22.037741   -9.948312
  45 C     6.0000    0    12.011  -13.006664   24.147620  -10.583260
  46 S    16.0000    0    32.060  -12.647068   25.807291  -13.389258
  47 C     6.0000    0    12.011  -15.036608   27.914562  -12.660031
  48 C     6.0000    0    12.011  -16.096687   27.374781  -10.278296
  49 C     6.0000    0    12.011  -14.950323   25.229129   -9.105362
  50 C     6.0000    0    12.011  -15.764832   24.400711   -6.723551
  51 C     6.0000    0    12.011  -17.679749   25.687747   -5.517868
  52 C     6.0000    0    12.011  -18.528406   24.901205   -3.106237
  53 N     7.0000    0    14.007  -19.207384   24.257110   -1.155190
  54 C     6.0000    0    12.011  -18.824923   27.832623   -6.677933
  55 C     6.0000    0    12.011  -20.784833   29.133020   -5.402557
  56 N     7.0000    0    14.007  -22.370635   30.218233   -4.407559
  57 C     6.0000    0    12.011  -18.050872   28.660248   -9.019587
  58 C     6.0000    0    12.011  -15.679511   29.849566  -14.427133
  59 C     6.0000    0    12.011  -14.510583   30.100068  -16.721960
  60 C     6.0000    0    12.011  -15.217341   32.036263  -18.446240
  61 C     6.0000    0    12.011  -14.063625   32.303716  -20.775611
  62 C     6.0000    0    12.011  -14.768077   34.213567  -22.479672
  63 N     7.0000    0    14.007  -15.354422   35.779319  -23.862498
  64 C     6.0000    0    12.011  -12.124804   30.662186  -21.547621
  65 N     7.0000    0    14.007  -10.544388   29.294346  -22.130942
  66 C     6.0000    0    12.011  -17.214970   33.682157  -17.593558
  67 C     6.0000    0    12.011  -18.250540   33.302020  -15.314341
  68 O     8.0000    0    15.999  -17.557672   31.451506  -13.706486
  69 H     1.0000    0     1.008    6.670922    4.142847  -11.800074
  70 H     1.0000    0     1.008    3.345609    1.363551  -13.689554
  71 H     1.0000    0     1.008   -2.089111    6.106915   -9.867866
  72 H     1.0000    0     1.008    2.227571   15.164788   -6.151569
  73 H     1.0000    0     1.008   -1.488216   12.888235   -3.651915
  74 H     1.0000    0     1.008    0.375130    4.200805   -5.283977
  75 H     1.0000    0     1.008   -2.916433    2.070705   -2.182520
  76 H     1.0000    0     1.008   -7.575383   10.129480   -2.428600
  77 H     1.0000    0     1.008   -4.523173   11.488628   -7.187951
  78 H     1.0000    0     1.008  -10.828962   12.240607   -2.531723
  79 H     1.0000    0     1.008  -12.215681   15.283085   -2.322738
  80 H     1.0000    0     1.008   -6.862333   14.088116   -0.466044
  81 H     1.0000    0     1.008   -9.568723   14.291016    1.470831
  82 H     1.0000    0     1.008   -8.485267   16.990017   -0.165937
  83 H     1.0000    0     1.008   -3.430703   17.718942  -14.374183
  84 H     1.0000    0     1.008   -5.068642   20.649718  -14.233134
  85 H     1.0000    0     1.008   -7.068691   15.694232  -16.479829
  86 H     1.0000    0     1.008   -6.080780   18.364018  -18.216695
  87 H     1.0000    0     1.008   -8.827005   18.526648  -16.324135
  88 H     1.0000    0     1.008   -9.099920   21.943727  -13.129477
  89 H     1.0000    0     1.008  -12.021663   21.120335   -8.182080
  90 H     1.0000    0     1.008  -14.912793   22.775830   -5.832734
  91 H     1.0000    0     1.008  -18.942615   30.283957   -9.862443
  92 H     1.0000    0     1.008  -13.027507   28.801694  -17.245678
  93 H     1.0000    0     1.008  -17.856816   35.196716  -18.792136
  94 H     1.0000    0     1.008  -19.750643   34.443887  -14.534904

--------------------------------
INTERNAL COORDINATES (ANGSTROEM)
--------------------------------
 C      0   0   0     0.000000000000     0.00000000     0.00000000
 C      1   0   0     1.345345801978     0.00000000     0.00000000
 C      2   1   0     1.437365961542   119.33991106     0.00000000
 C      3   2   1     1.386534817954   122.93035229   181.39125538
 C      4   3   2     1.403912801067   121.01539223   179.56194801
 N      5   4   3     1.148997112660   178.80180684   352.47487021
 C      4   3   2     1.403526295051   122.05469892     0.36627292
 N      7   4   3     1.148642507397   179.73247157   359.03009134
 C      3   2   1     1.423978531474   115.42868429     1.65560641
 C      9   3   2     1.365166344040   120.55732342   358.79611156
 O      1   2   3     1.337362417111   124.05237028     0.65355847
 C     10   9   3     1.443539513869   122.33814441   176.88878829
 C     12  10   9     1.382986190025   127.87372671   225.09976443
 N     13  12  10     1.411908997988   127.73470536     1.34222573
 O     14  13  12     1.216435745981   117.15112212   191.63566555
 O     14  13  12     1.217907371929   118.26904647    12.74068492
 C     13  12  10     1.438753751967   109.27950902   175.59988551
 C     17  13  12     1.354932350009   108.36957492   357.24042558
 C     18  17  13     1.441605166264   108.90692607     2.69792460
 C     19  18  17     1.387615330018   126.06032586   170.17048181
 C     20  19  18     1.422700751739   126.67861056   218.94760113
 C     21  20  19     1.369053530948   109.00389365   164.90104168
 C     22  21  20     1.423758297289   109.03481498     3.56054262
 N     23  22  21     1.404491695703   123.12385021   177.46697975
 O     24  23  22     1.223429871223   118.56186209   181.82484393
 O     24  23  22     1.217146284635   117.42300283     2.75251790
 C     23  22  21     1.402786154551   108.99925210   359.94434312
 C     27  23  22     1.400242995055   126.46709650   167.36315236
 C     28  27  23     1.374678072496   123.39719261   204.86128218
 C     29  28  27     1.399093180135   130.07993625   180.89267252
 N     30  29  28     1.376393060357   132.07628054     2.22114744
 C     31  30  29     1.447061425407   128.24652725     1.67996177
 C     32  31  30     1.525519059009   111.88375470    75.15580829
 C     31  30  29     1.401114442935   111.66112966   179.70236263
 O     34  31  30     1.217050019884   123.92558090   180.13014400
 C     34  31  30     1.452456983356   105.03754748     0.21824923
 C     36  34  31     1.396340662518   107.31980340   359.63055709
 C     37  36  34     1.450368575156   108.76394915   180.80007276
 O     38  37  36     1.210237411585   131.87791802   178.23106550
 N     38  37  36     1.409992494661   103.82565308   359.26167534
 C     40  38  37     1.444378141970   121.26717168   182.33954105
 C     41  40  38     1.526289917087   111.80684016    99.15035335
 C     40  38  37     1.371464075140   112.10707153     0.21805570
 C     43  40  38     1.403101629427   125.10171751   180.56673101
 C     44  43  40     1.370863689905   120.99200213   180.95146619
 C     45  44  43     1.396676847521   125.62826733   181.04438684
 S     46  45  44     1.735623757789   123.36468633     2.41827457
 C     47  46  45     1.729548688705    93.16523608   179.40781738
 C     48  47  46     1.408823935096   111.09998800     0.47727472
 C     46  45  44     1.413176122286   126.24913371   181.98788851
 C     50  46  45     1.402342121167   126.47695691     0.58691809
 C     51  50  46     1.377593392188   119.19603248   179.40102331
 C     52  51  50     1.415470349001   120.36910552   180.36959129
 N     53  52  51     1.145085760151   179.71226990     2.51154795
 C     52  51  50     1.425606907531   120.45532798     0.14062451
 C     55  52  51     1.415869361629   119.54267321   180.19591169
 N     56  55  52     1.145087840604   178.68843873   175.73369942
 C     55  52  51     1.376619786361   120.95870315     0.11819393
 C     48  47  46     1.427819189463   119.37077480   181.04685223
 C     59  48  47     1.369268233547   122.86228620     1.11262804
 C     60  59  48     1.422049812981   121.33222416   179.37298629
 C     61  60  59     1.382820101749   121.97778340   180.36409930
 C     62  61  60     1.404824335424   121.91512267   179.84015337
 N     63  62  61     1.148154192432   179.59634617   359.23485508
 C     62  61  60     1.405027372296   121.21860661   359.95026461
 N     65  62  61     1.148322408429   178.55989043   359.46525948
 C     61  60  59     1.442098692635   115.28852407     0.21370704
 C     67  61  60     1.339951744542   119.39023829   359.91052330
 O     68  67  61     1.348069542197   124.46696493   359.97188453
 H      1   2   3     1.079518551578   124.00020278   180.26898048
 H      2   1   3     1.077333676165   120.86371340   179.53973061
 H      9   3   2     1.078000718042   119.53369131   176.40461061
 H     17  13  12     1.072699877692   123.42870975   178.08665377
 H     18  17  13     1.072222009381   126.61463119   176.92014903
 H     21  20  19     1.072482849886   124.81992607   352.62459984
 H     22  21  20     1.073834591033   127.25377339   183.63181005
 H     28  27  23     1.080090965567   115.29809165    18.88694740
 H     29  28  27     1.083017227287   117.98018471     3.16976801
 H     32  31  30     1.091810659593   109.73563674   311.05138205
 H     32  31  30     1.093697080274   105.86276831   194.24798852
 H     33  32  31     1.087340755605   111.31849428   301.59894397
 H     33  32  31     1.085771675538   109.40148116   181.60810074
 H     33  32  31     1.087492894368   110.15058255    62.17701488
 H     41  40  38     1.093282456916   106.10254214   339.73916644
 H     41  40  38     1.093184398260   109.41587183   222.47496154
 H     42  41  40     1.087092534838   110.02261418   299.92470682
 H     42  41  40     1.086021512356   109.63951555   180.56131456
 H     42  41  40     1.087778796677   111.18567408    60.26868100
 H     44  43  40     1.081070134913   119.18021507     0.91405187
 H     45  44  43     1.081941368929   118.23640903     0.74358780
 H     51  50  46     1.079283446042   120.87785407   359.37165303
 H     58  55  52     1.076981989357   119.75067768   179.95303979
 H     60  59  48     1.079258310415   119.64406667   359.65462109
 H     67  61  60     1.077033904295   119.75813433   179.96684864
 H     68  67  61     1.079533003896   124.09798368   180.01461005

---------------------------
INTERNAL COORDINATES (A.U.)
---------------------------
 C      0   0   0     0.000000000000     0.00000000     0.00000000
 C      1   0   0     2.542335121159     0.00000000     0.00000000
 C      2   1   0     2.716228021535   119.33991106     0.00000000
 C      3   2   1     2.620171081080   122.93035229   181.39125538
 C      4   3   2     2.653010709923   121.01539223   179.56194801
 N      5   4   3     2.171289871593   178.80180684   352.47487021
 C      4   3   2     2.652280319404   122.05469892     0.36627292
 N      7   4   3     2.170619764762   179.73247157   359.03009134
 C      3   2   1     2.690929445070   115.42868429     1.65560641
 C      9   3   2     2.579790517482   120.55732342   358.79611156
 O      1   2   3     2.527248710138   124.05237028     0.65355847
 C     10   9   3     2.727894344705   122.33814441   176.88878829
 C     12  10   9     2.613465146143   127.87372671   225.09976443
 N     13  12  10     2.668121332217   127.73470536     1.34222573
 O     14  13  12     2.298730419416   117.15112212   191.63566555
 O     14  13  12     2.301511389430   118.26904647    12.74068492
 C     13  12  10     2.718850565370   109.27950902   175.59988551
 C     17  13  12     2.560451071507   108.36957492   357.24042558
 C     18  17  13     2.724238957486   108.90692607     2.69792460
 C     19  18  17     2.622212952964   126.06032586   170.17048181
 C     20  19  18     2.688514791311   126.67861056   218.94760113
 C     21  20  19     2.587136236169   109.00389365   164.90104168
 C     22  21  20     2.690513262775   109.03481498     3.56054262
 N     23  22  21     2.654104662246   123.12385021   177.46697975
 O     24  23  22     2.311947400669   118.56186209   181.82484393
 O     24  23  22     2.300073142879   117.42300283     2.75251790
 C     23  22  21     2.650881656558   108.99925210   359.94434312
 C     27  23  22     2.646075781595   126.46709650   167.36315236
 C     28  27  23     2.597765079323   123.39719261   204.86128218
 C     29  28  27     2.643902946292   130.07993625   180.89267252
 N     30  29  28     2.601005936705   132.07628054     2.22114744
 C     31  30  29     2.734549792980   128.24652725     1.67996177
 C     32  31  30     2.882813233604   111.88375470    75.15580829
 C     31  30  29     2.647722579428   111.66112966   179.70236263
 O     34  31  30     2.299891228864   123.92558090   180.13014400
 C     34  31  30     2.744745919845   105.03754748     0.21824923
 C     36  34  31     2.638701441816   107.31980340   359.63055709
 C     37  36  34     2.740799400290   108.76394915   180.80007276
 O     38  37  36     2.287017264921   131.87791802   178.23106550
 N     38  37  36     2.664499665793   103.82565308   359.26167534
 C     40  38  37     2.729479122145   121.26717168   182.33954105
 C     41  40  38     2.884269944259   111.80684016    99.15035335
 C     40  38  37     2.591691504526   112.10707153     0.21805570
 C     43  40  38     2.651477817675   125.10171751   180.56673101
 C     44  43  40     2.590556940857   120.99200213   180.95146619
 C     45  44  43     2.639336739402   125.62826733   181.04438684
 S     46  45  44     3.279853573748   123.36468633     2.41827457
 C     47  46  45     3.268373356934    93.16523608   179.40781738
 C     48  47  46     2.662291408245   111.09998800     0.47727472
 C     46  45  44     2.670515850118   126.24913371   181.98788851
 C     50  46  45     2.650042555068   126.47695691     0.58691809
 C     51  50  46     2.603274235135   119.19603248   179.40102331
 C     52  51  50     2.674851310297   120.36910552   180.36959129
 N     53  52  51     2.163898486538   179.71226990     2.51154795
 C     52  51  50     2.694006629860   120.45532798     0.14062451
 C     55  52  51     2.675605334889   119.54267321   180.19591169
 N     56  55  52     2.163902418026   178.68843873   175.73369942
 C     55  52  51     2.601434386759   120.95870315     0.11819393
 C     48  47  46     2.698187236843   119.37077480   181.04685223
 C     59  48  47     2.587541965281   122.86228620     1.11262804
 C     60  59  48     2.687284695328   121.33222416   179.37298629
 C     61  60  59     2.613151284786   121.97778340   180.36409930
 C     62  61  60     2.654733260220   121.91512267   179.84015337
 N     63  62  61     2.169696983211   179.59634617   359.23485508
 C     62  61  60     2.655116944302   121.21860661   359.95026461
 N     65  62  61     2.170014865376   178.55989043   359.46525948
 C     61  60  59     2.725171587166   115.28852407     0.21370704
 C     67  61  60     2.532141829854   119.39023829   359.91052330
 O     68  67  61     2.547482244233   124.46696493   359.97188453
 H      1   2   3     2.039994418969   124.00020278   180.26898048
 H      2   1   3     2.035865602803   120.86371340   179.53973061
 H      9   3   2     2.037126129271   119.53369131   176.40461061
 H     17  13  12     2.027108992728   123.42870975   178.08665377
 H     18  17  13     2.026205952492   126.61463119   176.92014903
 H     21  20  19     2.026698869612   124.81992607   352.62459984
 H     22  21  20     2.029253290185   127.25377339   183.63181005
 H     28  27  23     2.041076124645   115.29809165    18.88694740
 H     29  28  27     2.046605957891   117.98018471     3.16976801
 H     32  31  30     2.063223136726   109.73563674   311.05138205
 H     32  31  30     2.066787955187   105.86276831   194.24798852
 H     33  32  31     2.054776242345   111.31849428   301.59894397
 H     33  32  31     2.051811110735   109.40148116   181.60810074
 H     33  32  31     2.055063742940   110.15058255    62.17701488
 H     41  40  38     2.066004430592   106.10254214   339.73916644
 H     41  40  38     2.065819126588   109.41587183   222.47496154
 H     42  41  40     2.054307173074   110.02261418   299.92470682
 H     42  41  40     2.052283233900   109.63951555   180.56131456
 H     42  41  40     2.055604020006   111.18567408    60.26868100
 H     44  43  40     2.042926486546   119.18021507     0.91405187
 H     45  44  43     2.044572880236   118.23640903     0.74358780
 H     51  50  46     2.039550133894   120.87785407   359.37165303
 H     58  55  52     2.035201011051   119.75067768   179.95303979
 H     60  59  48     2.039502634443   119.64406667   359.65462109
 H     67  61  60     2.035299116065   119.75813433   179.96684864
 H     68  67  61     2.040021729892   124.09798368   180.01461005

---------------------
BASIS SET INFORMATION
---------------------
There are 5 groups of distinct atoms

 Group   1 Type C   : 7s4p1d contracted to 3s2p1d pattern {511/31/1}
 Group   2 Type N   : 7s4p1d contracted to 3s2p1d pattern {511/31/1}
 Group   3 Type O   : 7s4p1d contracted to 3s2p1d pattern {511/31/1}
 Group   4 Type S   : 10s7p1d contracted to 4s3p1d pattern {5311/511/1}
 Group   5 Type H   : 4s1p contracted to 2s1p pattern {31/1}

Atom   0C    basis set group =>   1
Atom   1C    basis set group =>   1
Atom   2C    basis set group =>   1
Atom   3C    basis set group =>   1
Atom   4C    basis set group =>   1
Atom   5N    basis set group =>   2
Atom   6C    basis set group =>   1
Atom   7N    basis set group =>   2
Atom   8C    basis set group =>   1
Atom   9C    basis set group =>   1
Atom  10O    basis set group =>   3
Atom  11C    basis set group =>   1
Atom  12C    basis set group =>   1
Atom  13N    basis set group =>   2
Atom  14O    basis set group =>   3
Atom  15O    basis set group =>   3
Atom  16C    basis set group =>   1
Atom  17C    basis set group =>   1
Atom  18C    basis set group =>   1
Atom  19C    basis set group =>   1
Atom  20C    basis set group =>   1
Atom  21C    basis set group =>   1
Atom  22C    basis set group =>   1
Atom  23N    basis set group =>   2
Atom  24O    basis set group =>   3
Atom  25O    basis set group =>   3
Atom  26C    basis set group =>   1
Atom  27C    basis set group =>   1
Atom  28C    basis set group =>   1
Atom  29C    basis set group =>   1
Atom  30N    basis set group =>   2
Atom  31C    basis set group =>   1
Atom  32C    basis set group =>   1
Atom  33C    basis set group =>   1
Atom  34O    basis set group =>   3
Atom  35C    basis set group =>   1
Atom  36C    basis set group =>   1
Atom  37C    basis set group =>   1
Atom  38O    basis set group =>   3
Atom  39N    basis set group =>   2
Atom  40C    basis set group =>   1
Atom  41C    basis set group =>   1
Atom  42C    basis set group =>   1
Atom  43C    basis set group =>   1
Atom  44C    basis set group =>   1
Atom  45C    basis set group =>   1
Atom  46S    basis set group =>   4
Atom  47C    basis set group =>   1
Atom  48C    basis set group =>   1
Atom  49C    basis set group =>   1
Atom  50C    basis set group =>   1
Atom  51C    basis set group =>   1
Atom  52C    basis set group =>   1
Atom  53N    basis set group =>   2
Atom  54C    basis set group =>   1
Atom  55C    basis set group =>   1
Atom  56N    basis set group =>   2
Atom  57C    basis set group =>   1
Atom  58C    basis set group =>   1
Atom  59C    basis set group =>   1
Atom  60C    basis set group =>   1
Atom  61C    basis set group =>   1
Atom  62C    basis set group =>   1
Atom  63N    basis set group =>   2
Atom  64C    basis set group =>   1
Atom  65N    basis set group =>   2
Atom  66C    basis set group =>   1
Atom  67C    basis set group =>   1
Atom  68O    basis set group =>   3
Atom  69H    basis set group =>   5
Atom  70H    basis set group =>   5
Atom  71H    basis set group =>   5
Atom  72H    basis set group =>   5
Atom  73H    basis set group =>   5
Atom  74H    basis set group =>   5
Atom  75H    basis set group =>   5
Atom  76H    basis set group =>   5
Atom  77H    basis set group =>   5
Atom  78H    basis set group =>   5
Atom  79H    basis set group =>   5
Atom  80H    basis set group =>   5
Atom  81H    basis set group =>   5
Atom  82H    basis set group =>   5
Atom  83H    basis set group =>   5
Atom  84H    basis set group =>   5
Atom  85H    basis set group =>   5
Atom  86H    basis set group =>   5
Atom  87H    basis set group =>   5
Atom  88H    basis set group =>   5
Atom  89H    basis set group =>   5
Atom  90H    basis set group =>   5
Atom  91H    basis set group =>   5
Atom  92H    basis set group =>   5
Atom  93H    basis set group =>   5
Atom  94H    basis set group =>   5
---------------------------------
AUXILIARY/J BASIS SET INFORMATION
---------------------------------
There are 5 groups of distinct atoms

 Group   1 Type C   : 12s5p4d2f1g contracted to 6s4p3d1f1g pattern {711111/2111/211/2/1}
 Group   2 Type N   : 12s5p4d2f1g contracted to 6s4p3d1f1g pattern {711111/2111/211/2/1}
 Group   3 Type O   : 12s5p4d2f1g contracted to 6s4p3d1f1g pattern {711111/2111/211/2/1}
 Group   4 Type S   : 14s5p5d2f1g contracted to 8s4p3d1f1g pattern {71111111/2111/311/2/1}
 Group   5 Type H   : 5s2p1d contracted to 3s1p1d pattern {311/2/1}

Atom   0C    basis set group =>   1
Atom   1C    basis set group =>   1
Atom   2C    basis set group =>   1
Atom   3C    basis set group =>   1
Atom   4C    basis set group =>   1
Atom   5N    basis set group =>   2
Atom   6C    basis set group =>   1
Atom   7N    basis set group =>   2
Atom   8C    basis set group =>   1
Atom   9C    basis set group =>   1
Atom  10O    basis set group =>   3
Atom  11C    basis set group =>   1
Atom  12C    basis set group =>   1
Atom  13N    basis set group =>   2
Atom  14O    basis set group =>   3
Atom  15O    basis set group =>   3
Atom  16C    basis set group =>   1
Atom  17C    basis set group =>   1
Atom  18C    basis set group =>   1
Atom  19C    basis set group =>   1
Atom  20C    basis set group =>   1
Atom  21C    basis set group =>   1
Atom  22C    basis set group =>   1
Atom  23N    basis set group =>   2
Atom  24O    basis set group =>   3
Atom  25O    basis set group =>   3
Atom  26C    basis set group =>   1
Atom  27C    basis set group =>   1
Atom  28C    basis set group =>   1
Atom  29C    basis set group =>   1
Atom  30N    basis set group =>   2
Atom  31C    basis set group =>   1
Atom  32C    basis set group =>   1
Atom  33C    basis set group =>   1
Atom  34O    basis set group =>   3
Atom  35C    basis set group =>   1
Atom  36C    basis set group =>   1
Atom  37C    basis set group =>   1
Atom  38O    basis set group =>   3
Atom  39N    basis set group =>   2
Atom  40C    basis set group =>   1
Atom  41C    basis set group =>   1
Atom  42C    basis set group =>   1
Atom  43C    basis set group =>   1
Atom  44C    basis set group =>   1
Atom  45C    basis set group =>   1
Atom  46S    basis set group =>   4
Atom  47C    basis set group =>   1
Atom  48C    basis set group =>   1
Atom  49C    basis set group =>   1
Atom  50C    basis set group =>   1
Atom  51C    basis set group =>   1
Atom  52C    basis set group =>   1
Atom  53N    basis set group =>   2
Atom  54C    basis set group =>   1
Atom  55C    basis set group =>   1
Atom  56N    basis set group =>   2
Atom  57C    basis set group =>   1
Atom  58C    basis set group =>   1
Atom  59C    basis set group =>   1
Atom  60C    basis set group =>   1
Atom  61C    basis set group =>   1
Atom  62C    basis set group =>   1
Atom  63N    basis set group =>   2
Atom  64C    basis set group =>   1
Atom  65N    basis set group =>   2
Atom  66C    basis set group =>   1
Atom  67C    basis set group =>   1
Atom  68O    basis set group =>   3
Atom  69H    basis set group =>   5
Atom  70H    basis set group =>   5
Atom  71H    basis set group =>   5
Atom  72H    basis set group =>   5
Atom  73H    basis set group =>   5
Atom  74H    basis set group =>   5
Atom  75H    basis set group =>   5
Atom  76H    basis set group =>   5
Atom  77H    basis set group =>   5
Atom  78H    basis set group =>   5
Atom  79H    basis set group =>   5
Atom  80H    basis set group =>   5
Atom  81H    basis set group =>   5
Atom  82H    basis set group =>   5
Atom  83H    basis set group =>   5
Atom  84H    basis set group =>   5
Atom  85H    basis set group =>   5
Atom  86H    basis set group =>   5
Atom  87H    basis set group =>   5
Atom  88H    basis set group =>   5
Atom  89H    basis set group =>   5
Atom  90H    basis set group =>   5
Atom  91H    basis set group =>   5
Atom  92H    basis set group =>   5
Atom  93H    basis set group =>   5
Atom  94H    basis set group =>   5


           ************************************************************
           *        Program running with 6 parallel MPI-processes     *
           *              working on a common directory               *
           ************************************************************
------------------------------------------------------------------------------
                           ORCA GTO INTEGRAL CALCULATION
                           -- RI-GTO INTEGRALS CHOSEN --
------------------------------------------------------------------------------

                         BASIS SET STATISTICS AND STARTUP INFO

Gaussian basis set:
 # of primitive gaussian shells          ...  964
 # of primitive gaussian functions       ... 1850
 # of contracted shells                  ...  494
 # of contracted basis functions         ... 1100
 Highest angular momentum                ...    2
 Maximum contraction depth               ...    5
Auxiliary gaussian basis set:
 # of primitive gaussian shells          ... 1867
 # of primitive gaussian functions       ... 5253
 # of contracted shells                  ... 1167
 # of contracted aux-basis functions     ... 3669
 Highest angular momentum                ...    4
 Maximum contraction depth               ...    7
Ratio of auxiliary to basis functions    ...  3.34
Integral package used                  ... LIBINT
 One Electron integrals                  ... done
 Ordering auxiliary basis shells         ... done
 Integral threshhold             Thresh  ...  2.500e-11
 Primitive cut-off               TCut    ...  2.500e-12
 Pre-screening matrix                    ... done
 Shell pair data                         ... 
 Ordering of the shell pairs             ... done (   0.009 sec) 45627 of 122265 pairs
 Determination of significant pairs      ... done (   0.000 sec)
 Creation of shell pair data             ... done (   0.005 sec)
 Storage of shell pair data              ... done (   0.022 sec)
 Shell pair data done in (   0.049 sec)
 Computing two index integrals           ... done
 Cholesky decomposition of the V-matrix  ... done


Timings:
 Total evaluation time                   ...   3.901 sec (  0.065 min)
 One electron matrix time                ...   0.641 sec (  0.011 min) = 16.4%
 Schwartz matrix evaluation time         ...   0.773 sec (  0.013 min) = 19.8%
 Two index repulsion integral time       ...   0.413 sec (  0.007 min) = 10.6%
 Cholesky decomposition of V             ...   2.009 sec (  0.033 min) = 51.5%
 Three index repulsion integral time     ...   0.000 sec (  0.000 min) =  0.0%



           ************************************************************
           *        Program running with 6 parallel MPI-processes     *
           *              working on a common directory               *
           ************************************************************
-------------------------------------------------------------------------------
                                 ORCA SCF
-------------------------------------------------------------------------------

------------
SCF SETTINGS
------------
Hamiltonian:
 Density Functional     Method          .... DFT(GTOs)
 Exchange Functional    Exchange        .... WB88
 Correlation Functional Correlation     .... LYP
 LDA part of GGA corr.  LDAOpt          .... VWN-5
 Gradients option       PostSCFGGA      .... off
 Hybrid DFT is turned on
   Fraction HF Exchange ScalHFX         ....  0.190000
   Scaling of DF-GGA-X  ScalDFX         ....  0.350000
   Scaling of DF-GGA-C  ScalDFC         ....  0.810000
   Scaling of DF-LDA-C  ScalLDAC        ....  1.000000
   Perturbative correction              ....  0.000000
   Density functional embedding theory  .... OFF
 Long-range corrected/Screened/Range-Separated Hybrid DFT is turned on
   Amount of maximum screened exact exchange              ....  0.460000
   Range separation parameter mu (erf(mu*r12)/r12)        ....  0.330000
 RI-approximation to the Coulomb term is turned on
   Number of auxiliary basis functions  .... 3669
   RIJ-COSX (HFX calculated with COS-X)).... on


General Settings:
 Integral files         IntName         .... xtbopt
 Hartree-Fock type      HFTyp           .... RHF
 Total Charge           Charge          ....    0
 Multiplicity           Mult            ....    1
 Number of Electrons    NEL             ....  476
 Basis Dimension        Dim             .... 1100
 Nuclear Repulsion      ENuc            ....   9461.2329860538 Eh

Convergence Acceleration:
 DIIS                   CNVDIIS         .... on
   Start iteration      DIISMaxIt       ....    12
   Startup error        DIISStart       ....  0.200000
   # of expansion vecs  DIISMaxEq       ....     5
   Bias factor          DIISBfac        ....   1.050
   Max. coefficient     DIISMaxC        ....  10.000
 Newton-Raphson         CNVNR           .... off
 SOSCF                  CNVSOSCF        .... on
   Start iteration      SOSCFMaxIt      ....   150
   Startup grad/error   SOSCFStart      ....  0.003300
 Level Shifting         CNVShift        .... on
   Level shift para.    LevelShift      ....    0.2500
   Turn off err/grad.   ShiftErr        ....    0.0010
 Zerner damping         CNVZerner       .... off
 Static damping         CNVDamp         .... on
   Fraction old density DampFac         ....    0.7000
   Max. Damping (<1)    DampMax         ....    0.9800
   Min. Damping (>=0)   DampMin         ....    0.0000
   Turn off err/grad.   DampErr         ....    0.1000
 Fernandez-Rico         CNVRico         .... off

SCF Procedure:
 Maximum # iterations   MaxIter         ....   125
 SCF integral mode      SCFMode         .... Direct
   Integral package                     .... LIBINT
 Reset frequency        DirectResetFreq ....    20
 Integral Threshold     Thresh          ....  2.500e-11 Eh
 Primitive CutOff       TCut            ....  2.500e-12 Eh

Convergence Tolerance:
 Convergence Check Mode ConvCheckMode   .... Total+1el-Energy
 Convergence forced     ConvForced      .... 1
 Energy Change          TolE            ....  1.000e-08 Eh
 1-El. energy change                    ....  1.000e-05 Eh
 Orbital Gradient       TolG            ....  1.000e-05
 Orbital Rotation angle TolX            ....  1.000e-05
 DIIS Error             TolErr          ....  5.000e-07


Diagonalization of the overlap matrix:
Smallest eigenvalue                        ... 1.754e-04
Time for diagonalization                   ...    0.795 sec
Threshold for overlap eigenvalues          ... 1.000e-08
Number of eigenvalues below threshold      ... 0
Time for construction of square roots      ...    0.572 sec
Total time needed                          ...    1.368 sec

-------------------
DFT GRID GENERATION
-------------------

General Integration Accuracy     IntAcc      ...  4.670
Radial Grid Type                 RadialGrid  ... Gauss-Chebyshev
Angular Grid (max. acc.)         AngularGrid ... Lebedev-302
Angular grid pruning method      GridPruning ... 3 (G Style)
Weight generation scheme         WeightScheme... Becke
Basis function cutoff            BFCut       ...    1.0000e-11
Integration weight cutoff        WCut        ...    1.0000e-14
Grids for H and He will be reduced by one unit

# of grid points (after initial pruning)     ... 517506 (   0.0 sec)
# of grid points (after weights+screening)   ... 442210 (   5.8 sec)
nearest neighbour list constructed           ...    0.0 sec
Grid point re-assignment to atoms done       ...    0.1 sec
Grid point division into batches done        ...    2.1 sec
Reduced shell lists constructed in    3.0 sec

Total number of grid points                  ...   442210
Total number of batches                      ...     6961
Average number of points per batch           ...       63
Average number of grid points per atom       ...     4655
Average number of shells per batch           ...    91.32 (18.49%)
Average number of basis functions per batch  ...   189.93 (17.27%)
Average number of large shells per batch     ...    53.48 (58.56%)
Average number of large basis fcns per batch ...   114.48 (60.28%)
Maximum spatial batch extension              ...  19.42, 20.23, 21.17 au
Average spatial batch extension              ...   0.35,  0.36,  0.36 au

Time for grid setup =    9.645 sec

------------------------------
INITIAL GUESS: MODEL POTENTIAL
------------------------------
Loading Hartree-Fock densities                     ... done
Calculating cut-offs                               ... done
Setting up the integral package                    ... done
Initializing the effective Hamiltonian             ... done
Starting the Coulomb interaction                   ... done (   1.6 sec)
Reading the grid                                   ... done
Mapping shells                                     ... done
Starting the XC term evaluation                    ... done (   1.6 sec)
  promolecular density results
     # of electrons  =    475.986742384
     EX              =   -419.003403405
     EC              =    -16.229870512
     EX+EC           =   -435.233273917
Transforming the Hamiltonian                       ... done (   0.6 sec)
Diagonalizing the Hamiltonian                      ... done (   0.9 sec)
Back transforming the eigenvectors                 ... done (   0.1 sec)
Now organizing SCF variables                       ... done
                      ------------------
                      INITIAL GUESS DONE (  14.6 sec)
                      ------------------
--------------------
COSX GRID GENERATION
--------------------

General Integration Accuracy     IntAcc      ...  3.340
Radial Grid Type                 RadialGrid  ... Gauss-Chebyshev
Angular Grid (max. acc.)         AngularGrid ... Lebedev-50
Angular grid pruning method      GridPruning ... 3 (G Style)
Weight generation scheme         WeightScheme... Becke
Basis function cutoff            BFCut       ...    1.0000e-11
Integration weight cutoff        WCut        ...    1.0000e-14
Grids for H and He will be reduced by one unit

# of grid points (after initial pruning)     ...  48326 (   0.0 sec)
# of grid points (after weights+screening)   ...  43171 (   0.6 sec)
nearest neighbour list constructed           ...    0.0 sec
Grid point re-assignment to atoms done       ...    0.0 sec
Grid point division into batches done        ...    0.0 sec
Reduced shell lists constructed in    0.1 sec

Total number of grid points                  ...    43171
Total number of batches                      ...      728
Average number of points per batch           ...       59
Average number of grid points per atom       ...      454
Average number of shells per batch           ...   113.12 (22.90%)
Average number of basis functions per batch  ...   235.97 (21.45%)
Average number of large shells per batch     ...    65.58 (57.97%)
Average number of large basis fcns per batch ...   141.53 (59.98%)
Maximum spatial batch extension              ...  15.68, 14.88, 16.92 au
Average spatial batch extension              ...   0.65,  0.65,  0.74 au

Overlap Fitting                  UseSFitting ... on
Constructing numerical overlap ... done (      0.2 sec)
Inverting numerical overlap    ... done (      0.3 sec)
Obtaining analytic overlap     ... done (      0.0 sec)
Final contraction and storage  ... done (      0.4 sec)


General Integration Accuracy     IntAcc      ...  3.670
Radial Grid Type                 RadialGrid  ... Gauss-Chebyshev
Angular Grid (max. acc.)         AngularGrid ... Lebedev-50
Angular grid pruning method      GridPruning ... 3 (G Style)
Weight generation scheme         WeightScheme... Becke
Basis function cutoff            BFCut       ...    1.0000e-11
Integration weight cutoff        WCut        ...    1.0000e-14
Grids for H and He will be reduced by one unit

# of grid points (after initial pruning)     ...  60406 (   0.0 sec)
# of grid points (after weights+screening)   ...  53710 (   0.5 sec)
nearest neighbour list constructed           ...    0.0 sec
Grid point re-assignment to atoms done       ...    0.0 sec
Grid point division into batches done        ...    0.0 sec
Reduced shell lists constructed in    0.2 sec

Total number of grid points                  ...    53710
Total number of batches                      ...      888
Average number of points per batch           ...       60
Average number of grid points per atom       ...      565
Average number of shells per batch           ...   109.88 (22.24%)
Average number of basis functions per batch  ...   228.82 (20.80%)
Average number of large shells per batch     ...    63.15 (57.47%)
Average number of large basis fcns per batch ...   136.03 (59.45%)
Maximum spatial batch extension              ...  17.08, 15.91, 18.73 au
Average spatial batch extension              ...   0.60,  0.62,  0.72 au

Overlap Fitting                  UseSFitting ... on
Constructing numerical overlap ... done (      0.3 sec)
Inverting numerical overlap    ... done (      0.1 sec)
Obtaining analytic overlap     ... done (      0.0 sec)
Final contraction and storage  ... done (      0.4 sec)


General Integration Accuracy     IntAcc      ...  4.010
Radial Grid Type                 RadialGrid  ... Gauss-Chebyshev
Angular Grid (max. acc.)         AngularGrid ... Lebedev-110
Angular grid pruning method      GridPruning ... 3 (G Style)
Weight generation scheme         WeightScheme... Becke
Basis function cutoff            BFCut       ...    1.0000e-11
Integration weight cutoff        WCut        ...    1.0000e-14
Grids for H and He will be reduced by one unit

# of grid points (after initial pruning)     ... 118456 (   0.0 sec)
# of grid points (after weights+screening)   ... 104390 (   1.1 sec)
nearest neighbour list constructed           ...    0.0 sec
Grid point re-assignment to atoms done       ...    0.0 sec
Grid point division into batches done        ...    0.1 sec
Reduced shell lists constructed in    0.3 sec

Total number of grid points                  ...   104390
Total number of batches                      ...     1680
Average number of points per batch           ...       62
Average number of grid points per atom       ...     1099
Average number of shells per batch           ...   103.16 (20.88%)
Average number of basis functions per batch  ...   215.42 (19.58%)
Average number of large shells per batch     ...    60.76 (58.90%)
Average number of large basis fcns per batch ...   130.75 (60.69%)
Maximum spatial batch extension              ...  17.14, 19.11, 20.76 au
Average spatial batch extension              ...   0.53,  0.54,  0.57 au

Overlap Fitting                  UseSFitting ... on
Constructing numerical overlap ... done (      0.6 sec)
Inverting numerical overlap    ... done (      0.1 sec)
Obtaining analytic overlap     ... done (      0.0 sec)
Final contraction and storage  ... done (      0.4 sec)

Time for X-Grid setup             =    6.213 sec
--------------
SCF ITERATIONS
--------------
ITER       Energy         Delta-E        Max-DP      RMS-DP      [F,P]     Damp
               ***  Starting incremental Fock matrix formation  ***
  0  -3462.6692033147   0.000000000000 0.08184942  0.00101313  0.2240664 0.7000
  1  -3463.3230038536  -0.653800538958 0.04556945  0.00070512  0.1050155 0.7000
                               ***Turning on DIIS***
  2  -3463.5939937727  -0.270989919041 0.08764068  0.00129598  0.0405803 0.0000
  3  -3464.0442188137  -0.450225041081 0.07773025  0.00052543  0.0504678 0.0000
  4  -3464.1283049850  -0.084086171266 0.01769890  0.00019658  0.0165689 0.0000
  5  -3464.1361070126  -0.007802027634 0.00650673  0.00007340  0.0049256 0.0000
  6  -3464.1378028490  -0.001695836407 0.00351172  0.00004847  0.0011062 0.0000
  7  -3464.1387405886  -0.000937739514 0.00433676  0.00009618  0.0008812 0.0000
               *** Restarting incremental Fock matrix formation ***
                                   *** Resetting DIIS ***
                      *** Initiating the SOSCF procedure ***
                           *** Shutting down DIIS ***
                      *** Re-Reading the Fockian *** 
                      *** Removing any level shift *** 
ITER      Energy       Delta-E        Grad      Rot      Max-DP    RMS-DP
  8  -3464.14008741  -0.0013468212  0.001761  0.001761  0.003791  0.000039
               *** Restarting incremental Fock matrix formation ***
  9  -3464.14030898  -0.0002215683  0.002369  0.019983  0.002699  0.000052
 10  -3464.14052826  -0.0002192850  0.001271  0.017928  0.003397  0.000056
 11  -3464.14085189  -0.0003236301  0.000355  0.007873  0.002663  0.000034
 12  -3464.14086306  -0.0000111628  0.000695  0.001595  0.000873  0.000010
 13  -3464.14089765  -0.0000345962  0.000233  0.001309  0.000623  0.000006
 14  -3464.14089842  -0.0000007716  0.000139  0.000411  0.000330  0.000003
 15  -3464.14090137  -0.0000029453  0.000040  0.000518  0.000163  0.000002
 16  -3464.14090145  -0.0000000793  0.000031  0.000266  0.000095  0.000001
 17  -3464.14090167  -0.0000002252  0.000014  0.000100  0.000072  0.000001
 18  -3464.14090169  -0.0000000137  0.000017  0.000018  0.000040  0.000000
 19  -3464.14090172  -0.0000000308  0.000004  0.000022  0.000021  0.000000
 20  -3464.14090168   0.0000000369  0.000003  0.000008  0.000010  0.000000
                  ***Gradient check signals convergence***
              ***Rediagonalizing the Fockian in SOSCF/NRSCF***

               *****************************************************
               *                     SUCCESS                       *
               *           SCF CONVERGED AFTER  21 CYCLES          *
               *****************************************************

Setting up the final grid:

General Integration Accuracy     IntAcc      ...  5.010
Radial Grid Type                 RadialGrid  ... Gauss-Chebyshev
Angular Grid (max. acc.)         AngularGrid ... Lebedev-434
Angular grid pruning method      GridPruning ... 3 (G Style)
Weight generation scheme         WeightScheme... Becke
Basis function cutoff            BFCut       ...    1.0000e-11
Integration weight cutoff        WCut        ...    1.0000e-14
Grids for H and He will be reduced by one unit

# of grid points (after initial pruning)     ... 913268 (   0.0 sec)
# of grid points (after weights+screening)   ... 777552 (   7.8 sec)
nearest neighbour list constructed           ...    0.0 sec
Grid point re-assignment to atoms done       ...    0.1 sec
Grid point division into batches done        ...    5.4 sec
Reduced shell lists constructed in    6.9 sec

Total number of grid points                  ...   777552
Total number of batches                      ...    12196
Average number of points per batch           ...       63
Average number of grid points per atom       ...     8185
Average number of shells per batch           ...    88.37 (17.89%)
Average number of basis functions per batch  ...   183.62 (16.69%)
Average number of large shells per batch     ...    51.64 (58.43%)
Average number of large basis fcns per batch ...   110.49 (60.17%)
Maximum spatial batch extension              ...  18.66, 21.00, 19.30 au
Average spatial batch extension              ...   0.28,  0.29,  0.29 au

Final grid set up in   15.1 sec
Final integration                            ... done (   2.8 sec)
Change in XC energy                          ...    -0.000087558
Integrated number of electrons               ...   476.000048620
Previous integrated no of electrons          ...   475.999573432
Old exchange energy                            =   -118.055219155 Eh
New exchange energy                            =   -118.054201142 Eh
Exchange energy change after final integration =      0.001018013 Eh
Total energy after final integration           =  -3464.139971274 Eh
Final COS-X integration done in                =    53.614 sec

----------------
TOTAL SCF ENERGY
----------------

Total Energy       :        -3464.13997127 Eh          -94264.04091 eV

Components:
Nuclear Repulsion  :         9461.23298605 Eh          257453.23822 eV
Electronic Energy  :       -12925.37295733 Eh         -351717.27913 eV
One Electron Energy:       -23552.90377970 Eh         -640907.09493 eV
Two Electron Energy:        10627.53082237 Eh          289189.81580 eV

Virial components:
Potential Energy   :        -6900.39426806 Eh         -187769.27404 eV
Kinetic Energy     :         3436.25429679 Eh           93505.23313 eV
Virial Ratio       :            2.00811514


DFT components:
N(Alpha)           :      238.000024310217 electrons
N(Beta)            :      238.000024310217 electrons
N(Total)           :      476.000048620435 electrons
E(XC)              :     -324.611880669608 Eh       
DFET-embed. en.    :        0.000000000000 Eh       

---------------
SCF CONVERGENCE
---------------

  Last Energy change         ...   -4.7063e-08  Tolerance :   1.0000e-08
  Last MAX-Density change    ...    6.6613e-15  Tolerance :   1.0000e-07
  Last RMS-Density change    ...    3.6965e-17  Tolerance :   5.0000e-09
  Last Orbital Gradient      ...    6.1627e-07  Tolerance :   1.0000e-05
  Last Orbital Rotation      ...    3.8787e-06  Tolerance :   1.0000e-05

             **** THE GBW FILE WAS UPDATED (xtbopt.gbw) ****
             **** DENSITY FILE WAS UPDATED (xtbopt.scfp) ****
             **** ENERGY FILE WAS UPDATED (xtbopt.en.tmp) ****
             **** THE GBW FILE WAS UPDATED (xtbopt.gbw) ****
             **** DENSITY FILE WAS UPDATED (xtbopt.scfp) ****
----------------
ORBITAL ENERGIES
----------------

  NO   OCC          E(Eh)            E(eV) 
   0   2.0000     -89.027585     -2422.5638 
   1   2.0000     -19.351102      -526.5702 
   2   2.0000     -19.328083      -525.9439 
   3   2.0000     -19.252687      -523.8923 
   4   2.0000     -19.251498      -523.8599 
   5   2.0000     -19.243179      -523.6335 
   6   2.0000     -19.242091      -523.6039 
   7   2.0000     -19.229019      -523.2482 
   8   2.0000     -19.222397      -523.0680 
   9   2.0000     -14.660516      -398.9329 
  10   2.0000     -14.652681      -398.7197 
  11   2.0000     -14.487999      -394.2385 
  12   2.0000     -14.481830      -394.0706 
  13   2.0000     -14.430749      -392.6806 
  14   2.0000     -14.428171      -392.6105 
  15   2.0000     -14.417470      -392.3193 
  16   2.0000     -14.414590      -392.2409 
  17   2.0000     -14.401397      -391.8819 
  18   2.0000     -14.399738      -391.8368 
  19   2.0000     -10.418550      -283.5031 
  20   2.0000     -10.410167      -283.2750 
  21   2.0000     -10.405496      -283.1479 
  22   2.0000     -10.398334      -282.9531 
  23   2.0000     -10.394903      -282.8597 
  24   2.0000     -10.381374      -282.4915 
  25   2.0000     -10.380087      -282.4565 
  26   2.0000     -10.371088      -282.2117 
  27   2.0000     -10.364606      -282.0353 
  28   2.0000     -10.363909      -282.0163 
  29   2.0000     -10.359162      -281.8871 
  30   2.0000     -10.358769      -281.8764 
  31   2.0000     -10.357812      -281.8504 
  32   2.0000     -10.352034      -281.6932 
  33   2.0000     -10.348873      -281.6071 
  34   2.0000     -10.348170      -281.5880 
  35   2.0000     -10.344229      -281.4808 
  36   2.0000     -10.342931      -281.4455 
  37   2.0000     -10.342265      -281.4273 
  38   2.0000     -10.340609      -281.3823 
  39   2.0000     -10.338522      -281.3255 
  40   2.0000     -10.338178      -281.3161 
  41   2.0000     -10.337948      -281.3099 
  42   2.0000     -10.336636      -281.2742 
  43   2.0000     -10.336239      -281.2634 
  44   2.0000     -10.334639      -281.2198 
  45   2.0000     -10.334162      -281.2068 
  46   2.0000     -10.332707      -281.1672 
  47   2.0000     -10.331791      -281.1423 
  48   2.0000     -10.328161      -281.0435 
  49   2.0000     -10.328145      -281.0431 
  50   2.0000     -10.325858      -280.9809 
  51   2.0000     -10.325409      -280.9687 
  52   2.0000     -10.324476      -280.9433 
  53   2.0000     -10.322610      -280.8925 
  54   2.0000     -10.320561      -280.8367 
  55   2.0000     -10.319698      -280.8133 
  56   2.0000     -10.317491      -280.7532 
  57   2.0000     -10.316283      -280.7203 
  58   2.0000     -10.314217      -280.6641 
  59   2.0000     -10.309821      -280.5445 
  60   2.0000     -10.306192      -280.4457 
  61   2.0000     -10.305266      -280.4205 
  62   2.0000     -10.304104      -280.3889 
  63   2.0000     -10.303347      -280.3683 
  64   2.0000     -10.301974      -280.3310 
  65   2.0000     -10.299323      -280.2588 
  66   2.0000     -10.297362      -280.2055 
  67   2.0000     -10.285244      -279.8757 
  68   2.0000     -10.278040      -279.6797 
  69   2.0000      -8.121980      -221.0103 
  70   2.0000      -6.090949      -165.7431 
  71   2.0000      -6.086843      -165.6314 
  72   2.0000      -6.084854      -165.5773 
  73   2.0000      -1.332048       -36.2469 
  74   2.0000      -1.321954       -35.9722 
  75   2.0000      -1.260311       -34.2948 
  76   2.0000      -1.243378       -33.8340 
  77   2.0000      -1.167830       -31.7783 
  78   2.0000      -1.159135       -31.5417 
  79   2.0000      -1.149525       -31.2802 
  80   2.0000      -1.139257       -31.0008 
  81   2.0000      -1.098300       -29.8863 
  82   2.0000      -1.085360       -29.5341 
  83   2.0000      -1.059255       -28.8238 
  84   2.0000      -1.034573       -28.1522 
  85   2.0000      -1.026791       -27.9404 
  86   2.0000      -1.017631       -27.6911 
  87   2.0000      -1.012991       -27.5649 
  88   2.0000      -1.009405       -27.4673 
  89   2.0000      -1.001519       -27.2527 
  90   2.0000      -0.995019       -27.0758 
  91   2.0000      -0.990928       -26.9645 
  92   2.0000      -0.980781       -26.6884 
  93   2.0000      -0.979791       -26.6615 
  94   2.0000      -0.971868       -26.4459 
  95   2.0000      -0.963536       -26.2191 
  96   2.0000      -0.958872       -26.0922 
  97   2.0000      -0.940910       -25.6035 
  98   2.0000      -0.936319       -25.4785 
  99   2.0000      -0.931945       -25.3595 
 100   2.0000      -0.923358       -25.1259 
 101   2.0000      -0.916368       -24.9356 
 102   2.0000      -0.907511       -24.6946 
 103   2.0000      -0.898769       -24.4568 
 104   2.0000      -0.894626       -24.3440 
 105   2.0000      -0.892847       -24.2956 
 106   2.0000      -0.880113       -23.9491 
 107   2.0000      -0.873512       -23.7695 
 108   2.0000      -0.863913       -23.5083 
 109   2.0000      -0.845218       -22.9996 
 110   2.0000      -0.844615       -22.9831 
 111   2.0000      -0.830390       -22.5961 
 112   2.0000      -0.818680       -22.2774 
 113   2.0000      -0.807207       -21.9652 
 114   2.0000      -0.794176       -21.6106 
 115   2.0000      -0.791783       -21.5455 
 116   2.0000      -0.787340       -21.4246 
 117   2.0000      -0.784266       -21.3410 
 118   2.0000      -0.783222       -21.3125 
 119   2.0000      -0.756929       -20.5971 
 120   2.0000      -0.754059       -20.5190 
 121   2.0000      -0.745695       -20.2914 
 122   2.0000      -0.744420       -20.2567 
 123   2.0000      -0.734887       -19.9973 
 124   2.0000      -0.722101       -19.6494 
 125   2.0000      -0.721524       -19.6337 
 126   2.0000      -0.702482       -19.1155 
 127   2.0000      -0.695745       -18.9322 
 128   2.0000      -0.693636       -18.8748 
 129   2.0000      -0.686874       -18.6908 
 130   2.0000      -0.683912       -18.6102 
 131   2.0000      -0.682122       -18.5615 
 132   2.0000      -0.676987       -18.4218 
 133   2.0000      -0.663742       -18.0613 
 134   2.0000      -0.661814       -18.0089 
 135   2.0000      -0.650581       -17.7032 
 136   2.0000      -0.648427       -17.6446 
 137   2.0000      -0.642930       -17.4950 
 138   2.0000      -0.640685       -17.4339 
 139   2.0000      -0.635258       -17.2863 
 140   2.0000      -0.633683       -17.2434 
 141   2.0000      -0.631398       -17.1812 
 142   2.0000      -0.628613       -17.1054 
 143   2.0000      -0.626022       -17.0349 
 144   2.0000      -0.617582       -16.8053 
 145   2.0000      -0.614439       -16.7197 
 146   2.0000      -0.611938       -16.6517 
 147   2.0000      -0.609943       -16.5974 
 148   2.0000      -0.605438       -16.4748 
 149   2.0000      -0.600860       -16.3502 
 150   2.0000      -0.599192       -16.3049 
 151   2.0000      -0.598223       -16.2785 
 152   2.0000      -0.594210       -16.1693 
 153   2.0000      -0.594092       -16.1661 
 154   2.0000      -0.589181       -16.0324 
 155   2.0000      -0.586969       -15.9722 
 156   2.0000      -0.582411       -15.8482 
 157   2.0000      -0.581880       -15.8337 
 158   2.0000      -0.572291       -15.5728 
 159   2.0000      -0.571583       -15.5536 
 160   2.0000      -0.564093       -15.3498 
 161   2.0000      -0.562614       -15.3095 
 162   2.0000      -0.559554       -15.2262 
 163   2.0000      -0.557664       -15.1748 
 164   2.0000      -0.556232       -15.1359 
 165   2.0000      -0.554257       -15.0821 
 166   2.0000      -0.551740       -15.0136 
 167   2.0000      -0.545381       -14.8406 
 168   2.0000      -0.538030       -14.6406 
 169   2.0000      -0.536275       -14.5928 
 170   2.0000      -0.535815       -14.5803 
 171   2.0000      -0.529456       -14.4072 
 172   2.0000      -0.529149       -14.3989 
 173   2.0000      -0.517268       -14.0756 
 174   2.0000      -0.516731       -14.0610 
 175   2.0000      -0.514450       -13.9989 
 176   2.0000      -0.513921       -13.9845 
 177   2.0000      -0.510390       -13.8884 
 178   2.0000      -0.507546       -13.8110 
 179   2.0000      -0.502140       -13.6639 
 180   2.0000      -0.500570       -13.6212 
 181   2.0000      -0.496933       -13.5222 
 182   2.0000      -0.496067       -13.4987 
 183   2.0000      -0.495452       -13.4819 
 184   2.0000      -0.492283       -13.3957 
 185   2.0000      -0.486268       -13.2320 
 186   2.0000      -0.484817       -13.1925 
 187   2.0000      -0.482696       -13.1348 
 188   2.0000      -0.481131       -13.0923 
 189   2.0000      -0.478941       -13.0327 
 190   2.0000      -0.476006       -12.9528 
 191   2.0000      -0.472389       -12.8543 
 192   2.0000      -0.470820       -12.8117 
 193   2.0000      -0.467194       -12.7130 
 194   2.0000      -0.464109       -12.6290 
 195   2.0000      -0.463194       -12.6042 
 196   2.0000      -0.456431       -12.4201 
 197   2.0000      -0.455859       -12.4046 
 198   2.0000      -0.453431       -12.3385 
 199   2.0000      -0.452893       -12.3239 
 200   2.0000      -0.450386       -12.2556 
 201   2.0000      -0.446242       -12.1429 
 202   2.0000      -0.445440       -12.1210 
 203   2.0000      -0.441259       -12.0073 
 204   2.0000      -0.437191       -11.8966 
 205   2.0000      -0.436722       -11.8838 
 206   2.0000      -0.435820       -11.8593 
 207   2.0000      -0.434001       -11.8098 
 208   2.0000      -0.433006       -11.7827 
 209   2.0000      -0.431339       -11.7373 
 210   2.0000      -0.429983       -11.7004 
 211   2.0000      -0.429279       -11.6813 
 212   2.0000      -0.420249       -11.4356 
 213   2.0000      -0.417766       -11.3680 
 214   2.0000      -0.417181       -11.3521 
 215   2.0000      -0.415409       -11.3039 
 216   2.0000      -0.404715       -11.0129 
 217   2.0000      -0.402512       -10.9529 
 218   2.0000      -0.400489       -10.8979 
 219   2.0000      -0.395622       -10.7654 
 220   2.0000      -0.390665       -10.6305 
 221   2.0000      -0.389339       -10.5944 
 222   2.0000      -0.387048       -10.5321 
 223   2.0000      -0.382309       -10.4032 
 224   2.0000      -0.381295       -10.3756 
 225   2.0000      -0.379458       -10.3256 
 226   2.0000      -0.377784       -10.2800 
 227   2.0000      -0.370163       -10.0727 
 228   2.0000      -0.365434        -9.9440 
 229   2.0000      -0.362651        -9.8682 
 230   2.0000      -0.351181        -9.5561 
 231   2.0000      -0.348975        -9.4961 
 232   2.0000      -0.331226        -9.0131 
 233   2.0000      -0.323497        -8.8028 
 234   2.0000      -0.315302        -8.5798 
 235   2.0000      -0.295569        -8.0428 
 236   2.0000      -0.283326        -7.7097 
 237   2.0000      -0.256263        -6.9733 
 238   0.0000      -0.160681        -4.3723 
 239   0.0000      -0.133565        -3.6345 
 240   0.0000      -0.094952        -2.5838 
 241   0.0000      -0.070866        -1.9284 
 242   0.0000      -0.062446        -1.6992 
 243   0.0000      -0.050777        -1.3817 
 244   0.0000      -0.040858        -1.1118 
 245   0.0000      -0.035945        -0.9781 
 246   0.0000      -0.028806        -0.7838 
 247   0.0000      -0.012049        -0.3279 
 248   0.0000      -0.005449        -0.1483 
 249   0.0000       0.012923         0.3516 
 250   0.0000       0.014945         0.4067 
 251   0.0000       0.033816         0.9202 
 252   0.0000       0.042762         1.1636 
 253   0.0000       0.054970         1.4958 
 254   0.0000       0.058118         1.5815 
 255   0.0000       0.059944         1.6312 
 256   0.0000       0.066953         1.8219 
 257   0.0000       0.071962         1.9582 
 258   0.0000       0.074176         2.0184 
 259   0.0000       0.075382         2.0512 
 260   0.0000       0.080801         2.1987 
 261   0.0000       0.083395         2.2693 
 262   0.0000       0.092621         2.5204 
 263   0.0000       0.092898         2.5279 
 264   0.0000       0.098819         2.6890 
 265   0.0000       0.101302         2.7566 
 266   0.0000       0.103735         2.8228 
 267   0.0000       0.104713         2.8494 
 268   0.0000       0.105703         2.8763 
 269   0.0000       0.106602         2.9008 
 270   0.0000       0.108127         2.9423 
 271   0.0000       0.109753         2.9865 
 272   0.0000       0.110525         3.0075 
 273   0.0000       0.114007         3.1023 
 274   0.0000       0.114620         3.1190 
 275   0.0000       0.119080         3.2403 
 276   0.0000       0.120836         3.2881 
 277   0.0000       0.123594         3.3632 
 278   0.0000       0.124577         3.3899 
 279   0.0000       0.125374         3.4116 
 280   0.0000       0.129016         3.5107 
 281   0.0000       0.133236         3.6255 
 282   0.0000       0.134468         3.6590 
 283   0.0000       0.140922         3.8347 
 284   0.0000       0.144866         3.9420 
 285   0.0000       0.147618         4.0169 
 286   0.0000       0.149313         4.0630 
 287   0.0000       0.151139         4.1127 
 288   0.0000       0.153727         4.1831 
 289   0.0000       0.157022         4.2728 
 290   0.0000       0.157358         4.2819 
 291   0.0000       0.160405         4.3649 
 292   0.0000       0.166573         4.5327 
 293   0.0000       0.170289         4.6338 
 294   0.0000       0.171509         4.6670 
 295   0.0000       0.172762         4.7011 
 296   0.0000       0.175030         4.7628 
 297   0.0000       0.178097         4.8463 
 298   0.0000       0.184897         5.0313 
 299   0.0000       0.187486         5.1017 
 300   0.0000       0.189875         5.1668 
 301   0.0000       0.191934         5.2228 
 302   0.0000       0.192570         5.2401 
 303   0.0000       0.198885         5.4119 
 304   0.0000       0.204182         5.5561 
 305   0.0000       0.209535         5.7017 
[...]
  45   4.540     273.1   0.139111   0.135029  262.105139  266.146700     0.42 (  97-> 106)    0.18 (  93-> 101)    0.05 (  97-> 102)
  46   4.594     269.9   0.365987   0.327533  529.598695  510.853597     0.18 (  90-> 100)    0.14 (  80->  99)    0.12 (  98-> 105)
  47   4.607     269.1   0.083596   0.077017  -354.678146  -340.255773     0.42 (  92-> 101)    0.12 (  97-> 104)    0.07 (  97-> 102)
  48   4.620     268.3   0.054086   0.048159  -5.899581  -8.073655     0.22 (  90-> 100)    0.13 (  98-> 108)    0.07 (  90->  99)
  49   4.634     267.6   0.079063   0.071769  -226.410234  -217.774419     0.34 (  92-> 101)    0.14 (  97-> 104)    0.08 (  97-> 102)
  50   4.696     264.0   0.049028   0.044557  -87.186715  -93.164859     0.12 (  93-> 101)    0.09 (  87->  99)    0.07 (  97-> 108)
  51   4.703     263.6   0.095818   0.080304  -72.561182  -73.098076     0.35 (  98-> 108)    0.07 (  95-> 103)    0.07 (  90-> 100)
  52   4.746     261.3   0.005408   0.004711  -0.292981  -0.052653     0.79 (  78->  99)    0.09 (  78-> 100)    0.06 (  74->  99)
  53   4.748     261.1   0.044520   0.040421  85.110413  81.747483     0.13 (  87->  99)    0.12 (  98-> 108)    0.10 (  87-> 100)
  54   4.790     258.8   0.015411   0.013005  30.034724  27.159382     0.17 (  96-> 104)    0.09 (  96-> 103)    0.07 (  96-> 102)
  55   4.870     254.6   0.012306   0.009022  15.350943  14.954663     0.38 (  86-> 100)    0.07 (  96-> 103)    0.04 (  85->  99)
  56   4.875     254.3   0.094552   0.091506  67.279157  65.420448     0.26 (  96-> 105)    0.14 (  80->  99)    0.10 (  98-> 109)
  57   4.923     251.8   0.101729   0.092585  -29.046755  -26.490990     0.15 (  97-> 108)    0.15 (  73->  99)    0.08 (  98-> 108)
  58   4.945     250.7   0.018534   0.019877  -47.965638  -48.904787     0.19 (  93-> 103)    0.14 (  73->  99)    0.08 (  93-> 104)
  59   4.966     249.7   0.007912   0.005887  60.083588  52.325334     0.21 (  89-> 101)    0.08 (  98-> 109)    0.07 (  97-> 102)
  60   4.980     249.0   0.011582   0.011060  19.163563  18.062480     0.29 (  89-> 101)    0.11 (  97-> 102)    0.10 (  97-> 103)
  61   4.993     248.3   0.010953   0.008951   4.433789   3.770741     0.11 (  85-> 100)    0.10 (  97-> 103)    0.08 (  84-> 100)

-----------------------------------------------------------------------------
         ABSORPTION SPECTRUM VIA TRANSITION ELECTRIC DIPOLE MOMENTS
-----------------------------------------------------------------------------
State   Energy  Wavelength   fosc         T2         TX        TY        TZ  
        (cm-1)    (nm)                  (au**2)     (au)      (au)      (au) 
-----------------------------------------------------------------------------
   0    5412.5   1847.6   0.289313867  17.59739  -2.21620   3.37164  -1.14799
   1   10851.9    921.5   0.083262404   2.52592  -0.75219   0.49313  -1.31032
   2   12337.2    810.6   0.379144757  10.11726   0.66787  -2.59582   1.71259
   3   15780.2    633.7   0.080457289   1.67853   0.22981  -1.15070   0.54918
   4   17166.1    582.5   0.183204817   3.51351   0.62660  -1.42818   1.03980
   5   18291.5    546.7   0.007433041   0.13378   0.26365  -0.17331   0.18502
   6   19913.4    502.2   0.014305854   0.23651   0.33097  -0.26997   0.23256
   7   20896.1    478.6   0.023574679   0.37141   0.24883   0.51635   0.20707
   8   22059.0    453.3   0.191929674   2.86439  -1.21149   1.08793   0.46163
   9   22835.6    437.9   0.012669417   0.18265  -0.05218  -0.19647   0.37594
  10   23352.5    428.2   0.066284187   0.93444  -0.16449  -0.36562   0.87960
  11   24237.9    412.6   0.077157031   1.04799  -0.87696   0.24460   0.46808
  12   24737.5    404.2   0.034287595   0.45631   0.56093  -0.35593  -0.12238
  13   25738.0    388.5   0.009823281   0.12565   0.02602  -0.03336  -0.35194
  14   25910.0    386.0   0.047589984   0.60468   0.04345  -0.22202  -0.74397
  15   26176.8    382.0   0.188998086   2.37693  -0.33173  -0.82971   1.25637
  16   26887.6    371.9   0.018333456   0.22447   0.11120  -0.19952   0.41509
  17   27930.2    358.0   0.004261621   0.05023  -0.01377   0.06769   0.21321
  18   28056.1    356.4   0.085669053   1.00525   0.47795   0.88091   0.02840
  19   28180.1    354.9   0.241426213   2.82045   0.77528   0.56268  -1.37941
  20   28724.3    348.1   0.072290276   0.82853   0.54007   0.24254  -0.69139
  21   28979.3    345.1   0.080135099   0.91035   0.44468  -0.77688   0.33027
  22   29372.3    340.5   0.040569427   0.45471   0.46243   0.49054  -0.01539
  23   29673.6    337.0   0.020375945   0.22606   0.18552   0.43533   0.04617
  24   29920.6    334.2   0.009154652   0.10073  -0.20563  -0.20465  -0.12868
  25   30021.6    333.1   0.054308305   0.59554  -0.39175   0.49020   0.44919
  26   30553.7    327.3   0.226628353   2.44189   0.55791   0.89768  -1.15100
  27   30822.2    324.4   0.036175102   0.38639   0.26608  -0.56100   0.02947
  28   31309.1    319.4   0.621654674   6.53664  -1.57947  -0.09735   2.00809
  29   31988.5    312.6   0.171993286   1.77008  -0.56805  -1.17675   0.25032
  30   32371.0    308.9   0.136932544   1.39260  -0.51295  -0.95618  -0.46390
  31   32541.9    307.3   0.036453109   0.36878  -0.58199   0.17324   0.00725
  32   32655.7    306.2   0.050837127   0.51250   0.42347   0.56967   0.09301
  33   32833.4    304.6   0.070842348   0.71032  -0.73040   0.16377  -0.38732
  34   33309.9    300.2   0.024063334   0.23783   0.17783   0.26002   0.37228
  35   33519.0    298.3   0.073978071   0.72659  -0.27536  -0.77247  -0.23249
  36   33809.8    295.8   0.107471729   1.04647   0.32506  -0.96782  -0.06436
  37   33923.0    294.8   0.101430155   0.98435   0.59397   0.65241  -0.45377
  38   34227.0    292.2   0.142482405   1.37046  -0.50453  -1.01292   0.29986
  39   34941.3    286.2   0.057989393   0.54637   0.45707  -0.51513  -0.26849
  40   35278.5    283.5   0.166473483   1.55350   0.34509   0.39710  -1.12992
  41   35623.2    280.7   0.063207717   0.58413   0.25982   0.71573   0.06601
  42   35690.1    280.2   0.212912403   1.96395  -0.61012  -1.25139  -0.16038
  43   36005.4    277.7   0.008788644   0.08036  -0.00326  -0.25827  -0.11680
  44   36305.3    275.4   0.009766360   0.08856   0.16345  -0.19026  -0.16014
  45   36620.8    273.1   0.139111276   1.25058   0.56651   0.44692   0.85435
  46   37056.6    269.9   0.365987037   3.25144   0.59028   0.06403  -1.70262
  47   37161.6    269.1   0.083595736   0.74057   0.71655   0.33453  -0.33943
  48   37266.3    268.3   0.054086261   0.47780  -0.36656  -0.02712   0.58540
  49   37373.0    267.6   0.079062556   0.69645  -0.74834  -0.16631   0.32980
  50   37879.2    264.0   0.049027929   0.42611   0.64219   0.07940   0.08600
  51   37934.5    263.6   0.095818222   0.83155  -0.82885  -0.01696   0.37983
  52   38275.1    261.3   0.005407539   0.04651   0.21444  -0.01115   0.02007
  53   38294.9    261.1   0.044520126   0.38273   0.26900  -0.46247   0.31063
  54   38637.5    258.8   0.015410681   0.13131  -0.17195   0.28407  -0.14506
  55   39278.6    254.6   0.012306009   0.10314  -0.28193   0.15180  -0.02474
  56   39321.5    254.3   0.094552154   0.79162  -0.55968   0.64081   0.26027
  57   39708.4    251.8   0.101728650   0.84341   0.56198  -0.63645  -0.35003
  58   39883.0    250.7   0.018534405   0.15299   0.36113  -0.09528   0.11617
  59   40052.2    249.7   0.007912149   0.06503  -0.25097  -0.04307  -0.01387
  60   40164.8    249.0   0.011582066   0.09493  -0.18843   0.18471   0.15908
  61   40271.5    248.3   0.010953259   0.08954  -0.16499   0.00099   0.24963

-----------------------------------------------------------------------------
         ABSORPTION SPECTRUM VIA TRANSITION VELOCITY DIPOLE MOMENTS
-----------------------------------------------------------------------------
State   Energy  Wavelength   fosc         P2         PX        PY        PZ  
        (cm-1)    (nm)                  (au**2)     (au)      (au)      (au) 
-----------------------------------------------------------------------------
   0    5412.5   1847.6   1.530350715   0.05661  -0.11429   0.19175  -0.08233
   1   10851.9    921.5   0.167469716   0.01242  -0.05396   0.04247  -0.08778
   2   12337.2    810.6   0.653954898   0.05514   0.04827  -0.19146   0.12710
   3   15780.2    633.7   0.102615637   0.01107   0.01925  -0.09418   0.04273
   4   17166.1    582.5   0.211794267   0.02485   0.05235  -0.11887   0.08931
   5   18291.5    546.7   0.006845487   0.00086   0.02340  -0.01352   0.01119
   6   19913.4    502.2   0.026625350   0.00362   0.03126  -0.03884   0.03374
   7   20896.1    478.6   0.029542979   0.00422   0.02542   0.05770   0.01561
   8   22059.0    453.3   0.186347274   0.02809  -0.12190   0.10038   0.05620
   9   22835.6    437.9   0.015023511   0.00234  -0.00468  -0.02372   0.04196
  10   23352.5    428.2   0.082381998   0.01315  -0.01320  -0.05065   0.10202
  11   24237.9    412.6   0.082253183   0.01363  -0.09946   0.02054   0.05754
  12   24737.5    404.2   0.035504482   0.00600   0.06558  -0.03874  -0.01416
  13   25738.0    388.5   0.009364173   0.00165   0.00298  -0.00386  -0.04029
  14   25910.0    386.0   0.048088914   0.00852   0.00839  -0.02751  -0.08768
  15   26176.8    382.0   0.204336988   0.03656  -0.04157  -0.10556   0.15390
  16   26887.6    371.9   0.019021218   0.00350   0.01272  -0.02854   0.05019
  17   27930.2    358.0   0.004108156   0.00078  -0.00284   0.00709   0.02694
  18   28056.1    356.4   0.087350889   0.01675   0.06363   0.11268   0.00213
  19   28180.1    354.9   0.244994447   0.04719   0.10136   0.07142  -0.17836
  20   28724.3    348.1   0.076074696   0.01493   0.07152   0.03343  -0.09329
  21   28979.3    345.1   0.073680072   0.01459   0.05455  -0.09724   0.04649
  22   29372.3    340.5   0.040617234   0.00815   0.06151   0.06607  -0.00233
  23   29673.6    337.0   0.024100143   0.00489   0.02497   0.06525   0.00254
  24   29920.6    334.2   0.009473665   0.00194  -0.02890  -0.02874  -0.01662
  25   30021.6    333.1   0.050693950   0.01040  -0.05364   0.06890   0.05269
  26   30553.7    327.3   0.217984277   0.04552   0.07107   0.12608  -0.15676
  27   30822.2    324.4   0.033842786   0.00713   0.03730  -0.07574  -0.00108
  28   31309.1    319.4   0.600325644   0.12846  -0.21719  -0.02174   0.28428
  29   31988.5    312.6   0.172589618   0.03773  -0.07944  -0.17351   0.03627
  30   32371.0    308.9   0.128163353   0.02835  -0.07032  -0.13817  -0.06573
  31   32541.9    307.3   0.031868632   0.00709  -0.08087   0.02339  -0.00083
  32   32655.7    306.2   0.049327296   0.01101   0.05998   0.08512   0.01289
  33   32833.4    304.6   0.071309433   0.01600  -0.10977   0.02848  -0.05605
  34   33309.9    300.2   0.022467179   0.00511   0.02730   0.03830   0.05388
  35   33519.0    298.3   0.074399254   0.01704  -0.04206  -0.11936  -0.03204
  36   33809.8    295.8   0.090846310   0.02099   0.04416  -0.13760  -0.01044
  37   33923.0    294.8   0.091861892   0.02130   0.09166   0.09270  -0.06561
  38   34227.0    292.2   0.139525988   0.03264  -0.07306  -0.15854   0.04654
  39   34941.3    286.2   0.051852047   0.01238   0.06985  -0.07652  -0.04060
  40   35278.5    283.5   0.150231401   0.03622   0.05383   0.05847  -0.17293
  41   35623.2    280.7   0.057782202   0.01407   0.04127   0.11090   0.00814
  42   35690.1    280.2   0.197521462   0.04818  -0.09788  -0.19520  -0.02228
  43   36005.4    277.7   0.008147234   0.00200  -0.00231  -0.04077  -0.01836
  44   36305.3    275.4   0.010279153   0.00255   0.02886  -0.03186  -0.02651
  45   36620.8    273.1   0.135029262   0.03380   0.09509   0.07230   0.13974
  46   37056.6    269.9   0.327532738   0.08295   0.09376   0.00973  -0.27215
  47   37161.6    269.1   0.077017203   0.01956   0.11673   0.05399  -0.05496
  48   37266.3    268.3   0.048158971   0.01227  -0.05671  -0.00831   0.09477
  49   37373.0    267.6   0.071768876   0.01833  -0.12349  -0.02416   0.04998
  50   37879.2    264.0   0.044556585   0.01154   0.10489   0.01713   0.01549
  51   37934.5    263.6   0.080303953   0.02082  -0.13071  -0.00651   0.06076
  52   38275.1    261.3   0.004711352   0.00123   0.03487  -0.00227   0.00339
  53   38294.9    261.1   0.040421127   0.01058   0.04642  -0.07713   0.04975
  54   38637.5    258.8   0.013005460   0.00343  -0.02608   0.04533  -0.02645
  55   39278.6    254.6   0.009021825   0.00242  -0.04455   0.02071  -0.00297
  56   39321.5    254.3   0.091506366   0.02459  -0.09850   0.11378   0.04410
  57   39708.4    251.8   0.092584672   0.02513   0.09636  -0.11072  -0.05985
  58   39883.0    250.7   0.019877446   0.00542   0.06609  -0.02166   0.02411
  59   40052.2    249.7   0.005886577   0.00161  -0.03895  -0.00902  -0.00356
  60   40164.8    249.0   0.011060427   0.00304  -0.03393   0.03314   0.02804
  61   40271.5    248.3   0.008950949   0.00246  -0.02732  -0.00017   0.04144

-------------------------------------------------------------------
                             CD SPECTRUM
-------------------------------------------------------------------
State   Energy Wavelength       R         MX        MY        MZ   
        (cm-1)   (nm)       (1e40*cgs)   (au)      (au)      (au)  
-------------------------------------------------------------------
   0    5412.5   1847.6    -123.55921   0.18190   0.31991   0.13184
   1   10851.9    921.5    219.01960   0.98570  -0.09983   0.10568
   2   12337.2    810.6    -95.66839  -0.57154  -0.53060  -0.34437
   3   15780.2    633.7    -25.09591  -0.21897  -0.22607  -0.18819
   4   17166.1    582.5    -56.22466  -1.09558  -0.91039  -0.36083
   5   18291.5    546.7     56.66102  -0.85586  -0.34312  -0.40098
   6   19913.4    502.2    -18.63033   0.81600   1.05062   0.39815
   7   20896.1    478.6     88.80702  -1.10190  -0.13560  -0.15718
   8   22059.0    453.3     22.74685  -2.24832  -1.88827  -1.65933
   9   22835.6    437.9      6.75318  -1.27313  -0.97652  -0.76325
  10   23352.5    428.2     23.81520  -1.88629  -1.30569  -1.01034
  11   24237.9    412.6     70.01874   0.17823   0.22420  -0.41783
  12   24737.5    404.2    -17.54796  -0.08192  -0.38606   0.13904
  13   25738.0    388.5     45.00050   0.82795   0.50139   0.55611
  14   25910.0    386.0    223.46831   2.64224   1.36136   1.02232
  15   26176.8    382.0    173.77514  -1.53738  -0.87438  -1.57013
  16   26887.6    371.9     12.83667  -0.03742   0.83117   0.27834
  17   27930.2    358.0     29.03662  -0.39029  -0.43556  -0.46466
  18   28056.1    356.4    -52.66252  -0.83558   0.69139   0.48329
  19   28180.1    354.9    -264.16656   3.32787   2.94254   2.25827
  20   28724.3    348.1    -99.78454   1.68933   1.61642   1.27436
  21   28979.3    345.1     13.35246  -0.01019   0.15165   0.19893
  22   29372.3    340.5    105.75325  -0.96857   0.00096   0.07846
  23   29673.6    337.0     87.74320  -1.22436  -0.30260  -0.28930
  24   29920.6    334.2     68.13456   0.75263   0.58207   0.11780
  25   30021.6    333.1    157.84871  -2.76364  -2.22467  -1.47324
  26   30553.7    327.3    -124.62259   1.64092   1.47351   1.48527
  27   30822.2    324.4    -14.81501   0.65160   0.21439   0.33057
  28   31309.1    319.4    -468.79999  -7.22953  -6.22414  -4.99774
  29   31988.5    312.6    -157.23223   0.61544  -1.04871  -0.86867
  30   32371.0    308.9    108.03304   1.91804  -0.48086  -0.14176
  31   32541.9    307.3     95.02450   0.95033   0.86663  -0.02416
  32   32655.7    306.2     60.36939  -1.00988   0.22906   0.44148
  33   32833.4    304.6    -46.23401  -0.17430  -1.53712  -0.82763
  34   33309.9    300.2      8.99517  -0.80675   0.14637   0.18063
  35   33519.0    298.3     61.73860   1.53422  -0.22427   0.05459
  36   33809.8    295.8    -27.33543   1.16272   0.23064   0.60241
  37   33923.0    294.8    -46.37418   0.32286   0.69533   0.98876
  38   34227.0    292.2     46.38973   0.74165  -0.39873  -0.75536
  39   34941.3    286.2     73.26380   2.21889   1.77999   1.51982
  40   35278.5    283.5    -25.38580   4.44456   3.65036   2.54498
  41   35623.2    280.7    -46.83042  -0.62866   0.50828  -0.02712
  42   35690.1    280.2    -38.13457   1.85667  -0.99398  -0.31624
  43   36005.4    277.7     -8.19903   0.34080  -0.20786   0.15232
  44   36305.3    275.4      5.76830   0.49276   0.21892   0.39564
  45   36620.8    273.1    262.10514  -2.21155   1.43761  -0.58706
  46   37056.6    269.9    529.59870   7.09669   5.14962   3.97356
  47   37161.6    269.1    -354.67815   1.75255   2.60039   1.82970
  48   37266.3    268.3     -5.89958  -2.71612  -2.26996  -1.76316
  49   37373.0    267.6    -226.41023  -1.40989  -2.34963  -1.47170
  50   37879.2    264.0    -87.18671   0.27591   1.61434   0.75012
  51   37934.5    263.6    -72.56118  -0.98497  -1.63012  -1.41169
  52   38275.1    261.3     -0.29298   0.00669   0.41351   0.22009
  53   38294.9    261.1     85.11041  -0.10709   0.75933   0.06088
  54   38637.5    258.8     30.03472   0.41461  -0.11787   0.15606
  55   39278.6    254.6     15.35094   0.40050   0.30206  -0.07824
  56   39321.5    254.3     67.27916  -2.85865  -2.27687  -1.63798
  57   39708.4    251.8    -29.04675   1.07032   0.53772   0.38865
  58   39883.0    250.7    -47.96564   0.40354   0.50349   0.91005
  59   40052.2    249.7     60.08359   0.95069   0.34691   0.09754
  60   40164.8    249.0     19.16356  -1.32936  -1.11919  -0.78616
  61   40271.5    248.3      4.43379  -1.13494  -0.81745  -0.82223

sTD-DFT done

Total run time:        3.029 sec

           *** ORCA-CIS/TD-DFT FINISHED WITHOUT ERROR ***

-------------------------   --------------------
FINAL SINGLE POINT ENERGY     -3464.139971273666
-------------------------   --------------------


                            ***************************************
                            *     ORCA property calculations      *
                            ***************************************

                                    ---------------------
                                    Active property flags
                                    ---------------------
   (+) Dipole Moment


------------------------------------------------------------------------------
                       ORCA ELECTRIC PROPERTIES CALCULATION
------------------------------------------------------------------------------

Dipole Moment Calculation                       ... on
Quadrupole Moment Calculation                   ... off
Polarizability Calculation                      ... off
GBWName                                         ... xtbopt.gbw
Electron density file                           ... xtbopt.scfp
The origin for moment calculation is the CENTER OF MASS  = (-7.957260, 16.955280 -9.698064)

-------------
DIPOLE MOMENT
-------------
                                X             Y             Z
Electronic contribution:     -7.28299      10.26289      -8.30385
Nuclear contribution   :      8.63879      -7.74925       9.43041
                        -----------------------------------------
Total Dipole Moment    :      1.35580       2.51364       1.12656
                        -----------------------------------------
Magnitude (a.u.)       :      3.07014
Magnitude (Debye)      :      7.80367



--------------------
Rotational spectrum 
--------------------
 
Rotational constants in cm-1:     0.001596     0.000408     0.000352 
Rotational constants in MHz :    47.845689    12.219220    10.544891 

 Dipole components along the rotational axes: 
x,y,z [a.u.] :    -1.135189     0.043585    -2.852225 
x,y,z [Debye]:    -2.885420     0.110784    -7.249780 

 

Timings for individual modules:

Sum of individual times         ...      699.411 sec (=  11.657 min)
GTO integral calculation        ...       11.508 sec (=   0.192 min)   1.6 %
SCF iterations                  ...      684.165 sec (=  11.403 min)  97.8 %
CIS module                      ...        3.738 sec (=   0.062 min)   0.5 %
                             ****ORCA TERMINATED NORMALLY****
TOTAL RUN TIME: 0 days 0 hours 11 minutes 40 seconds 392 msec
