
                                 *****************
                                 * O   R   C   A *
                                 *****************

           --- An Ab Initio, DFT and Semiempirical electronic structure package ---

                  #######################################################
                  #                        -***-                        #
                  #          Department of theory and spectroscopy      #
                  #               Directorship: Frank Neese             #
                  #        Max Planck Institute fuer Kohlenforschung    #
                  #                Kaiser Wilhelm Platz 1               #
                  #                 D-45470 Muelheim/Ruhr               #
                  #                      Germany                        #
                  #                                                     #
                  #                  All rights reserved                #
                  #                        -***-                        #
                  #######################################################


                         Program Version 4.2.0 -  RELEASE  -


 With contributions from (in alphabetic order):
   Daniel Aravena         : Magnetic Suceptibility
   Michael Atanasov       : Ab Initio Ligand Field Theory (pilot matlab implementation)
   Alexander A. Auer      : GIAO ZORA, VPT2
   Ute Becker             : Parallelization
   Giovanni Bistoni       : ED, misc. LED, open-shell LED, HFLED
   Martin Brehm           : Molecular dynamics
   Dmytro Bykov           : SCF Hessian
   Vijay G. Chilkuri      : MRCI spin determinant printing, contributions to CSF-ICE
   Dipayan Datta          : RHF DLPNO-CCSD density
   Achintya Kumar Dutta   : EOM-CC, STEOM-CC
   Dmitry Ganyushin       : Spin-Orbit,Spin-Spin,Magnetic field MRCI
   Miquel Garcia          : C-PCM Hessian, Gaussian charge scheme
   Yang Guo               : DLPNO-NEVPT2, CIM, IAO-localization
   Andreas Hansen         : Spin unrestricted coupled pair/coupled cluster methods
   Benjamin Helmich-Paris : CASSCF linear response (MC-RPA)
   Lee Huntington         : MR-EOM, pCC
   Robert Izsak           : Overlap fitted RIJCOSX, COSX-SCS-MP3, EOM
   Christian Kollmar      : KDIIS, OOCD, Brueckner-CCSD(T), CCSD density
   Simone Kossmann        : Meta GGA functionals, TD-DFT gradient, OOMP2, MP2 Hessian
   Martin Krupicka        : AUTO-CI
   Lucas Lang             : DCDCAS
   Dagmar Lenk            : GEPOL surface, SMD
   Dimitrios Liakos       : Extrapolation schemes; Compound Job, initial MDCI parallelization
   Dimitrios Manganas     : Further ROCIS development; embedding schemes
   Dimitrios Pantazis     : SARC Basis sets
   Taras Petrenko         : DFT Hessian,TD-DFT gradient, ASA, ECA, R-Raman, ABS, FL, XAS/XES, NRVS
   Peter Pinski           : DLPNO-MP2, DLPNO-MP2 Gradient
   Christoph Reimann      : Effective Core Potentials
   Marius Retegan         : Local ZFS, SOC
   Christoph Riplinger    : Optimizer, TS searches, QM/MM, DLPNO-CCSD(T), (RO)-DLPNO pert. Triples
   Tobias Risthaus        : Range-separated hybrids, TD-DFT gradient, RPA, STAB
   Michael Roemelt        : Original ROCIS implementation
   Masaaki Saitow         : Open-shell DLPNO-CCSD energy and density
   Barbara Sandhoefer     : DKH picture change effects
   Avijit Sen             : IP-ROCIS
   Kantharuban Sivalingam : CASSCF convergence, NEVPT2, FIC-MRCI
   Bernardo de Souza      : ESD, SOC TD-DFT
   Georgi Stoychev        : AutoAux, RI-MP2 NMR
   Willem Van den Heuvel  : Paramagnetic NMR
   Boris Wezisla          : Elementary symmetry handling
   Frank Wennmohs         : Technical directorship


 We gratefully acknowledge several colleagues who have allowed us to
 interface, adapt or use parts of their codes:
   Stefan Grimme, W. Hujo, H. Kruse,             : VdW corrections, initial TS optimization,
                  C. Bannwarth                     DFT functionals, gCP, sTDA/sTD-DF
   Ed Valeev, F. Pavosevic, A. Kumar             : LibInt (2-el integral package), F12 methods
   Garnet Chan, S. Sharma, J. Yang, R. Olivares  : DMRG
   Ulf Ekstrom                                   : XCFun DFT Library
   Mihaly Kallay                                 : mrcc  (arbitrary order and MRCC methods)
   Andreas Klamt, Michael Diedenhofen            : otool_cosmo (COSMO solvation model)
   Jiri Pittner, Ondrej Demel                    : Mk-CCSD
   Frank Weinhold                                : gennbo (NPA and NBO analysis)
   Christopher J. Cramer and Donald G. Truhlar   : smd solvation model
   Lars Goerigk                                  : TD-DFT with DH, B97 family of functionals
   V. Asgeirsson, H. Jonsson                     : NEB implementation
   FAccTs GmbH                                   : IRC, NEB, NEB-TS, Multilevel, MM, QM/MM, CI optimization
   S Lehtola, MJT Oliveira, MAL Marques          : LibXC Library


 Your calculation uses the libint2 library for the computation of 2-el integrals
 For citations please refer to: http://libint.valeyev.net

 Your ORCA version has been built with support for libXC version: 4.2.3
 For citations please refer to: https://tddft.org/programs/libxc/

 This ORCA versions uses:
   CBLAS   interface :  Fast vector & matrix operations
   LAPACKE interface :  Fast linear algebra routines
   SCALAPACK package :  Parallel linear algebra routines


XCFun DFT library Copyright 2009-2010 Ulf Ekstrom and contributors.
See http://admol.org/xcfun for more information. This is free soft-
ware; see the source code for copying conditions. There is ABSOLUTELY
NO WARRANTY; not even for MERCHANTABILITY or FITNESS FOR A PARTICULAR
PURPOSE. For details see the documentation. Scientific users of this 
library should cite U. Ekstrom, L. Visscher, R. Bast, A. J. Thorvald-
sen and K. Ruud; J.Chem.Theor.Comp. 2010, DOI: 10.1021/ct100117s
XCFun Version 0.99 
----- Orbital basis set information -----
Your calculation utilizes the basis: def2-SVP
   F. Weigend and R. Ahlrichs, Phys. Chem. Chem. Phys. 7, 3297 (2005).

----- AuxJ basis set information -----
Your calculation utilizes the auxiliary basis: def2/J
   F. Weigend, Phys. Chem. Chem. Phys. 8, 1057 (2006).

================================================================================
                                        WARNINGS
                       Please study these warnings very carefully!
================================================================================

INFO   : Checking CIS options ...

WARNING: CIS/ROCIS methods need fully converged wavefunctions
  ===> : Setting SCFConvForced true
         You can overwrite this default with %scf ConvForced false 


INFO   : the flag for use of LIBINT has been found!

================================================================================
                                       INPUT FILE
================================================================================
NAME = xtbopt.inp
|  1> # ORCA input file
|  2> # SCF done       -228.611436509120          0.000517482624
|  3> ! CAM-B3LYP def2-SVP def2/J RIJCOSX Grid4 TightSCF
|  4> %maxcore 5000
|  5> %tddft
|  6>     Mode sTDDFT
|  7>     Ethresh 5.0
|  8>     maxcore 5000
|  9> end
| 10> 
| 11> %pal
| 12>   nprocs 6
| 13>   end
| 14> * xyz 0 1
| 15>    C        3.57654        -3.00550         6.41712
| 16>    C        4.71050        -3.64116         6.83868
| 17>    F        5.66968        -2.95651         7.47557
| 18>    C        4.88616        -5.02068         6.61014
| 19>    F        6.00873        -5.61845         7.03307
| 20>    C        3.92462        -5.74573         5.96392
| 21>    C        2.74496        -5.11952         5.51673
| 22>    C        2.56614        -3.72465         5.74742
| 23>    C        1.39049        -3.07496         5.30722
| 24>    C        0.42453        -3.79889         4.65929
| 25>    C        0.61232        -5.19015         4.42842
| 26>    C        1.73833        -5.84329         4.83929
| 27>    C       -0.54553        -5.73275         3.68692
| 28>    O       -0.65151        -6.85842         3.25115
| 29>    C       -1.45493        -4.57613         3.47811
| 30>    C       -0.86957        -3.41032         4.10970
| 31>    C       -1.47341        -2.19009         4.26081
| 32>    C       -2.78364        -1.88482         3.83254
| 33>    N       -3.85022        -1.57055         3.54726
| 34>    C       -0.87612        -1.09091         4.91229
| 35>    N       -0.43400        -0.16404         5.42514
| 36>    C       -2.53699        -4.57535         2.64934
| 37>    C       -3.22924        -5.72842         2.18543
| 38>    C       -3.87039        -5.71926         0.92804
| 39>    C       -4.54773        -6.87029         0.41654
| 40>    N       -5.10362        -6.82178        -0.80796
| 41>    C       -5.03222        -5.73088        -1.50087
| 42>    C       -4.36602        -4.58583        -0.98762
| 43>    N       -3.80220        -4.59795         0.17485
| 44>    F       -4.29757        -3.46872        -1.70182
| 45>    F       -5.59418        -5.72424        -2.70573
| 46>    C       -4.64152        -8.08940         1.14098
| 47>    C       -4.12718        -8.04903         2.45900
| 48>    C       -3.42495        -6.88858         2.96460
| 49>    N       -3.09725        -7.02950         4.24736
| 50>    S       -3.59523        -8.46432         4.75541
| 51>    N       -4.27206        -8.98010         3.39960
| 52>    C       -5.24412        -9.22804         0.56057
| 53>    S       -6.25101        -9.07742        -0.84433
| 54>    C       -6.64306       -10.75980        -0.87928
| 55>    C       -5.95294       -11.43928         0.12855
| 56>    C       -5.14915       -10.57986         0.93738
| 57>    N       -4.35658       -11.08179         1.89711
| 58>    C       -4.40532       -12.37641         2.09948
| 59>    O       -3.64329       -12.93501         3.01945
| 60>    C       -2.74745       -12.07746         3.72261
| 61>    C       -1.97257       -12.92243         4.71647
| 62>    C       -5.27792       -13.24077         1.33849
| 63>    C       -5.29746       -14.71895         1.59469
| 64>    N       -4.07364       -15.29625         1.04999
| 65>    N       -6.00079       -12.76929         0.36904
| 66>    C       -7.56862       -11.29164        -1.83882
| 67>    C       -8.02926       -12.60608        -1.73839
| 68>    C       -8.94640       -13.10054        -2.64941
| 69>    N       -9.33694       -14.47874        -2.50256
| 70>    O       -9.11012       -15.01626        -1.44015
| 71>    O       -9.86311       -15.03068        -3.44902
| 72>    C       -9.44678       -12.31015        -3.70084
| 73>    C       -8.95180       -11.00278        -3.80255
| 74>    C       -8.04480       -10.50320        -2.89954
| 75>    C      -10.47975       -12.75670        -4.61012
| 76>    C      -10.50019       -12.45659        -5.92288
| 77>    C      -11.50371       -12.90334        -6.83699
| 78>    C      -12.81755       -13.15969        -6.62051
| 79>    C      -13.57006       -13.97404        -7.62212
| 80>    O      -13.21129       -14.24802        -8.74187
| 81>    C      -14.80279       -14.39787        -6.93011
| 82>    C      -15.77645       -15.25392        -7.35856
| 83>    C      -16.87111       -15.52938        -6.50910
| 84>    C      -16.92916       -14.91854        -5.22230
| 85>    C      -18.02187       -15.20063        -4.37760
| 86>    C      -19.01263       -16.04517        -4.79263
| 87>    C      -18.95508       -16.64783        -6.06602
| 88>    C      -17.90729       -16.39685        -6.90686
| 89>    F      -19.94016       -17.47163        -6.44553
| 90>    F      -20.05196       -16.30909        -3.99118
| 91>    C      -15.90759       -14.03531        -4.80653
| 92>    C      -14.86409       -13.76972        -5.65334
| 93>    C      -13.71429       -12.88046        -5.51395
| 94>    C      -13.64140       -11.82697        -4.64311
| 95>    C      -12.63621       -10.84012        -4.67545
| 96>    N      -11.86777        -9.98783        -4.67205
| 97>    C      -14.61037       -11.55702        -3.65339
| 98>    N      -15.36034       -11.30216        -2.82313
| 99>    H        3.45718        -1.94915         6.60080
|100>    H        4.07517        -6.80066         5.79600
|101>    H        1.28716        -2.01708         5.48739
|102>    H        1.85957        -6.89912         4.65023
|103>    H       -2.90341        -3.63729         2.25179
|104>    H       -3.32886       -11.29372         4.22148
|105>    H       -2.07920       -11.59316         3.00212
|106>    H       -2.65200       -13.38512         5.42683
|107>    H       -1.26555       -12.29859         5.25506
|108>    H       -1.43133       -13.70656         4.19449
|109>    H       -6.21932       -15.13154         1.15673
|110>    H       -5.29584       -14.89383         2.67349
|111>    H       -4.07294       -15.21582         0.03840
|112>    H       -4.01920       -16.28068         1.28452
|113>    H       -7.66186       -13.24438        -0.94887
|114>    H       -9.34255       -10.36570        -4.57990
|115>    H       -7.69246        -9.48757        -2.99897
|116>    H      -11.25109       -13.39817        -4.20469
|117>    H       -9.65571       -11.94394        -6.36413
|118>    H      -11.16160       -13.12668        -7.84365
|119>    H      -15.71298       -15.71370        -8.33294
|120>    H      -18.08284       -14.74480        -3.40172
|121>    H      -17.87832       -16.86615        -7.87773
|122>    H      -15.97150       -13.59580        -3.82395
|123> *
|124> 
|125>                          ****END OF INPUT****
================================================================================

                       ****************************
                       * Single Point Calculation *
                       ****************************

---------------------------------
CARTESIAN COORDINATES (ANGSTROEM)
---------------------------------
  C      3.576540   -3.005500    6.417120
  C      4.710500   -3.641160    6.838680
  F      5.669680   -2.956510    7.475570
  C      4.886160   -5.020680    6.610140
  F      6.008730   -5.618450    7.033070
  C      3.924620   -5.745730    5.963920
  C      2.744960   -5.119520    5.516730
  C      2.566140   -3.724650    5.747420
  C      1.390490   -3.074960    5.307220
  C      0.424530   -3.798890    4.659290
  C      0.612320   -5.190150    4.428420
  C      1.738330   -5.843290    4.839290
  C     -0.545530   -5.732750    3.686920
  O     -0.651510   -6.858420    3.251150
  C     -1.454930   -4.576130    3.478110
  C     -0.869570   -3.410320    4.109700
  C     -1.473410   -2.190090    4.260810
  C     -2.783640   -1.884820    3.832540
  N     -3.850220   -1.570550    3.547260
  C     -0.876120   -1.090910    4.912290
  N     -0.434000   -0.164040    5.425140
  C     -2.536990   -4.575350    2.649340
  C     -3.229240   -5.728420    2.185430
  C     -3.870390   -5.719260    0.928040
  C     -4.547730   -6.870290    0.416540
  N     -5.103620   -6.821780   -0.807960
  C     -5.032220   -5.730880   -1.500870
  C     -4.366020   -4.585830   -0.987620
  N     -3.802200   -4.597950    0.174850
  F     -4.297570   -3.468720   -1.701820
  F     -5.594180   -5.724240   -2.705730
  C     -4.641520   -8.089400    1.140980
  C     -4.127180   -8.049030    2.459000
  C     -3.424950   -6.888580    2.964600
  N     -3.097250   -7.029500    4.247360
  S     -3.595230   -8.464320    4.755410
  N     -4.272060   -8.980100    3.399600
  C     -5.244120   -9.228040    0.560570
  S     -6.251010   -9.077420   -0.844330
  C     -6.643060  -10.759800   -0.879280
  C     -5.952940  -11.439280    0.128550
  C     -5.149150  -10.579860    0.937380
  N     -4.356580  -11.081790    1.897110
  C     -4.405320  -12.376410    2.099480
  O     -3.643290  -12.935010    3.019450
  C     -2.747450  -12.077460    3.722610
  C     -1.972570  -12.922430    4.716470
  C     -5.277920  -13.240770    1.338490
  C     -5.297460  -14.718950    1.594690
  N     -4.073640  -15.296250    1.049990
  N     -6.000790  -12.769290    0.369040
  C     -7.568620  -11.291640   -1.838820
  C     -8.029260  -12.606080   -1.738390
  C     -8.946400  -13.100540   -2.649410
  N     -9.336940  -14.478740   -2.502560
  O     -9.110120  -15.016260   -1.440150
  O     -9.863110  -15.030680   -3.449020
  C     -9.446780  -12.310150   -3.700840
  C     -8.951800  -11.002780   -3.802550
  C     -8.044800  -10.503200   -2.899540
  C    -10.479750  -12.756700   -4.610120
  C    -10.500190  -12.456590   -5.922880
  C    -11.503710  -12.903340   -6.836990
  C    -12.817550  -13.159690   -6.620510
  C    -13.570060  -13.974040   -7.622120
  O    -13.211290  -14.248020   -8.741870
  C    -14.802790  -14.397870   -6.930110
  C    -15.776450  -15.253920   -7.358560
  C    -16.871110  -15.529380   -6.509100
  C    -16.929160  -14.918540   -5.222300
  C    -18.021870  -15.200630   -4.377600
  C    -19.012630  -16.045170   -4.792630
  C    -18.955080  -16.647830   -6.066020
  C    -17.907290  -16.396850   -6.906860
  F    -19.940160  -17.471630   -6.445530
  F    -20.051960  -16.309090   -3.991180
  C    -15.907590  -14.035310   -4.806530
  C    -14.864090  -13.769720   -5.653340
  C    -13.714290  -12.880460   -5.513950
  C    -13.641400  -11.826970   -4.643110
  C    -12.636210  -10.840120   -4.675450
  N    -11.867770   -9.987830   -4.672050
  C    -14.610370  -11.557020   -3.653390
  N    -15.360340  -11.302160   -2.823130
  H      3.457180   -1.949150    6.600800
  H      4.075170   -6.800660    5.796000
  H      1.287160   -2.017080    5.487390
  H      1.859570   -6.899120    4.650230
  H     -2.903410   -3.637290    2.251790
  H     -3.328860  -11.293720    4.221480
  H     -2.079200  -11.593160    3.002120
  H     -2.652000  -13.385120    5.426830
  H     -1.265550  -12.298590    5.255060
  H     -1.431330  -13.706560    4.194490
  H     -6.219320  -15.131540    1.156730
  H     -5.295840  -14.893830    2.673490
  H     -4.072940  -15.215820    0.038400
  H     -4.019200  -16.280680    1.284520
  H     -7.661860  -13.244380   -0.948870
  H     -9.342550  -10.365700   -4.579900
  H     -7.692460   -9.487570   -2.998970
  H    -11.251090  -13.398170   -4.204690
  H     -9.655710  -11.943940   -6.364130
  H    -11.161600  -13.126680   -7.843650
  H    -15.712980  -15.713700   -8.332940
  H    -18.082840  -14.744800   -3.401720
  H    -17.878320  -16.866150   -7.877730
  H    -15.971500  -13.595800   -3.823950

----------------------------
CARTESIAN COORDINATES (A.U.)
----------------------------
  NO LB      ZA    FRAG     MASS         X           Y           Z
   0 C     6.0000    0    12.011    6.758681   -5.679572   12.126599
   1 C     6.0000    0    12.011    8.901555   -6.880795   12.923232
   2 F     9.0000    0    18.998   10.714142   -5.586994   14.126780
   3 C     6.0000    0    12.011    9.233504   -9.487710   12.491354
   4 F     9.0000    0    18.998   11.354854  -10.617332   13.290576
   5 C     6.0000    0    12.011    7.416457  -10.857856   11.270175
   6 C     6.0000    0    12.011    5.187223   -9.674491   10.425109
   7 C     6.0000    0    12.011    4.849302   -7.038568   10.861050
   8 C     6.0000    0    12.011    2.627645   -5.810832   10.029192
   9 C     6.0000    0    12.011    0.802245   -7.178862    8.804782
  10 C     6.0000    0    12.011    1.157117   -9.807962    8.368501
  11 C     6.0000    0    12.011    3.284968  -11.042218    9.144933
  12 C     6.0000    0    12.011   -1.030902  -10.833327    6.967269
  13 O     8.0000    0    15.999   -1.231175  -12.960536    6.143783
  14 C     6.0000    0    12.011   -2.749419   -8.647632    6.572675
  15 C     6.0000    0    12.011   -1.643249   -6.444571    7.766207
  16 C     6.0000    0    12.011   -2.784341   -4.138670    8.051764
  17 C     6.0000    0    12.011   -5.260317   -3.561794    7.242451
  18 N     7.0000    0    14.007   -7.275861   -2.967909    6.703350
  19 C     6.0000    0    12.011   -1.655627   -2.061521    9.282883
  20 N     7.0000    0    14.007   -0.820141   -0.309991   10.252029
  21 C     6.0000    0    12.011   -4.794216   -8.646158    5.006527
  22 C     6.0000    0    12.011   -6.102379  -10.825145    4.129864
  23 C     6.0000    0    12.011   -7.313977  -10.807835    1.753741
  24 C     6.0000    0    12.011   -8.593964  -12.982967    0.787147
  25 N     7.0000    0    14.007   -9.644444  -12.891296   -1.526823
  26 C     6.0000    0    12.011   -9.509518  -10.829794   -2.836233
  27 C     6.0000    0    12.011   -8.250582   -8.665963   -1.866331
  28 N     7.0000    0    14.007   -7.185117   -8.688866    0.330419
  29 F     9.0000    0    18.998   -8.121230   -6.554931   -3.215974
  30 F     9.0000    0    18.998  -10.571468  -10.817246   -5.113089
  31 C     6.0000    0    12.011   -8.771202  -15.286751    2.156140
  32 C     6.0000    0    12.011   -7.799240  -15.210462    4.646837
  33 C     6.0000    0    12.011   -6.472218  -13.017530    5.602282
  34 N     7.0000    0    14.007   -5.852954  -13.283830    8.026347
  35 S    16.0000    0    32.060   -6.794000  -15.995247    8.986423
  36 N     7.0000    0    14.007   -8.073023  -16.969930    6.424313
  37 C     6.0000    0    12.011   -9.909951  -17.438468    1.059324
  38 S    16.0000    0    32.060  -11.812697  -17.153838   -1.595552
  39 C     6.0000    0    12.011  -12.553564  -20.333075   -1.661598
  40 C     6.0000    0    12.011  -11.249426  -21.617106    0.242924
  41 C     6.0000    0    12.011   -9.730483  -19.993038    1.771391
  42 N     7.0000    0    14.007   -8.232743  -20.941548    3.585018
  43 C     6.0000    0    12.011   -8.324848  -23.388025    3.967442
  44 O     8.0000    0    15.999   -6.884820  -24.443626    5.705934
  45 C     6.0000    0    12.011   -5.191928  -22.823092    7.034713
  46 C     6.0000    0    12.011   -3.727617  -24.419854    8.912837
  47 C     6.0000    0    12.011   -9.973823  -25.021429    2.529380
  48 C     6.0000    0    12.011  -10.010749  -27.814784    3.013527
  49 N     7.0000    0    14.007   -7.698064  -28.905723    1.984194
  50 N     7.0000    0    14.007  -11.339850  -24.130461    0.697385
  51 C     6.0000    0    12.011  -14.302619  -21.338107   -3.474866
  52 C     6.0000    0    12.011  -15.173102  -23.822039   -3.285081
  53 C     6.0000    0    12.011  -16.906246  -24.756433   -5.006659
  54 N     7.0000    0    14.007  -17.644260  -27.360853   -4.729153
  55 O     8.0000    0    15.999  -17.215632  -28.376619   -2.721489
  56 O     8.0000    0    15.999  -18.638577  -28.403869   -6.517703
  57 C     6.0000    0    12.011  -17.851827  -23.262812   -6.993574
  58 C     6.0000    0    12.011  -16.916450  -20.792241   -7.185778
  59 C     6.0000    0    12.011  -15.202469  -19.848172   -5.479337
  60 C     6.0000    0    12.011  -19.803857  -24.106669   -8.711864
  61 C     6.0000    0    12.011  -19.842483  -23.539544  -11.192621
  62 C     6.0000    0    12.011  -21.738861  -24.383779  -12.920039
  63 C     6.0000    0    12.011  -24.221659  -24.868210  -12.510951
  64 C     6.0000    0    12.011  -25.643697  -26.407109  -14.403719
  65 O     8.0000    0    15.999  -24.965720  -26.924856  -16.519740
  66 C     6.0000    0    12.011  -27.973219  -27.208031  -13.096010
  67 C     6.0000    0    12.011  -29.813170  -28.825731  -13.905663
  68 C     6.0000    0    12.011  -31.881777  -29.346275  -12.300416
  69 C     6.0000    0    12.011  -31.991476  -28.191955   -9.868717
  70 C     6.0000    0    12.011  -34.056399  -28.725028   -8.272465
  71 C     6.0000    0    12.011  -35.928664  -30.320977   -9.056758
  72 C     6.0000    0    12.011  -35.819910  -31.459839  -11.463117
  73 C     6.0000    0    12.011  -33.839874  -30.985556  -13.052074
  74 F     9.0000    0    18.998  -37.681441  -33.016596  -12.180286
  75 F     9.0000    0    18.998  -37.892713  -30.819714   -7.542237
  76 C     6.0000    0    12.011  -30.060989  -26.522892   -9.083025
  77 C     6.0000    0    12.011  -28.089059  -26.021000  -10.683264
  78 C     6.0000    0    12.011  -25.916252  -24.340542  -10.419855
  79 C     6.0000    0    12.011  -25.778510  -22.349734   -8.774206
  80 C     6.0000    0    12.011  -23.878976  -20.484858   -8.835320
  81 N     7.0000    0    14.007  -22.426835  -18.874263   -8.828895
  82 C     6.0000    0    12.011  -27.609598  -21.839603   -6.903907
  83 N     7.0000    0    14.007  -29.026836  -21.357987   -5.334943
  84 H     1.0000    0     1.008    6.533123   -3.683360   12.473704
  85 H     1.0000    0     1.008    7.700955  -12.851385   10.952853
  86 H     1.0000    0     1.008    2.432380   -3.811729   10.369664
  87 H     1.0000    0     1.008    3.514078  -13.037447    8.787661
  88 H     1.0000    0     1.008   -5.486650   -6.873482    4.255266
  89 H     1.0000    0     1.008   -6.290634  -21.342038    7.977441
  90 H     1.0000    0     1.008   -3.929119  -21.907897    5.673185
  91 H     1.0000    0     1.008   -5.011554  -25.294211   10.255222
  92 H     1.0000    0     1.008   -2.391543  -23.240967    9.930624
  93 H     1.0000    0     1.008   -2.704822  -25.901645    7.926437
  94 H     1.0000    0     1.008  -11.752812  -28.594467    2.185903
  95 H     1.0000    0     1.008  -10.007687  -28.145260    5.052164
  96 H     1.0000    0     1.008   -7.696741  -28.753733    0.072565
  97 H     1.0000    0     1.008   -7.595187  -30.766026    2.427391
  98 H     1.0000    0     1.008  -14.478817  -25.028251   -1.793104
  99 H     1.0000    0     1.008  -17.654861  -19.588334   -8.654757
 100 H     1.0000    0     1.008  -14.536643  -17.928909   -5.667232
 101 H     1.0000    0     1.008  -21.261479  -25.318872   -7.945713
 102 H     1.0000    0     1.008  -18.246648  -22.570776  -12.026463
 103 H     1.0000    0     1.008  -21.092367  -24.805830  -14.822350
 104 H     1.0000    0     1.008  -29.693229  -29.694590  -15.746974
 105 H     1.0000    0     1.008  -34.171615  -27.863634   -6.428319
 106 H     1.0000    0     1.008  -33.785129  -31.872404  -14.886752
 107 H     1.0000    0     1.008  -30.181761  -25.692339   -7.226218

--------------------------------
INTERNAL COORDINATES (ANGSTROEM)
--------------------------------
 C      0   0   0     0.000000000000     0.00000000     0.00000000
 C      1   0   0     1.366616899793     0.00000000     0.00000000
 F      2   1   0     1.339552450261   120.20356680     0.00000000
 C      2   1   3     1.409312739458   120.57735743   180.00298755
 F      4   2   1     1.340284358896   119.32731724   179.93031592
 C      4   2   1     1.366695636380   120.54950436   359.94939836
 C      6   4   2     1.408444381507   120.23338815     0.07573628
 C      1   2   3     1.409461944325   120.26964181   180.02999252
 C      8   1   2     1.413515496413   120.64320424   180.04148197
 C      9   8   1     1.370024325113   119.39523255   180.02604405
 C     10   9   8     1.422733435539   120.02631261   359.66691421
 C     11  10   9     1.365029133975   121.86587458     0.18503706
 C     11  10   9     1.478125039535   109.69280150   181.46551436
 O     13  11  10     1.211717872361   126.15262347   174.29221370
 C     13  11  10     1.486061842758   105.31567850     0.07354949
 C     15  13  11     1.449367177012   108.52143443   358.32989598
 C     16  15  13     1.369824160467   125.91287068   187.58059802
 C     17  16  15     1.411845465588   124.62716186     0.86320871
 N     18  17  16     1.147929966374   175.44426481   155.75944556
 C     17  16  15     1.410453192027   123.95095594   178.40330678
 N     20  17  16     1.147855920314   177.14131937   172.40046360
 C     15  13  11     1.362979884261   124.86956128   168.59298134
 C     22  15  13     1.422671070733   125.74013882    21.12836562
 C     23  22  15     1.411448490098   120.41522976   209.93254899
 C     24  23  22     1.430136981726   121.90672485   178.47374276
 N     25  24  23     1.345647488089   119.47852894   182.24720452
 C     26  25  24     1.294328025695   119.65276119   359.20693113
 C     27  26  25     1.420699653340   120.78168088     0.41357948
 N     28  27  26     1.292043492960   121.47347165     0.63436142
 F     28  27  26     1.327667802803   120.53023382   180.10527942
 F     27  26  25     1.329485145009   117.77838747   180.00303195
 C     25  24  23     1.421210424181   122.63826890     1.02854496
 C     32  25  24     1.415398210010   115.22778143     5.71431163
 C     23  22  15     1.411162470660   123.62608665    35.59578846
 N     34  23  22     1.331434922931   125.79186712     5.75833817
 S     35  34  23     1.601501581423   108.90072344   175.85232627
 N     33  32  25     1.331393975989   126.75418775   169.27487755
 C     32  25  24     1.412976849669   120.66459118   184.18244187
 S     38  32  25     1.735009471588   120.67438815   343.43430229
 C     39  38  32     1.727809934397    93.64253607   182.79189583
 C     40  39  38     1.397741032416   110.28730353   356.80833132
 C     38  32  25     1.406564036722   129.46766281   162.22196092
 N     42  38  32     1.342081444138   126.21975102   354.38180250
 C     43  42  38     1.311247554392   117.23653601   180.24028342
 O     44  43  42     1.318737457495   120.29167096   179.39971104
 C     45  44  43     1.425606991320   116.89787340   357.51969005
 C     46  45  44     1.517290682401   107.99957416   180.29576092
 C     44  43  42     1.444871880030   122.12738896   359.49011788
 C     48  44  43     1.500345414896   120.48526082   179.59799486
 N     49  48  44     1.458666779083   108.37485403   286.56630794
 N     48  44  43     1.297947506566   120.82564590     3.68623367
 C     40  39  38     1.435350866792   121.37423002   176.30629786
 C     52  40  39     1.396433997044   120.89090694   189.49436328
 C     53  52  40     1.384049822658   120.49927295   178.43365264
 N     54  53  52     1.439972796306   117.03423729   177.99672602
 O     55  54  53     1.212060258774   117.58653408    17.48011982
 O     55  54  53     1.215433734969   118.20490896   197.93138780
 C     54  53  52     1.407338460144   121.78468768     0.00000000
 C     58  54  53     1.401629923125   116.90446011     1.32653526
 C     59  58  54     1.373920025511   121.64135476   358.45196049
 C     58  54  53     1.446797857961   123.37035866   184.86534682
 C     61  58  54     1.346782322166   123.68726814   217.17512803
 C     62  61  58     1.429067893769   124.36698845   179.18782652
 C     63  62  61     1.356006806214   129.59562175    31.41410510
 C     64  63  62     1.494208758742   118.94528648   197.14567661
 O     65  64  63     1.207319765348   126.56471990   345.80914871
 C     65  64  63     1.475849911712   105.23975910   163.90695696
 C     67  65  64     1.365432093002   128.94143356   186.28251537
 C     68  67  65     1.412706982640   119.08517180   179.12023565
 C     69  68  67     1.425604976177   119.39041948   359.45422409
 C     70  69  68     1.409648183839   119.12413670   180.19770523
 C     71  70  69     1.366419807416   120.24720674   359.76304656
 C     72  71  70     1.409976301290   120.59026240     0.17664465
 C     73  72  71     1.366699217129   120.55967110   359.97608385
 F     73  72  71     1.339050740824   119.26783491   179.97156760
 F     72  71  70     1.338724287447   120.19412328   180.20657938
 C     70  69  68     1.412998652052   120.26421688     0.63489669
 C     77  70  69     1.369860384930   119.34254521     0.17705061
 C     64  63  62     1.451408644765   133.15487045    11.97480738
 C     79  64  63     1.368764566242   126.88638579    29.84994553
 C     80  79  64     1.409015874361   124.22521039   358.57861975
 N     81  80  79     1.147566920794   176.20830699   151.28337427
 C     80  79  64     1.411141928298   123.84114930   174.71943510
 N     83  80  79     1.147493044903   177.11471065   164.49806716
 H      1   2   3     1.078823653106   119.65182315   359.93819958
 H      6   4   2     1.078767692230   119.61737229   179.93298152
 H      9   8   1     1.078076255281   118.59980255     0.49836133
 H     12  11  10     1.079453477506   120.52675554   180.17307603
 H     22  15  13     1.082712419112   119.50092205   204.16798217
 H     46  45  44     1.095973198851   108.74247237    58.81653779
 H     46  45  44     1.095541141446   108.95580707   301.48628210
 H     47  46  45     1.086424636411   110.24755029   299.07461181
 H     47  46  45     1.085878821094   109.72277596   178.86768959
 H     47  46  45     1.086399426960   109.97806289    58.75207052
 H     49  48  44     1.100847550436   108.19348619   162.56917190
 H     49  48  44     1.092883835913   109.03791628    43.53665147
 H     50  49  48     1.014782638302   109.96577877   293.51991934
 H     50  49  48     1.013444847735   110.06546019   174.75837905
 H     53  52  40     1.079699717699   119.78936612   357.96010327
 H     59  58  54     1.078345729068   118.38586068   181.95909966
 H     60  59  58     1.079599044738   119.80096280   180.76368115
 H     61  58  54     1.082045581942   117.15814860    34.75560260
 H     62  61  58     1.081969526096   119.42309671     6.79035966
 H     63  62  61     1.086408930054   115.83861595   215.26669888
 H     68  67  65     1.079278682130   120.55956069   359.04049375
 H     71  70  69     1.078814212087   120.08656975   180.16885903
 H     74  73  72     1.078735513367   119.63102152   179.98892012
 H     77  70  69     1.078293552146   118.68909043   180.65279425

---------------------------
INTERNAL COORDINATES (A.U.)
---------------------------
 C      0   0   0     0.000000000000     0.00000000     0.00000000
 C      1   0   0     2.582531670597     0.00000000     0.00000000
 F      2   1   0     2.531387273016   120.20356680     0.00000000
 C      2   1   3     2.663215114623   120.57735743   180.00298755
 F      4   2   1     2.532770379891   119.32731724   179.93031592
 C      4   2   1     2.582680461183   120.54950436   359.94939836
 C      6   4   2     2.661574155909   120.23338815     0.07573628
 C      1   2   3     2.663497070958   120.26964181   180.02999252
 C      8   1   2     2.671157174275   120.64320424   180.04148197
 C      9   8   1     2.588970771273   119.39523255   180.02604405
 C     10   9   8     2.688576554741   120.02631261   359.66691421
 C     11  10   9     2.579531228036   121.86587458     0.18503706
 C     11  10   9     2.793251516412   109.69280150   181.46551436
 O     13  11  10     2.289814930341   126.15262347   174.29221370
 C     13  11  10     2.808249900882   105.31567850     0.07354949
 C     15  13  11     2.738907032047   108.52143443   358.32989598
 C     16  15  13     2.588592514912   125.91287068   187.58059802
 C     17  16  15     2.668001273379   124.62716186     0.86320871
 N     18  17  16     2.169273257369   175.44426481   155.75944556
 C     17  16  15     2.665370257647   123.95095594   178.40330678
 N     20  17  16     2.169133330594   177.14131937   172.40046360
 C     15  13  11     2.575658707297   124.86956128   168.59298134
 C     22  15  13     2.688458702337   125.74013882    21.12836562
 C     23  22  15     2.667251098422   120.41522976   209.93254899
 C     24  23  22     2.702567229455   121.90672485   178.47374276
 N     25  24  23     2.542905225287   119.47852894   182.24720452
 C     26  25  24     2.445925496023   119.65276119   359.20693113
 C     27  26  25     2.684733263369   120.78168088     0.41357948
 N     28  27  26     2.441608354809   121.47347165     0.63436142
 F     28  27  26     2.508928544123   120.53023382   180.10527942
 F     27  26  25     2.512362823184   117.77838747   180.00303195
 C     25  24  23     2.685698480376   122.63826890     1.02854496
 C     32  25  24     2.674714987362   115.22778143     5.71431163
 C     23  22  15     2.666710600016   123.62608665    35.59578846
 N     34  23  22     2.516047369478   125.79186712     5.75833817
 S     35  34  23     3.026399391931   108.90072344   175.85232627
 N     33  32  25     2.515969990972   126.75418775   169.27487755
 C     32  25  24     2.670139279445   120.66459118   184.18244187
 S     38  32  25     3.278692741061   120.67438815   343.43430229
 C     39  38  32     3.265087587478    93.64253607   182.79189583
 C     40  39  38     2.641347757411   110.28730353   356.80833132
 C     38  32  25     2.658020819228   129.46766281   162.22196092
 N     42  38  32     2.536166378839   126.21975102   354.38180250
 C     43  42  38     2.477898771576   117.23653601   180.24028342
 O     44  43  42     2.492052637209   120.29167096   179.39971104
 C     45  44  43     2.694006788198   116.89787340   357.51969005
 C     46  45  44     2.867263855288   107.99957416   180.29576092
 C     44  43  42     2.730412151860   122.12738896   359.49011788
 C     48  44  43     2.835241940438   120.48526082   179.59799486
 N     49  48  44     2.756480733116   108.37485403   286.56630794
 N     48  44  43     2.452765323615   120.82564590     3.68623367
 C     40  39  38     2.712420044323   121.37423002   176.30629786
 C     52  40  39     2.638877818510   120.89090694   189.49436328
 C     53  52  40     2.615475120526   120.49927295   178.43365264
 N     54  53  52     2.721154225314   117.03423729   177.99672602
 O     55  54  53     2.290461946893   117.58653408    17.48011982
 O     55  54  53     2.296836893020   118.20490896   197.93138780
 C     54  53  52     2.659484267406   121.78468768     0.00000000
 C     58  54  53     2.648696695816   116.90446011     1.32653526
 C     59  58  54     2.596332578126   121.64135476   358.45196049
 C     58  54  53     2.734051722690   123.37035866   184.86534682
 C     61  58  54     2.545049750901   123.68726814   217.17512803
 C     62  61  58     2.700546946002   124.36698845   179.18782652
 C     63  62  61     2.562481499479   129.59562175    31.41410510
 C     64  63  62     2.823645340928   118.94528648   197.14567661
 O     65  64  63     2.281503712578   126.56471990   345.80914871
 C     65  64  63     2.788952147907   105.23975910   163.90695696
 C     67  65  64     2.580292710241   128.94143356   186.28251537
 C     68  67  65     2.669629304668   119.08517180   179.12023565
 C     69  68  67     2.694002980129   119.39041948   359.45422409
 C     70  69  68     2.663849012635   119.12413670   180.19770523
 C     71  70  69     2.582159219983   120.24720674   359.76304656
 C     72  71  70     2.664469064758   120.59026240     0.17664465
 C     73  72  71     2.582687227818   120.55967110   359.97608385
 F     73  72  71     2.530439179581   119.26783491   179.97156760
 F     72  71  70     2.529822272103   120.19412328   180.20657938
 C     70  69  68     2.670180479978   120.26421688     0.63489669
 C     77  70  69     2.588660969225   119.34254521     0.17705061
 C     64  63  62     2.742764847013   133.15487045    11.97480738
 C     79  64  63     2.586590172013   126.88638579    29.84994553
 C     80  79  64     2.662654120889   124.22521039   358.57861975
 N     81  80  79     2.168587200647   176.20830699   151.28337427
 C     80  79  64     2.666671780576   123.84114930   174.71943510
 N     83  80  79     2.168447595445   177.11471065   164.49806716
 H      1   2   3     2.038681251166   119.65182315   359.93819958
 H      6   4   2     2.038575500438   119.61737229   179.93298152
 H      9   8   1     2.037268873964   118.59980255     0.49836133
 H     12  11  10     2.039871446795   120.52675554   180.17307603
 H     22  15  13     2.046029953918   119.50092205   204.16798217
 H     46  45  44     2.071089195946   108.74247237    58.81653779
 H     46  45  44     2.070272725776   108.95580707   301.48628210
 H     47  46  45     2.053045027961   110.24755029   299.07461181
 H     47  46  45     2.052013586492   109.72277596   178.86768959
 H     47  46  45     2.052997389004   109.97806289    58.75207052
 H     49  48  44     2.080300385521   108.19348619   162.56917190
 H     49  48  44     2.065251146065   109.03791628    43.53665147
 H     50  49  48     1.917661271850   109.96577877   293.51991934
 H     50  49  48     1.915133214052   110.06546019   174.75837905
 H     53  52  40     2.040336773324   119.78936612   357.96010327
 H     59  58  54     2.037778105623   118.38586068   181.95909966
 H     60  59  58     2.040146528999   119.80096280   180.76368115
 H     61  58  54     2.044769814290   117.15814860    34.75560260
 H     62  61  58     2.044626089570   119.42309671     6.79035966
 H     63  62  61     2.053015347248   115.83861595   215.26669888
 H     68  67  65     2.039541131405   120.55956069   359.04049375
 H     71  70  69     2.038663410226   120.08656975   180.16885903
 H     74  73  72     2.038514691199   119.63102152   179.98892012
 H     77  70  69     2.037679505529   118.68909043   180.65279425

---------------------
BASIS SET INFORMATION
---------------------
There are 6 groups of distinct atoms

 Group   1 Type C   : 7s4p1d contracted to 3s2p1d pattern {511/31/1}
 Group   2 Type F   : 7s4p1d contracted to 3s2p1d pattern {511/31/1}
 Group   3 Type O   : 7s4p1d contracted to 3s2p1d pattern {511/31/1}
 Group   4 Type N   : 7s4p1d contracted to 3s2p1d pattern {511/31/1}
 Group   5 Type S   : 10s7p1d contracted to 4s3p1d pattern {5311/511/1}
 Group   6 Type H   : 4s1p contracted to 2s1p pattern {31/1}

Atom   0C    basis set group =>   1
Atom   1C    basis set group =>   1
Atom   2F    basis set group =>   2
Atom   3C    basis set group =>   1
Atom   4F    basis set group =>   2
Atom   5C    basis set group =>   1
Atom   6C    basis set group =>   1
Atom   7C    basis set group =>   1
Atom   8C    basis set group =>   1
Atom   9C    basis set group =>   1
Atom  10C    basis set group =>   1
Atom  11C    basis set group =>   1
Atom  12C    basis set group =>   1
Atom  13O    basis set group =>   3
Atom  14C    basis set group =>   1
Atom  15C    basis set group =>   1
Atom  16C    basis set group =>   1
Atom  17C    basis set group =>   1
Atom  18N    basis set group =>   4
Atom  19C    basis set group =>   1
Atom  20N    basis set group =>   4
Atom  21C    basis set group =>   1
Atom  22C    basis set group =>   1
Atom  23C    basis set group =>   1
Atom  24C    basis set group =>   1
Atom  25N    basis set group =>   4
Atom  26C    basis set group =>   1
Atom  27C    basis set group =>   1
Atom  28N    basis set group =>   4
Atom  29F    basis set group =>   2
Atom  30F    basis set group =>   2
Atom  31C    basis set group =>   1
Atom  32C    basis set group =>   1
Atom  33C    basis set group =>   1
Atom  34N    basis set group =>   4
Atom  35S    basis set group =>   5
Atom  36N    basis set group =>   4
Atom  37C    basis set group =>   1
Atom  38S    basis set group =>   5
Atom  39C    basis set group =>   1
Atom  40C    basis set group =>   1
Atom  41C    basis set group =>   1
Atom  42N    basis set group =>   4
Atom  43C    basis set group =>   1
Atom  44O    basis set group =>   3
Atom  45C    basis set group =>   1
Atom  46C    basis set group =>   1
Atom  47C    basis set group =>   1
Atom  48C    basis set group =>   1
Atom  49N    basis set group =>   4
Atom  50N    basis set group =>   4
Atom  51C    basis set group =>   1
Atom  52C    basis set group =>   1
Atom  53C    basis set group =>   1
Atom  54N    basis set group =>   4
Atom  55O    basis set group =>   3
Atom  56O    basis set group =>   3
Atom  57C    basis set group =>   1
Atom  58C    basis set group =>   1
Atom  59C    basis set group =>   1
Atom  60C    basis set group =>   1
Atom  61C    basis set group =>   1
Atom  62C    basis set group =>   1
Atom  63C    basis set group =>   1
Atom  64C    basis set group =>   1
Atom  65O    basis set group =>   3
Atom  66C    basis set group =>   1
Atom  67C    basis set group =>   1
Atom  68C    basis set group =>   1
Atom  69C    basis set group =>   1
Atom  70C    basis set group =>   1
Atom  71C    basis set group =>   1
Atom  72C    basis set group =>   1
Atom  73C    basis set group =>   1
Atom  74F    basis set group =>   2
Atom  75F    basis set group =>   2
Atom  76C    basis set group =>   1
Atom  77C    basis set group =>   1
Atom  78C    basis set group =>   1
Atom  79C    basis set group =>   1
Atom  80C    basis set group =>   1
Atom  81N    basis set group =>   4
Atom  82C    basis set group =>   1
Atom  83N    basis set group =>   4
Atom  84H    basis set group =>   6
Atom  85H    basis set group =>   6
Atom  86H    basis set group =>   6
Atom  87H    basis set group =>   6
Atom  88H    basis set group =>   6
Atom  89H    basis set group =>   6
Atom  90H    basis set group =>   6
Atom  91H    basis set group =>   6
Atom  92H    basis set group =>   6
Atom  93H    basis set group =>   6
Atom  94H    basis set group =>   6
Atom  95H    basis set group =>   6
Atom  96H    basis set group =>   6
Atom  97H    basis set group =>   6
Atom  98H    basis set group =>   6
Atom  99H    basis set group =>   6
Atom 100H    basis set group =>   6
Atom 101H    basis set group =>   6
Atom 102H    basis set group =>   6
Atom 103H    basis set group =>   6
Atom 104H    basis set group =>   6
Atom 105H    basis set group =>   6
Atom 106H    basis set group =>   6
Atom 107H    basis set group =>   6
---------------------------------
AUXILIARY/J BASIS SET INFORMATION
---------------------------------
There are 6 groups of distinct atoms

 Group   1 Type C   : 12s5p4d2f1g contracted to 6s4p3d1f1g pattern {711111/2111/211/2/1}
 Group   2 Type F   : 12s5p4d2f1g contracted to 6s4p3d1f1g pattern {711111/2111/211/2/1}
 Group   3 Type O   : 12s5p4d2f1g contracted to 6s4p3d1f1g pattern {711111/2111/211/2/1}
 Group   4 Type N   : 12s5p4d2f1g contracted to 6s4p3d1f1g pattern {711111/2111/211/2/1}
 Group   5 Type S   : 14s5p5d2f1g contracted to 8s4p3d1f1g pattern {71111111/2111/311/2/1}
 Group   6 Type H   : 5s2p1d contracted to 3s1p1d pattern {311/2/1}

Atom   0C    basis set group =>   1
Atom   1C    basis set group =>   1
Atom   2F    basis set group =>   2
Atom   3C    basis set group =>   1
Atom   4F    basis set group =>   2
Atom   5C    basis set group =>   1
Atom   6C    basis set group =>   1
Atom   7C    basis set group =>   1
Atom   8C    basis set group =>   1
Atom   9C    basis set group =>   1
Atom  10C    basis set group =>   1
Atom  11C    basis set group =>   1
Atom  12C    basis set group =>   1
Atom  13O    basis set group =>   3
Atom  14C    basis set group =>   1
Atom  15C    basis set group =>   1
Atom  16C    basis set group =>   1
Atom  17C    basis set group =>   1
Atom  18N    basis set group =>   4
Atom  19C    basis set group =>   1
Atom  20N    basis set group =>   4
Atom  21C    basis set group =>   1
Atom  22C    basis set group =>   1
Atom  23C    basis set group =>   1
Atom  24C    basis set group =>   1
Atom  25N    basis set group =>   4
Atom  26C    basis set group =>   1
Atom  27C    basis set group =>   1
Atom  28N    basis set group =>   4
Atom  29F    basis set group =>   2
Atom  30F    basis set group =>   2
Atom  31C    basis set group =>   1
Atom  32C    basis set group =>   1
Atom  33C    basis set group =>   1
Atom  34N    basis set group =>   4
Atom  35S    basis set group =>   5
Atom  36N    basis set group =>   4
Atom  37C    basis set group =>   1
Atom  38S    basis set group =>   5
Atom  39C    basis set group =>   1
Atom  40C    basis set group =>   1
Atom  41C    basis set group =>   1
Atom  42N    basis set group =>   4
Atom  43C    basis set group =>   1
Atom  44O    basis set group =>   3
Atom  45C    basis set group =>   1
Atom  46C    basis set group =>   1
Atom  47C    basis set group =>   1
Atom  48C    basis set group =>   1
Atom  49N    basis set group =>   4
Atom  50N    basis set group =>   4
Atom  51C    basis set group =>   1
Atom  52C    basis set group =>   1
Atom  53C    basis set group =>   1
Atom  54N    basis set group =>   4
Atom  55O    basis set group =>   3
Atom  56O    basis set group =>   3
Atom  57C    basis set group =>   1
Atom  58C    basis set group =>   1
Atom  59C    basis set group =>   1
Atom  60C    basis set group =>   1
Atom  61C    basis set group =>   1
Atom  62C    basis set group =>   1
Atom  63C    basis set group =>   1
Atom  64C    basis set group =>   1
Atom  65O    basis set group =>   3
Atom  66C    basis set group =>   1
Atom  67C    basis set group =>   1
Atom  68C    basis set group =>   1
Atom  69C    basis set group =>   1
Atom  70C    basis set group =>   1
Atom  71C    basis set group =>   1
Atom  72C    basis set group =>   1
Atom  73C    basis set group =>   1
Atom  74F    basis set group =>   2
Atom  75F    basis set group =>   2
Atom  76C    basis set group =>   1
Atom  77C    basis set group =>   1
Atom  78C    basis set group =>   1
Atom  79C    basis set group =>   1
Atom  80C    basis set group =>   1
Atom  81N    basis set group =>   4
Atom  82C    basis set group =>   1
Atom  83N    basis set group =>   4
Atom  84H    basis set group =>   6
Atom  85H    basis set group =>   6
Atom  86H    basis set group =>   6
Atom  87H    basis set group =>   6
Atom  88H    basis set group =>   6
Atom  89H    basis set group =>   6
Atom  90H    basis set group =>   6
Atom  91H    basis set group =>   6
Atom  92H    basis set group =>   6
Atom  93H    basis set group =>   6
Atom  94H    basis set group =>   6
Atom  95H    basis set group =>   6
Atom  96H    basis set group =>   6
Atom  97H    basis set group =>   6
Atom  98H    basis set group =>   6
Atom  99H    basis set group =>   6
Atom 100H    basis set group =>   6
Atom 101H    basis set group =>   6
Atom 102H    basis set group =>   6
Atom 103H    basis set group =>   6
Atom 104H    basis set group =>   6
Atom 105H    basis set group =>   6
Atom 106H    basis set group =>   6
Atom 107H    basis set group =>   6


           ************************************************************
           *        Program running with 6 parallel MPI-processes     *
           *              working on a common directory               *
           ************************************************************
------------------------------------------------------------------------------
                           ORCA GTO INTEGRAL CALCULATION
                           -- RI-GTO INTEGRALS CHOSEN --
------------------------------------------------------------------------------

                         BASIS SET STATISTICS AND STARTUP INFO

Gaussian basis set:
 # of primitive gaussian shells          ... 1140
 # of primitive gaussian functions       ... 2208
 # of contracted shells                  ...  580
 # of contracted basis functions         ... 1304
 Highest angular momentum                ...    2
 Maximum contraction depth               ...    5
Auxiliary gaussian basis set:
 # of primitive gaussian shells          ... 2214
 # of primitive gaussian functions       ... 6278
 # of contracted shells                  ... 1384
 # of contracted aux-basis functions     ... 4384
 Highest angular momentum                ...    4
 Maximum contraction depth               ...    7
Ratio of auxiliary to basis functions    ...  3.36
Integral package used                  ... LIBINT
 One Electron integrals                  ... done
 Ordering auxiliary basis shells         ... done
 Integral threshhold             Thresh  ...  2.500e-11
 Primitive cut-off               TCut    ...  2.500e-12
 Pre-screening matrix                    ... done
 Shell pair data                         ... 
 Ordering of the shell pairs             ... done (   0.010 sec) 50063 of 168490 pairs
 Determination of significant pairs      ... done (   0.000 sec)
 Creation of shell pair data             ... done (   0.006 sec)
 Storage of shell pair data              ... done (   0.461 sec)
 Shell pair data done in (   0.478 sec)
 Computing two index integrals           ... done
 Cholesky decomposition of the V-matrix  ... done


Timings:
 Total evaluation time                   ...   4.386 sec (  0.073 min)
 One electron matrix time                ...   1.061 sec (  0.018 min) = 24.2%
 Schwartz matrix evaluation time         ...   0.758 sec (  0.013 min) = 17.3%
 Two index repulsion integral time       ...   0.549 sec (  0.009 min) = 12.5%
 Cholesky decomposition of V             ...   1.523 sec (  0.025 min) = 34.7%
 Three index repulsion integral time     ...   0.000 sec (  0.000 min) =  0.0%



           ************************************************************
           *        Program running with 6 parallel MPI-processes     *
           *              working on a common directory               *
           ************************************************************
-------------------------------------------------------------------------------
                                 ORCA SCF
-------------------------------------------------------------------------------

------------
SCF SETTINGS
------------
Hamiltonian:
 Density Functional     Method          .... DFT(GTOs)
 Exchange Functional    Exchange        .... WB88
 Correlation Functional Correlation     .... LYP
 LDA part of GGA corr.  LDAOpt          .... VWN-5
 Gradients option       PostSCFGGA      .... off
 Hybrid DFT is turned on
   Fraction HF Exchange ScalHFX         ....  0.190000
   Scaling of DF-GGA-X  ScalDFX         ....  0.350000
   Scaling of DF-GGA-C  ScalDFC         ....  0.810000
   Scaling of DF-LDA-C  ScalLDAC        ....  1.000000
   Perturbative correction              ....  0.000000
   Density functional embedding theory  .... OFF
 Long-range corrected/Screened/Range-Separated Hybrid DFT is turned on
   Amount of maximum screened exact exchange              ....  0.460000
   Range separation parameter mu (erf(mu*r12)/r12)        ....  0.330000
 RI-approximation to the Coulomb term is turned on
   Number of auxiliary basis functions  .... 4384
   RIJ-COSX (HFX calculated with COS-X)).... on


General Settings:
 Integral files         IntName         .... xtbopt
 Hartree-Fock type      HFTyp           .... RHF
 Total Charge           Charge          ....    0
 Multiplicity           Mult            ....    1
 Number of Electrons    NEL             ....  588
 Basis Dimension        Dim             .... 1304
 Nuclear Repulsion      ENuc            ....  12857.3494436822 Eh

Convergence Acceleration:
 DIIS                   CNVDIIS         .... on
   Start iteration      DIISMaxIt       ....    12
   Startup error        DIISStart       ....  0.200000
   # of expansion vecs  DIISMaxEq       ....     5
   Bias factor          DIISBfac        ....   1.050
   Max. coefficient     DIISMaxC        ....  10.000
 Newton-Raphson         CNVNR           .... off
 SOSCF                  CNVSOSCF        .... on
   Start iteration      SOSCFMaxIt      ....   150
   Startup grad/error   SOSCFStart      ....  0.003300
 Level Shifting         CNVShift        .... on
   Level shift para.    LevelShift      ....    0.2500
   Turn off err/grad.   ShiftErr        ....    0.0010
 Zerner damping         CNVZerner       .... off
 Static damping         CNVDamp         .... on
   Fraction old density DampFac         ....    0.7000
   Max. Damping (<1)    DampMax         ....    0.9800
   Min. Damping (>=0)   DampMin         ....    0.0000
   Turn off err/grad.   DampErr         ....    0.1000
 Fernandez-Rico         CNVRico         .... off

SCF Procedure:
 Maximum # iterations   MaxIter         ....   125
 SCF integral mode      SCFMode         .... Direct
   Integral package                     .... LIBINT
 Reset frequency        DirectResetFreq ....    20
 Integral Threshold     Thresh          ....  2.500e-11 Eh
 Primitive CutOff       TCut            ....  2.500e-12 Eh

Convergence Tolerance:
 Convergence Check Mode ConvCheckMode   .... Total+1el-Energy
 Convergence forced     ConvForced      .... 1
 Energy Change          TolE            ....  1.000e-08 Eh
 1-El. energy change                    ....  1.000e-05 Eh
 Orbital Gradient       TolG            ....  1.000e-05
 Orbital Rotation angle TolX            ....  1.000e-05
 DIIS Error             TolErr          ....  5.000e-07


Diagonalization of the overlap matrix:
Smallest eigenvalue                        ... 9.903e-05
Time for diagonalization                   ...    0.409 sec
Threshold for overlap eigenvalues          ... 1.000e-08
Number of eigenvalues below threshold      ... 0
Time for construction of square roots      ...    0.199 sec
Total time needed                          ...    0.612 sec

-------------------
DFT GRID GENERATION
-------------------

General Integration Accuracy     IntAcc      ...  4.670
Radial Grid Type                 RadialGrid  ... Gauss-Chebyshev
Angular Grid (max. acc.)         AngularGrid ... Lebedev-302
Angular grid pruning method      GridPruning ... 3 (G Style)
Weight generation scheme         WeightScheme... Becke
Basis function cutoff            BFCut       ...    1.0000e-11
Integration weight cutoff        WCut        ...    1.0000e-14
Grids for H and He will be reduced by one unit

# of grid points (after initial pruning)     ... 604892 (   0.0 sec)
# of grid points (after weights+screening)   ... 517994 (   9.1 sec)
nearest neighbour list constructed           ...    0.0 sec
Grid point re-assignment to atoms done       ...    0.1 sec
Grid point division into batches done        ...    1.8 sec
Reduced shell lists constructed in    2.9 sec

Total number of grid points                  ...   517994
Total number of batches                      ...     8149
Average number of points per batch           ...       63
Average number of grid points per atom       ...     4796
Average number of shells per batch           ...    90.01 (15.52%)
Average number of basis functions per batch  ...   194.92 (14.95%)
Average number of large shells per batch     ...    57.50 (63.88%)
Average number of large basis fcns per batch ...   125.72 (64.50%)
Maximum spatial batch extension              ...  24.21, 23.78, 21.57 au
Average spatial batch extension              ...   0.33,  0.31,  0.36 au

Time for grid setup =   13.021 sec

------------------------------
INITIAL GUESS: MODEL POTENTIAL
------------------------------
Loading Hartree-Fock densities                     ... done
Calculating cut-offs                               ... done
Setting up the integral package                    ... done
Initializing the effective Hamiltonian             ... done
Starting the Coulomb interaction                   ... done (   1.6 sec)
Reading the grid                                   ... done
Mapping shells                                     ... done
Starting the XC term evaluation                    ... done (   3.0 sec)
  promolecular density results
     # of electrons  =    587.986205972
     EX              =   -538.154148811
     EC              =    -20.285421634
     EX+EC           =   -558.439570445
Transforming the Hamiltonian                       ... done (   0.1 sec)
Diagonalizing the Hamiltonian                      ... done (   0.2 sec)
Back transforming the eigenvectors                 ... done (   0.1 sec)
Now organizing SCF variables                       ... done
                      ------------------
                      INITIAL GUESS DONE (  18.2 sec)
                      ------------------
--------------------
COSX GRID GENERATION
--------------------

General Integration Accuracy     IntAcc      ...  3.340
Radial Grid Type                 RadialGrid  ... Gauss-Chebyshev
Angular Grid (max. acc.)         AngularGrid ... Lebedev-50
Angular grid pruning method      GridPruning ... 3 (G Style)
Weight generation scheme         WeightScheme... Becke
Basis function cutoff            BFCut       ...    1.0000e-11
Integration weight cutoff        WCut        ...    1.0000e-14
Grids for H and He will be reduced by one unit

# of grid points (after initial pruning)     ...  56484 (   0.0 sec)
# of grid points (after weights+screening)   ...  50676 (   1.0 sec)
nearest neighbour list constructed           ...    0.0 sec
Grid point re-assignment to atoms done       ...    0.0 sec
Grid point division into batches done        ...    0.0 sec
Reduced shell lists constructed in    0.1 sec

Total number of grid points                  ...    50676
Total number of batches                      ...      849
Average number of points per batch           ...       59
Average number of grid points per atom       ...      469
Average number of shells per batch           ...   107.03 (18.45%)
Average number of basis functions per batch  ...   233.67 (17.92%)
Average number of large shells per batch     ...    68.45 (63.96%)
Average number of large basis fcns per batch ...   152.10 (65.09%)
Maximum spatial batch extension              ...  15.08, 16.64, 23.65 au
Average spatial batch extension              ...   0.71,  0.59,  0.90 au

Overlap Fitting                  UseSFitting ... on
Constructing numerical overlap ... done (      0.1 sec)
Inverting numerical overlap    ... done (      0.1 sec)
Obtaining analytic overlap     ... done (      0.0 sec)
Final contraction and storage  ... done (      0.2 sec)


General Integration Accuracy     IntAcc      ...  3.670
Radial Grid Type                 RadialGrid  ... Gauss-Chebyshev
Angular Grid (max. acc.)         AngularGrid ... Lebedev-50
Angular grid pruning method      GridPruning ... 3 (G Style)
Weight generation scheme         WeightScheme... Becke
Basis function cutoff            BFCut       ...    1.0000e-11
Integration weight cutoff        WCut        ...    1.0000e-14
Grids for H and He will be reduced by one unit

# of grid points (after initial pruning)     ...  70216 (   0.0 sec)
# of grid points (after weights+screening)   ...  62698 (   1.7 sec)
nearest neighbour list constructed           ...    0.0 sec
Grid point re-assignment to atoms done       ...    0.0 sec
Grid point division into batches done        ...    0.0 sec
Reduced shell lists constructed in    0.2 sec

Total number of grid points                  ...    62698
Total number of batches                      ...     1037
Average number of points per batch           ...       60
Average number of grid points per atom       ...      581
Average number of shells per batch           ...   104.74 (18.06%)
Average number of basis functions per batch  ...   228.56 (17.53%)
Average number of large shells per batch     ...    67.25 (64.21%)
Average number of large basis fcns per batch ...   149.36 (65.35%)
Maximum spatial batch extension              ...  15.71, 18.02, 31.13 au
Average spatial batch extension              ...   0.62,  0.55,  0.80 au

Overlap Fitting                  UseSFitting ... on
Constructing numerical overlap ... done (      0.1 sec)
Inverting numerical overlap    ... done (      0.1 sec)
Obtaining analytic overlap     ... done (      0.0 sec)
Final contraction and storage  ... done (      0.1 sec)


General Integration Accuracy     IntAcc      ...  4.010
Radial Grid Type                 RadialGrid  ... Gauss-Chebyshev
Angular Grid (max. acc.)         AngularGrid ... Lebedev-110
Angular grid pruning method      GridPruning ... 3 (G Style)
Weight generation scheme         WeightScheme... Becke
Basis function cutoff            BFCut       ...    1.0000e-11
Integration weight cutoff        WCut        ...    1.0000e-14
Grids for H and He will be reduced by one unit

# of grid points (after initial pruning)     ... 139310 (   0.0 sec)
# of grid points (after weights+screening)   ... 122944 (   2.3 sec)
nearest neighbour list constructed           ...    0.0 sec
Grid point re-assignment to atoms done       ...    0.0 sec
Grid point division into batches done        ...    0.1 sec
Reduced shell lists constructed in    0.4 sec

Total number of grid points                  ...   122944
Total number of batches                      ...     1978
Average number of points per batch           ...       62
Average number of grid points per atom       ...     1138
Average number of shells per batch           ...    99.50 (17.15%)
Average number of basis functions per batch  ...   217.00 (16.64%)
Average number of large shells per batch     ...    64.36 (64.68%)
Average number of large basis fcns per batch ...   142.01 (65.44%)
Maximum spatial batch extension              ...  18.98, 16.94, 20.65 au
Average spatial batch extension              ...   0.53,  0.47,  0.64 au

Overlap Fitting                  UseSFitting ... on
Constructing numerical overlap ... done (      0.3 sec)
Inverting numerical overlap    ... done (      0.1 sec)
Obtaining analytic overlap     ... done (      0.0 sec)
Final contraction and storage  ... done (      0.1 sec)

Time for X-Grid setup             =    7.792 sec
--------------
SCF ITERATIONS
--------------
ITER       Energy         Delta-E        Max-DP      RMS-DP      [F,P]     Damp
               ***  Starting incremental Fock matrix formation  ***
  0  -4684.5936351459   0.000000000000 0.08343728  0.00095828  0.2251497 0.7000
  1  -4685.2862961056  -0.692660959769 0.04652299  0.00065815  0.1097980 0.7000
                               ***Turning on DIIS***
  2  -4685.5696562426  -0.283360136913 0.08917112  0.00116516  0.0433117 0.0000
  3  -4686.0510837321  -0.481427489538 0.07122867  0.00047427  0.0563617 0.0000
  4  -4686.1352458966  -0.084162164492 0.01527582  0.00015118  0.0214877 0.0000
  5  -4686.1414947946  -0.006248898040 0.00639584  0.00005999  0.0076689 0.0000
                      *** Initiating the SOSCF procedure ***
                           *** Shutting down DIIS ***
                      *** Re-Reading the Fockian *** 
                      *** Removing any level shift *** 
ITER      Energy       Delta-E        Grad      Rot      Max-DP    RMS-DP
  6  -4686.14252839  -0.0010335904  0.002545  0.002545  0.003449  0.000032
               *** Restarting incremental Fock matrix formation ***
  7  -4686.14284050  -0.0003121145  0.001694  0.011018  0.002953  0.000033
  8  -4686.14309125  -0.0002507463  0.000640  0.010273  0.003517  0.000038
  9  -4686.14309370  -0.0000024525  0.000992  0.003681  0.001570  0.000014
 10  -4686.14316016  -0.0000664646  0.000187  0.001534  0.001060  0.000007
 11  -4686.14315902   0.0000011409  0.000173  0.000778  0.000467  0.000004
 12  -4686.14316449  -0.0000054674  0.000030  0.000252  0.000228  0.000002
 13  -4686.14316435   0.0000001360  0.000035  0.000058  0.000126  0.000001
 14  -4686.14316466  -0.0000003077  0.000009  0.000057  0.000049  0.000000
 15  -4686.14316467  -0.0000000073  0.000014  0.000019  0.000028  0.000000
 16  -4686.14316468  -0.0000000151  0.000003  0.000030  0.000014  0.000000
                  ***Gradient check signals convergence***
              ***Rediagonalizing the Fockian in SOSCF/NRSCF***

               *****************************************************
               *                     SUCCESS                       *
               *           SCF CONVERGED AFTER  17 CYCLES          *
               *****************************************************

Setting up the final grid:

General Integration Accuracy     IntAcc      ...  5.010
Radial Grid Type                 RadialGrid  ... Gauss-Chebyshev
Angular Grid (max. acc.)         AngularGrid ... Lebedev-434
Angular grid pruning method      GridPruning ... 3 (G Style)
Weight generation scheme         WeightScheme... Becke
Basis function cutoff            BFCut       ...    1.0000e-11
Integration weight cutoff        WCut        ...    1.0000e-14
Grids for H and He will be reduced by one unit

# of grid points (after initial pruning)     ... 1061468 (   0.1 sec)
# of grid points (after weights+screening)   ... 905707 (  13.9 sec)
nearest neighbour list constructed           ...    0.0 sec
Grid point re-assignment to atoms done       ...    0.1 sec
Grid point division into batches done        ...    6.0 sec
Reduced shell lists constructed in    7.8 sec

Total number of grid points                  ...   905707
Total number of batches                      ...    14207
Average number of points per batch           ...       63
Average number of grid points per atom       ...     8386
Average number of shells per batch           ...    86.86 (14.98%)
Average number of basis functions per batch  ...   187.63 (14.39%)
Average number of large shells per batch     ...    55.37 (63.74%)
Average number of large basis fcns per batch ...   120.84 (64.40%)
Maximum spatial batch extension              ...  16.21, 15.77, 20.35 au
Average spatial batch extension              ...   0.27,  0.26,  0.29 au

Final grid set up in   22.4 sec
Final integration                            ... done (   3.4 sec)
Change in XC energy                          ...    -0.000066607
Integrated number of electrons               ...   588.000079857
Previous integrated no of electrons          ...   587.999320447
Old exchange energy                            =   -149.832952961 Eh
New exchange energy                            =   -149.831114977 Eh
Exchange energy change after final integration =      0.001837984 Eh
Total energy after final integration           =  -4686.141393281 Eh
Final COS-X integration done in                =    74.797 sec

----------------
TOTAL SCF ENERGY
----------------

Total Energy       :        -4686.14139328 Eh         -127516.39012 eV

Components:
Nuclear Repulsion  :        12857.34944368 Eh          349866.26522 eV
Electronic Energy  :       -17543.49083696 Eh         -477382.65534 eV
One Electron Energy:       -32023.85822790 Eh         -871413.48419 eV
Two Electron Energy:        14480.36739094 Eh          394030.82885 eV

Virial components:
Potential Energy   :        -9337.56668468 Eh         -254088.10708 eV
Kinetic Energy     :         4651.42529140 Eh          126571.71696 eV
Virial Ratio       :            2.00746354


DFT components:
N(Alpha)           :      294.000039928660 electrons
N(Beta)            :      294.000039928660 electrons
N(Total)           :      588.000079857321 electrons
E(XC)              :     -417.461199906508 Eh       
DFET-embed. en.    :        0.000000000000 Eh       

---------------
SCF CONVERGENCE
---------------

  Last Energy change         ...    2.5460e-08  Tolerance :   1.0000e-08
  Last MAX-Density change    ...    8.4377e-15  Tolerance :   1.0000e-07
  Last RMS-Density change    ...    3.4559e-17  Tolerance :   5.0000e-09
  Last Orbital Gradient      ...    2.4641e-06  Tolerance :   1.0000e-05
  Last Orbital Rotation      ...    3.7496e-06  Tolerance :   1.0000e-05

             **** THE GBW FILE WAS UPDATED (xtbopt.gbw) ****
             **** DENSITY FILE WAS UPDATED (xtbopt.scfp) ****
             **** ENERGY FILE WAS UPDATED (xtbopt.en.tmp) ****
             **** THE GBW FILE WAS UPDATED (xtbopt.gbw) ****
             **** DENSITY FILE WAS UPDATED (xtbopt.scfp) ****
----------------
ORBITAL ENERGIES
----------------

  NO   OCC          E(Eh)            E(eV) 
   0   2.0000     -89.037402     -2422.8309 
   1   2.0000     -88.983686     -2421.3692 
   2   2.0000     -24.822062      -675.4426 
   3   2.0000     -24.819122      -675.3626 
   4   2.0000     -24.801477      -674.8825 
   5   2.0000     -24.800702      -674.8614 
   6   2.0000     -24.796697      -674.7524 
   7   2.0000     -24.795391      -674.7169 
   8   2.0000     -19.269874      -524.3599 
   9   2.0000     -19.252304      -523.8818 
  10   2.0000     -19.250607      -523.8356 
  11   2.0000     -19.221291      -523.0379 
  12   2.0000     -19.211072      -522.7598 
  13   2.0000     -14.656923      -398.8351 
  14   2.0000     -14.464981      -393.6121 
  15   2.0000     -14.458208      -393.4279 
  16   2.0000     -14.446675      -393.1140 
  17   2.0000     -14.439475      -392.9181 
  18   2.0000     -14.437879      -392.8747 
  19   2.0000     -14.425220      -392.5302 
  20   2.0000     -14.422803      -392.4644 
  21   2.0000     -14.420684      -392.4068 
  22   2.0000     -14.412328      -392.1794 
  23   2.0000     -14.409974      -392.1153 
  24   2.0000     -14.393468      -391.6662 
  25   2.0000     -10.437340      -284.0145 
  26   2.0000     -10.436383      -283.9884 
  27   2.0000     -10.387734      -282.6646 
  28   2.0000     -10.384990      -282.5899 
  29   2.0000     -10.384446      -282.5751 
  30   2.0000     -10.379364      -282.4369 
  31   2.0000     -10.378352      -282.4093 
  32   2.0000     -10.372182      -282.2414 
  33   2.0000     -10.362581      -281.9802 
  34   2.0000     -10.353259      -281.7265 
  35   2.0000     -10.351151      -281.6691 
  36   2.0000     -10.350296      -281.6459 
  37   2.0000     -10.349152      -281.6147 
  38   2.0000     -10.339831      -281.3611 
  39   2.0000     -10.338807      -281.3333 
  40   2.0000     -10.338617      -281.3281 
  41   2.0000     -10.336004      -281.2570 
  42   2.0000     -10.335976      -281.2562 
  43   2.0000     -10.335918      -281.2546 
  44   2.0000     -10.334930      -281.2277 
  45   2.0000     -10.333900      -281.1997 
  46   2.0000     -10.329571      -281.0819 
  47   2.0000     -10.327562      -281.0272 
  48   2.0000     -10.327151      -281.0161 
  49   2.0000     -10.325315      -280.9661 
  50   2.0000     -10.322838      -280.8987 
  51   2.0000     -10.322295      -280.8839 
  52   2.0000     -10.321685      -280.8673 
  53   2.0000     -10.319482      -280.8074 
  54   2.0000     -10.315532      -280.6999 
  55   2.0000     -10.315098      -280.6881 
  56   2.0000     -10.314778      -280.6794 
  57   2.0000     -10.314457      -280.6706 
  58   2.0000     -10.313034      -280.6319 
  59   2.0000     -10.312770      -280.6247 
  60   2.0000     -10.312129      -280.6073 
  61   2.0000     -10.309719      -280.5417 
  62   2.0000     -10.307872      -280.4915 
  63   2.0000     -10.307419      -280.4791 
  64   2.0000     -10.307326      -280.4766 
  65   2.0000     -10.307068      -280.4696 
  66   2.0000     -10.304538      -280.4007 
  67   2.0000     -10.304429      -280.3978 
  68   2.0000     -10.303823      -280.3813 
  69   2.0000     -10.303819      -280.3812 
  70   2.0000     -10.303514      -280.3729 
  71   2.0000     -10.303257      -280.3659 
  72   2.0000     -10.300914      -280.3021 
  73   2.0000     -10.299436      -280.2619 
  74   2.0000     -10.299095      -280.2526 
  75   2.0000     -10.298989      -280.2497 
  76   2.0000     -10.298832      -280.2455 
  77   2.0000     -10.298505      -280.2366 
  78   2.0000     -10.298055      -280.2243 
  79   2.0000     -10.298033      -280.2237 
  80   2.0000     -10.298008      -280.2230 
  81   2.0000     -10.294077      -280.1161 
  82   2.0000     -10.289554      -279.9930 
  83   2.0000     -10.268379      -279.4168 
  84   2.0000      -8.128370      -221.1842 
  85   2.0000      -8.076891      -219.7834 
  86   2.0000      -6.099375      -165.9724 
  87   2.0000      -6.091634      -165.7618 
  88   2.0000      -6.091393      -165.7552 
  89   2.0000      -6.046161      -164.5244 
  90   2.0000      -6.041603      -164.4004 
  91   2.0000      -6.039589      -164.3456 
  92   2.0000      -1.349499       -36.7217 
  93   2.0000      -1.335287       -36.3350 
  94   2.0000      -1.332375       -36.2558 
  95   2.0000      -1.324297       -36.0359 
  96   2.0000      -1.318906       -35.8893 
  97   2.0000      -1.309386       -35.6302 
  98   2.0000      -1.304070       -35.4856 
  99   2.0000      -1.190388       -32.3921 
 100   2.0000      -1.150436       -31.3049 
 101   2.0000      -1.137212       -30.9451 
 102   2.0000      -1.136146       -30.9161 
 103   2.0000      -1.125255       -30.6197 
 104   2.0000      -1.120636       -30.4941 
 105   2.0000      -1.087378       -29.5891 
 106   2.0000      -1.046715       -28.4826 
 107   2.0000      -1.027226       -27.9522 
 108   2.0000      -1.017345       -27.6834 
 109   2.0000      -1.015367       -27.6296 
 110   2.0000      -1.010100       -27.4862 
 111   2.0000      -1.006103       -27.3775 
 112   2.0000      -1.002433       -27.2776 
 113   2.0000      -1.000524       -27.2256 
 114   2.0000      -0.991581       -26.9823 
 115   2.0000      -0.990002       -26.9393 
 116   2.0000      -0.987600       -26.8740 
 117   2.0000      -0.986506       -26.8442 
 118   2.0000      -0.978354       -26.6224 
 119   2.0000      -0.973661       -26.4947 
 120   2.0000      -0.966867       -26.3098 
 121   2.0000      -0.941715       -25.6254 
 122   2.0000      -0.929975       -25.3059 
 123   2.0000      -0.927569       -25.2404 
 124   2.0000      -0.918207       -24.9857 
 125   2.0000      -0.906470       -24.6663 
 126   2.0000      -0.903628       -24.5890 
 127   2.0000      -0.896681       -24.3999 
 128   2.0000      -0.893077       -24.3019 
 129   2.0000      -0.887533       -24.1510 
 130   2.0000      -0.886147       -24.1133 
 131   2.0000      -0.883450       -24.0399 
 132   2.0000      -0.881000       -23.9732 
 133   2.0000      -0.862583       -23.4721 
 134   2.0000      -0.846651       -23.0385 
 135   2.0000      -0.845042       -22.9948 
 136   2.0000      -0.844591       -22.9825 
 137   2.0000      -0.837388       -22.7865 
 138   2.0000      -0.825498       -22.4630 
 139   2.0000      -0.814673       -22.1684 
 140   2.0000      -0.808634       -22.0040 
 141   2.0000      -0.800410       -21.7803 
 142   2.0000      -0.788626       -21.4596 
 143   2.0000      -0.785784       -21.3823 
 144   2.0000      -0.773074       -21.0364 
 145   2.0000      -0.769172       -20.9302 
 146   2.0000      -0.762678       -20.7535 
 147   2.0000      -0.759354       -20.6631 
 148   2.0000      -0.756122       -20.5751 
 149   2.0000      -0.745944       -20.2982 
 150   2.0000      -0.738491       -20.0953 
 151   2.0000      -0.733450       -19.9582 
 152   2.0000      -0.724736       -19.7211 
 153   2.0000      -0.722740       -19.6668 
 154   2.0000      -0.712226       -19.3807 
 155   2.0000      -0.708646       -19.2832 
 156   2.0000      -0.702270       -19.1097 
 157   2.0000      -0.699891       -19.0450 
 158   2.0000      -0.697594       -18.9825 
 159   2.0000      -0.689545       -18.7635 
 160   2.0000      -0.683630       -18.6025 
 161   2.0000      -0.683315       -18.5939 
 162   2.0000      -0.678739       -18.4694 
 163   2.0000      -0.676756       -18.4155 
 164   2.0000      -0.669819       -18.2267 
 165   2.0000      -0.664354       -18.0780 
 166   2.0000      -0.659695       -17.9512 
 167   2.0000      -0.657152       -17.8820 
 168   2.0000      -0.654366       -17.8062 
 169   2.0000      -0.648810       -17.6550 
 170   2.0000      -0.646969       -17.6049 
 171   2.0000      -0.642516       -17.4837 
 172   2.0000      -0.640635       -17.4326 
 173   2.0000      -0.636949       -17.3323 
 174   2.0000      -0.633366       -17.2348 
 175   2.0000      -0.630282       -17.1509 
 176   2.0000      -0.627292       -17.0695 
 177   2.0000      -0.624424       -16.9914 
 178   2.0000      -0.622818       -16.9477 
 179   2.0000      -0.618003       -16.8167 
 180   2.0000      -0.611357       -16.6359 
 181   2.0000      -0.606760       -16.5108 
 182   2.0000      -0.606216       -16.4960 
 183   2.0000      -0.604836       -16.4584 
 184   2.0000      -0.594860       -16.1870 
 185   2.0000      -0.593263       -16.1435 
 186   2.0000      -0.589620       -16.0444 
 187   2.0000      -0.588629       -16.0174 
 188   2.0000      -0.585369       -15.9287 
 189   2.0000      -0.583452       -15.8765 
 190   2.0000      -0.581330       -15.8188 
 191   2.0000      -0.580481       -15.7957 
 192   2.0000      -0.576191       -15.6790 
 193   2.0000      -0.575730       -15.6664 
 194   2.0000      -0.572216       -15.5708 
 195   2.0000      -0.567671       -15.4471 
 196   2.0000      -0.564030       -15.3480 
 197   2.0000      -0.559196       -15.2165 
 198   2.0000      -0.557221       -15.1627 
 199   2.0000      -0.554428       -15.0867 
 200   2.0000      -0.551403       -15.0044 
 201   2.0000      -0.550184       -14.9713 
 202   2.0000      -0.550049       -14.9676 
 203   2.0000      -0.546558       -14.8726 
[...]
  45   4.594     269.9   0.065640   0.055723  187.668076  162.170996     0.14 ( 108-> 114)    0.11 ( 107-> 114)    0.08 ( 109-> 114)
  46   4.631     267.7   0.103077   0.097599  -92.293125  -87.330646     0.12 ( 107-> 111)    0.10 ( 108-> 111)    0.09 (  94-> 110)
  47   4.648     266.7   0.028711   0.027766  -81.866338  -88.395859     0.18 ( 109-> 121)    0.07 ( 109-> 120)    0.07 ( 105-> 113)
  48   4.671     265.4   0.129108   0.109415  98.298703  107.862721     0.09 ( 109-> 121)    0.08 (  84-> 110)    0.08 ( 103-> 111)
  49   4.735     261.8   0.026578   0.025629  39.470825  35.390834     0.25 (  84-> 110)    0.11 (  88-> 110)    0.09 (  87-> 110)
  50   4.791     258.8   0.164586   0.141782  114.865690  110.052113     0.45 (  95-> 111)    0.10 ( 109-> 121)    0.05 ( 105-> 113)
  51   4.797     258.5   0.002502   0.002235  10.961617   6.330898     0.09 (  95-> 111)    0.08 ( 106-> 113)    0.08 ( 101-> 113)
  52   4.829     256.7   0.072655   0.063909  207.474045  192.589272     0.14 ( 105-> 113)    0.13 ( 105-> 112)    0.05 (  95-> 111)
  53   4.845     255.9   0.190741   0.159831  87.031547  86.623253     0.27 ( 105-> 112)    0.06 ( 109-> 121)    0.05 (  98-> 110)
  54   4.857     255.2   0.012547   0.011914  18.878923  13.081069     0.22 ( 100-> 111)    0.15 (  99-> 111)    0.10 (  95-> 111)
  55   4.881     254.0   0.036168   0.028281  -32.083993  -27.083430     0.21 (  83-> 110)    0.12 (  98-> 110)    0.06 (  92-> 110)
  56   4.895     253.3   0.029560   0.023028  -3.789194  -0.931995     0.18 ( 105-> 115)    0.13 ( 105-> 113)    0.13 (  98-> 110)
  57   4.915     252.3   0.039723   0.034512  13.739695  11.890701     0.10 (  82-> 110)    0.10 (  83-> 110)    0.09 (  98-> 110)
  58   4.923     251.8   0.014954   0.011898  -53.720414  -47.378137     0.17 ( 105-> 115)    0.07 ( 105-> 112)    0.05 ( 106-> 116)
  59   4.959     250.0   0.062480   0.054553  83.266093  81.375480     0.15 ( 104-> 116)    0.14 ( 104-> 111)    0.05 ( 107-> 112)
  60   4.970     249.5   0.021274   0.018772  37.119570  37.180721     0.30 ( 104-> 111)    0.11 (  99-> 111)    0.09 ( 104-> 116)
  61   4.985     248.7   0.030237   0.023742  -16.442065  -14.439730     0.11 (  99-> 112)    0.09 ( 103-> 112)    0.06 ( 104-> 111)

-----------------------------------------------------------------------------
         ABSORPTION SPECTRUM VIA TRANSITION ELECTRIC DIPOLE MOMENTS
-----------------------------------------------------------------------------
State   Energy  Wavelength   fosc         T2         TX        TY        TZ  
        (cm-1)    (nm)                  (au**2)     (au)      (au)      (au) 
-----------------------------------------------------------------------------
   0   12143.6    823.5   1.054848216  28.59679   3.07117   3.68031   2.37066
   1   20891.9    478.7   0.338793779   5.33867  -1.99739  -0.06144  -1.15989
   2   21900.9    456.6   0.000239170   0.00360  -0.05496  -0.01597   0.01789
   3   22233.2    449.8   0.261938867   3.87858  -1.21254  -1.15657  -1.03472
   4   22989.4    435.0   0.020845894   0.29852  -0.41809   0.12927  -0.32712
   5   23904.4    418.3   0.073149257   1.00741  -0.72706   0.55764  -0.40968
   6   24472.2    408.6   0.032922058   0.44288  -0.29448   0.07021  -0.59265
   7   25157.3    397.5   0.037651076   0.49271  -0.16987  -0.18951  -0.65417
   8   25615.7    390.4   0.048078495   0.61790   0.43773   0.39980   0.51619
   9   26635.4    375.4   0.023558280   0.29118  -0.32508   0.40576  -0.14443
  10   27060.6    369.5   0.026620302   0.32386  -0.10651   0.49716   0.25562
  11   27213.8    367.5   0.065997365   0.79839   0.57772   0.66837  -0.13383
  12   27486.4    363.8   0.042900322   0.51383   0.66480  -0.23364   0.13147
  13   27568.4    362.7   0.104005495   1.24199  -1.00000  -0.32616  -0.36826
  14   27968.4    357.5   0.162615006   1.91412   1.28667  -0.48541   0.15160
  15   28562.3    350.1   0.012779153   0.14729   0.09672   0.32908   0.17218
  16   29111.8    343.5   0.196962905   2.22737   0.63277  -0.21450   1.33453
  17   29664.9    337.1   0.034846436   0.38672   0.41194   0.12757   0.44805
  18   29721.7    336.5   0.057013731   0.63151  -0.34027  -0.61198   0.37578
  19   30116.9    332.0   0.094078632   1.02839   0.61307  -0.25180   0.76755
  20   30419.0    328.7   0.092681399   1.00305  -0.10568  -0.32002   0.94312
  21   31305.9    319.4   0.008442245   0.08878  -0.19389  -0.19276  -0.11844
  22   31448.3    318.0   0.021846024   0.22869  -0.13871  -0.38363  -0.24956
  23   31581.0    316.6   0.388024118   4.04491  -1.75061  -0.41882  -0.89714
  24   32064.1    311.9   0.204014021   2.09468  -1.26178   0.65272  -0.27665
  25   32702.0    305.8   0.052305783   0.52656  -0.70377  -0.15816  -0.07913
  26   32785.4    305.0   0.035801945   0.35950   0.47398   0.36071  -0.06882
  27   33257.3    300.7   0.284847231   2.81968  -1.18637  -0.59284  -1.02992
  28   33314.0    300.2   0.041663325   0.41172   0.50390   0.24011   0.31647
  29   33559.6    298.0   0.005897740   0.05786  -0.13811   0.19578  -0.02131
  30   33703.2    296.7   0.071034362   0.69386   0.42500   0.37379   0.61116
  31   33868.1    295.3   0.103864421   1.00961   0.60262   0.74682   0.29785
  32   34041.3    293.8   0.031395003   0.30362   0.19136   0.51410  -0.05193
  33   34360.9    291.0   0.052272310   0.50082  -0.27098   0.50838  -0.41103
  34   34628.9    288.8   0.150056055   1.42656  -1.00450  -0.61144  -0.20899
  35   34899.4    286.5   0.051934658   0.48991  -0.06259   0.55517  -0.42163
  36   35522.1    281.5   0.014092086   0.13060   0.08286  -0.20060   0.28896
  37   35699.1    280.1   0.134430810   1.23970   0.98216   0.07150   0.51957
  38   35900.5    278.5   0.055976439   0.51331   0.56074   0.15350   0.41871
  39   35963.0    278.1   0.364314393   3.33501   1.19855   1.32462   0.37930
  40   36146.7    276.7   0.067258956   0.61257  -0.31265   0.71264   0.08346
  41   36469.7    274.2   0.180032709   1.62516   1.07408  -0.61763   0.30007
  42   36662.1    272.8   0.016573285   0.14882   0.27346  -0.20748  -0.17605
  43   36792.8    271.8   0.121489349   1.08705   0.53633  -0.88340   0.13789
  44   36823.5    271.6   0.352970372   3.15565   0.55075  -1.67962  -0.17665
  45   37051.2    269.9   0.065640423   0.58324  -0.66905  -0.28785   0.22969
  46   37353.7    267.7   0.103077229   0.90846   0.59500  -0.13496   0.73227
  47   37492.7    266.7   0.028710540   0.25210  -0.28443  -0.08404   0.40513
  48   37675.6    265.4   0.129107796   1.12815  -0.73033  -0.04420  -0.76995
  49   38192.0    261.8   0.026577524   0.22910   0.35277  -0.03678   0.32139
  50   38638.1    258.8   0.164586140   1.40234  -0.38755   0.84028  -0.73896
  51   38689.1    258.5   0.002501952   0.02129   0.05485  -0.13501  -0.00723
  52   38952.2    256.7   0.072655234   0.61406  -0.00951  -0.61542   0.48500
  53   39079.4    255.9   0.190741393   1.60684  -0.40408   1.07303  -0.54052
  54   39177.4    255.2   0.012546853   0.10543   0.19702  -0.06750   0.24912
  55   39364.1    254.0   0.036168372   0.30249   0.35301   0.41635   0.06724
  56   39479.3    253.3   0.029559807   0.24649   0.16314   0.29825   0.36184
  57   39641.4    252.3   0.039722947   0.32989   0.35222   0.41427  -0.18495
  58   39709.6    251.8   0.014953522   0.12397   0.03659   0.29537  -0.18812
  59   39998.2    250.0   0.062480180   0.51425  -0.43880  -0.07178  -0.56263
  60   40086.5    249.5   0.021273609   0.17471   0.27878  -0.09616   0.29622
  61   40210.2    248.7   0.030236561   0.24756  -0.45589   0.05296   0.19212

-----------------------------------------------------------------------------
         ABSORPTION SPECTRUM VIA TRANSITION VELOCITY DIPOLE MOMENTS
-----------------------------------------------------------------------------
State   Energy  Wavelength   fosc         P2         PX        PY        PZ  
        (cm-1)    (nm)                  (au**2)     (au)      (au)      (au) 
-----------------------------------------------------------------------------
   0   12143.6    823.5   1.800445290   0.14943   0.21641   0.27175   0.16955
   1   20891.9    478.7   0.335639258   0.04792  -0.19023   0.00052  -0.10833
   2   21900.9    456.6   0.000571681   0.00009  -0.00745   0.00264   0.00481
   3   22233.2    449.8   0.270385191   0.04109  -0.12405  -0.11845  -0.10802
   4   22989.4    435.0   0.019810906   0.00311  -0.04278   0.01357  -0.03314
   5   23904.4    418.3   0.067335602   0.01100  -0.07502   0.06009  -0.04198
   6   24472.2    408.6   0.030904309   0.00517  -0.03150   0.00873  -0.06403
   7   25157.3    397.5   0.039918038   0.00686  -0.02219  -0.02018  -0.07723
   8   25615.7    390.4   0.045398595   0.00795   0.04794   0.04626   0.05924
   9   26635.4    375.4   0.025266954   0.00460  -0.04020   0.05258  -0.01481
  10   27060.6    369.5   0.026243721   0.00485  -0.01241   0.05997   0.03322
  11   27213.8    367.5   0.064302338   0.01196   0.07031   0.08216  -0.01630
  12   27486.4    363.8   0.041254767   0.00775   0.08170  -0.02808   0.01691
  13   27568.4    362.7   0.102912990   0.01939  -0.12425  -0.04015  -0.04838
  14   27968.4    357.5   0.150485171   0.02877   0.15822  -0.05878   0.01661
  15   28562.3    350.1   0.012632454   0.00247   0.01393   0.04249   0.02159
  16   29111.8    343.5   0.177724857   0.03536   0.07415  -0.03135   0.16994
  17   29664.9    337.1   0.031092947   0.00630   0.05307   0.01683   0.05661
  18   29721.7    336.5   0.049110561   0.00998  -0.04451  -0.07747   0.04465
  19   30116.9    332.0   0.085316500   0.01756   0.08193  -0.03404   0.09843
  20   30419.0    328.7   0.081483554   0.01694  -0.01133  -0.03817   0.12391
  21   31305.9    319.4   0.007761626   0.00166  -0.02703  -0.02506  -0.01738
  22   31448.3    318.0   0.018509428   0.00398  -0.01421  -0.05264  -0.03170
  23   31581.0    316.6   0.344178115   0.07429  -0.23860  -0.05375  -0.12028
  24   32064.1    311.9   0.190294267   0.04170  -0.17517   0.09859  -0.03602
  25   32702.0    305.8   0.046504025   0.01039  -0.09906  -0.01999  -0.01347
  26   32785.4    305.0   0.034564915   0.00775   0.06792   0.05454  -0.01255
  27   33257.3    300.7   0.259574075   0.05900  -0.17053  -0.08614  -0.15000
  28   33314.0    300.2   0.037554982   0.00855   0.07197   0.03764   0.04420
  29   33559.6    298.0   0.004814271   0.00110  -0.01933   0.02645  -0.00554
  30   33703.2    296.7   0.066637360   0.01535   0.06165   0.05353   0.09319
  31   33868.1    295.3   0.090853468   0.02103   0.08759   0.10817   0.04072
  32   34041.3    293.8   0.028360313   0.00660   0.02583   0.07627  -0.01069
  33   34360.9    291.0   0.049632671   0.01166  -0.03914   0.07888  -0.06247
  34   34628.9    288.8   0.132819041   0.03143  -0.15017  -0.09086  -0.02506
  35   34899.4    286.5   0.044732833   0.01067  -0.00702   0.07917  -0.06598
  36   35522.1    281.5   0.010345055   0.00251   0.00433  -0.02834   0.04110
  37   35699.1    280.1   0.122159656   0.02981   0.15208   0.01237   0.08078
  38   35900.5    278.5   0.054710479   0.01342   0.09167   0.02682   0.06559
  39   35963.0    278.1   0.310409094   0.07630   0.18108   0.20169   0.05317
  40   36146.7    276.7   0.056473162   0.01395  -0.04549   0.10861   0.00932
  41   36469.7    274.2   0.156586864   0.03903   0.16849  -0.09368   0.04319
  42   36662.1    272.8   0.017510974   0.00439   0.04925  -0.03578  -0.02611
  43   36792.8    271.8   0.107567773   0.02705   0.08637  -0.13773   0.02491
  44   36823.5    271.6   0.303228023   0.07631   0.08265  -0.26211  -0.02794
  45   37051.2    269.9   0.055722756   0.01411  -0.10098  -0.04615   0.04224
  46   37353.7    267.7   0.097599139   0.02492   0.09748  -0.02294   0.12202
  47   37492.7    266.7   0.027765720   0.00711  -0.04205  -0.01900   0.07061
  48   37675.6    265.4   0.109414960   0.02817  -0.11089  -0.00385  -0.12594
  49   38192.0    261.8   0.025628908   0.00669   0.06037  -0.01220   0.05382
  50   38638.1    258.8   0.141781786   0.03744  -0.06423   0.13584  -0.12191
  51   38689.1    258.5   0.002234660   0.00059   0.00889  -0.02220  -0.00438
  52   38952.2    256.7   0.063908927   0.01701  -0.00060  -0.10254   0.08062
  53   39079.4    255.9   0.159831369   0.04269  -0.06814   0.17276  -0.09055
  54   39177.4    255.2   0.011914125   0.00319   0.03578  -0.01362   0.04152
  55   39364.1    254.0   0.028280691   0.00761   0.05492   0.06664   0.01232
  56   39479.3    253.3   0.023028212   0.00621   0.02489   0.04790   0.05745
  57   39641.4    252.3   0.034511613   0.00935   0.05813   0.07073  -0.03113
  58   39709.6    251.8   0.011898412   0.00323   0.00640   0.04629  -0.03233
  59   39998.2    250.0   0.054552975   0.01491  -0.07388  -0.01540  -0.09601
  60   40086.5    249.5   0.018772358   0.00514   0.04761  -0.01394   0.05179
  61   40210.2    248.7   0.023742352   0.00652  -0.07485   0.00593   0.02979

-------------------------------------------------------------------
                             CD SPECTRUM
-------------------------------------------------------------------
State   Energy Wavelength       R         MX        MY        MZ   
        (cm-1)   (nm)       (1e40*cgs)   (au)      (au)      (au)  
-------------------------------------------------------------------
   0   12143.6    823.5    -249.49711   3.08965  -1.70004  -0.91693
   1   20891.9    478.7     50.61272  -2.54231  -0.16408   4.57181
   2   21900.9    456.6      0.32022   0.18144  -0.19378   0.30857
   3   22233.2    449.8    -22.70305  -1.63841   1.19356   0.49278
   4   22989.4    435.0    -29.01911  -0.77770   0.40688   0.77841
   5   23904.4    418.3     66.23844  -1.22984  -0.07677   2.76402
   6   24472.2    408.6     71.09938  -1.21197   0.21033   1.13607
   7   25157.3    397.5    -29.34261  -1.36138   1.85431  -0.37397
   8   25615.7    390.4     24.62275   1.90127  -0.88152  -1.13188
   9   26635.4    375.4    113.69087  -0.74878  -0.94804   2.36125
  10   27060.6    369.5      3.72986   0.52055  -0.24027   0.62230
  11   27213.8    367.5    -126.65594  -0.82887   1.40808  -0.56071
  12   27486.4    363.8    -23.34230   0.08055  -0.69493  -0.88911
  13   27568.4    362.7      4.69012  -0.35528  -0.64351   1.58873
  14   27968.4    357.5    364.26563  -0.34793   1.20557  -3.38029
  15   28562.3    350.1     18.00010   0.49218  -0.47334   0.18469
  16   29111.8    343.5    -401.63059   2.05233  -2.49508  -0.09741
  17   29664.9    337.1     -1.75606   0.18801   0.04389  -0.16872
  18   29721.7    336.5     53.97408   0.53382  -0.32427  -0.65405
  19   30116.9    332.0     73.00647   0.76707  -0.80141  -1.27910
  20   30419.0    328.7     81.14536   2.38943  -1.28630  -0.53372
  21   31305.9    319.4     -1.47893  -0.08279   0.15125  -0.16360
  22   31448.3    318.0    -28.52326  -0.74908  -0.42766   0.58890
  23   31581.0    316.6    172.51563  -0.98029   0.73091   2.38741
  24   32064.1    311.9    -60.79873   0.31499   1.71985   1.68882
  25   32702.0    305.8     97.64606   0.61422  -0.26538   0.30267
  26   32785.4    305.0      6.42152  -0.82605   0.91571  -0.49379
  27   33257.3    300.7    -123.27359  -1.85645   1.58653   0.71746
  28   33314.0    300.2     42.52066  -0.04262  -0.26367  -0.30208
  29   33559.6    298.0    -35.72808  -0.02420   0.79689   0.36529
  30   33703.2    296.7    -58.47989   1.32977  -1.03056   0.11150
  31   33868.1    295.3     11.42997  -0.31797  -0.20775   1.00142
  32   34041.3    293.8    -37.60864  -0.24085   0.41770   0.17535
  33   34360.9    291.0    -36.03850  -1.10418   0.84961   1.40685
  34   34628.9    288.8    -24.53490   0.25045  -1.05287   1.37854
  35   34899.4    286.5    -22.65087  -2.04879   1.12905   1.56287
  36   35522.1    281.5    -48.58183   0.96456  -1.07325  -0.30843
  37   35699.1    280.1     -7.41010   0.72062  -1.29056  -1.12411
  38   35900.5    278.5    -25.66713   0.51325  -1.79806   0.23186
  39   35963.0    278.1    -23.83732  -0.42774   0.28155   0.63495
  40   36146.7    276.7     -1.80966   1.02811   0.46013   0.01444
  41   36469.7    274.2    256.34627  -1.11448  -0.67287  -1.01992
  42   36662.1    272.8    127.75624  -1.58222  -0.08387   0.71970
  43   36792.8    271.8    -13.89667   0.31765  -0.27444  -2.56615
  44   36823.5    271.6    -427.49721  -1.57473  -1.50851  -0.83288
  45   37051.2    269.9    187.66808   1.69461  -1.04935   0.15490
  46   37353.7    267.7    -92.29313   1.79980  -1.80053  -1.25960
  47   37492.7    266.7    -81.86634   0.21337  -0.44221   0.91532
  48   37675.6    265.4     98.29870  -1.29331   0.22198   1.75563
  49   38192.0    261.8     39.47083   0.28759  -0.25540  -0.86590
  50   38638.1    258.8    114.86569  -1.38699   0.79275   2.28829
  51   38689.1    258.5     10.96162   0.25423   0.49710  -0.92231
  52   38952.2    256.7    207.47404   1.30056  -0.12369  -1.94621
  53   39079.4    255.9     87.03155  -0.61943   0.55089   2.23978
  54   39177.4    255.2     18.87892   0.91847  -0.31229  -1.13248
  55   39364.1    254.0    -32.08399   0.08072   0.36688  -0.67128
  56   39479.3    253.3     -3.78919   0.98432  -1.54629   0.87518
  57   39641.4    252.3     13.73969  -0.39533   0.24275   0.10600
  58   39709.6    251.8    -53.72041  -0.12425   0.62334  -0.25689
  59   39998.2    250.0     83.26609  -1.60317   0.33059   1.83597
  60   40086.5    249.5     37.11957   0.66067  -0.18429  -1.21318
  61   40210.2    248.7    -16.44206   0.29743  -0.71794   1.26676

sTD-DFT done

Total run time:        4.721 sec

           *** ORCA-CIS/TD-DFT FINISHED WITHOUT ERROR ***

-------------------------   --------------------
FINAL SINGLE POINT ENERGY     -4686.141393280693
-------------------------   --------------------


                            ***************************************
                            *     ORCA property calculations      *
                            ***************************************

                                    ---------------------
                                    Active property flags
                                    ---------------------
   (+) Dipole Moment


------------------------------------------------------------------------------
                       ORCA ELECTRIC PROPERTIES CALCULATION
------------------------------------------------------------------------------

Dipole Moment Calculation                       ... on
Quadrupole Moment Calculation                   ... off
Polarizability Calculation                      ... off
GBWName                                         ... xtbopt.gbw
Electron density file                           ... xtbopt.scfp
The origin for moment calculation is the CENTER OF MASS  = (-12.229541, -18.024241 -0.179643)

-------------
DIPOLE MOMENT
-------------
                                X             Y             Z
Electronic contribution:     -6.23223      47.61190      -3.94642
Nuclear contribution   :      7.10924     -51.15943       3.31990
                        -----------------------------------------
Total Dipole Moment    :      0.87701      -3.54754      -0.62652
                        -----------------------------------------
Magnitude (a.u.)       :      3.70765
Magnitude (Debye)      :      9.42410



--------------------
Rotational spectrum 
--------------------
 
Rotational constants in cm-1:     0.001727     0.000189     0.000180 
Rotational constants in MHz :    51.761554     5.677439     5.381963 

 Dipole components along the rotational axes: 
x,y,z [a.u.] :     1.279611     3.145420    -1.488495 
x,y,z [Debye]:     3.252513     7.995021    -3.783454 

 

Timings for individual modules:

Sum of individual times         ...      815.822 sec (=  13.597 min)
GTO integral calculation        ...        5.171 sec (=   0.086 min)   0.6 %
SCF iterations                  ...      805.179 sec (=  13.420 min)  98.7 %
CIS module                      ...        5.472 sec (=   0.091 min)   0.7 %
                             ****ORCA TERMINATED NORMALLY****
TOTAL RUN TIME: 0 days 0 hours 13 minutes 36 seconds 922 msec
