
                                 *****************
                                 * O   R   C   A *
                                 *****************

           --- An Ab Initio, DFT and Semiempirical electronic structure package ---

                  #######################################################
                  #                        -***-                        #
                  #          Department of theory and spectroscopy      #
                  #               Directorship: Frank Neese             #
                  #        Max Planck Institute fuer Kohlenforschung    #
                  #                Kaiser Wilhelm Platz 1               #
                  #                 D-45470 Muelheim/Ruhr               #
                  #                      Germany                        #
                  #                                                     #
                  #                  All rights reserved                #
                  #                        -***-                        #
                  #######################################################


                         Program Version 4.2.0 -  RELEASE  -


 With contributions from (in alphabetic order):
   Daniel Aravena         : Magnetic Suceptibility
   Michael Atanasov       : Ab Initio Ligand Field Theory (pilot matlab implementation)
   Alexander A. Auer      : GIAO ZORA, VPT2
   Ute Becker             : Parallelization
   Giovanni Bistoni       : ED, misc. LED, open-shell LED, HFLED
   Martin Brehm           : Molecular dynamics
   Dmytro Bykov           : SCF Hessian
   Vijay G. Chilkuri      : MRCI spin determinant printing, contributions to CSF-ICE
   Dipayan Datta          : RHF DLPNO-CCSD density
   Achintya Kumar Dutta   : EOM-CC, STEOM-CC
   Dmitry Ganyushin       : Spin-Orbit,Spin-Spin,Magnetic field MRCI
   Miquel Garcia          : C-PCM Hessian, Gaussian charge scheme
   Yang Guo               : DLPNO-NEVPT2, CIM, IAO-localization
   Andreas Hansen         : Spin unrestricted coupled pair/coupled cluster methods
   Benjamin Helmich-Paris : CASSCF linear response (MC-RPA)
   Lee Huntington         : MR-EOM, pCC
   Robert Izsak           : Overlap fitted RIJCOSX, COSX-SCS-MP3, EOM
   Christian Kollmar      : KDIIS, OOCD, Brueckner-CCSD(T), CCSD density
   Simone Kossmann        : Meta GGA functionals, TD-DFT gradient, OOMP2, MP2 Hessian
   Martin Krupicka        : AUTO-CI
   Lucas Lang             : DCDCAS
   Dagmar Lenk            : GEPOL surface, SMD
   Dimitrios Liakos       : Extrapolation schemes; Compound Job, initial MDCI parallelization
   Dimitrios Manganas     : Further ROCIS development; embedding schemes
   Dimitrios Pantazis     : SARC Basis sets
   Taras Petrenko         : DFT Hessian,TD-DFT gradient, ASA, ECA, R-Raman, ABS, FL, XAS/XES, NRVS
   Peter Pinski           : DLPNO-MP2, DLPNO-MP2 Gradient
   Christoph Reimann      : Effective Core Potentials
   Marius Retegan         : Local ZFS, SOC
   Christoph Riplinger    : Optimizer, TS searches, QM/MM, DLPNO-CCSD(T), (RO)-DLPNO pert. Triples
   Tobias Risthaus        : Range-separated hybrids, TD-DFT gradient, RPA, STAB
   Michael Roemelt        : Original ROCIS implementation
   Masaaki Saitow         : Open-shell DLPNO-CCSD energy and density
   Barbara Sandhoefer     : DKH picture change effects
   Avijit Sen             : IP-ROCIS
   Kantharuban Sivalingam : CASSCF convergence, NEVPT2, FIC-MRCI
   Bernardo de Souza      : ESD, SOC TD-DFT
   Georgi Stoychev        : AutoAux, RI-MP2 NMR
   Willem Van den Heuvel  : Paramagnetic NMR
   Boris Wezisla          : Elementary symmetry handling
   Frank Wennmohs         : Technical directorship


 We gratefully acknowledge several colleagues who have allowed us to
 interface, adapt or use parts of their codes:
   Stefan Grimme, W. Hujo, H. Kruse,             : VdW corrections, initial TS optimization,
                  C. Bannwarth                     DFT functionals, gCP, sTDA/sTD-DF
   Ed Valeev, F. Pavosevic, A. Kumar             : LibInt (2-el integral package), F12 methods
   Garnet Chan, S. Sharma, J. Yang, R. Olivares  : DMRG
   Ulf Ekstrom                                   : XCFun DFT Library
   Mihaly Kallay                                 : mrcc  (arbitrary order and MRCC methods)
   Andreas Klamt, Michael Diedenhofen            : otool_cosmo (COSMO solvation model)
   Jiri Pittner, Ondrej Demel                    : Mk-CCSD
   Frank Weinhold                                : gennbo (NPA and NBO analysis)
   Christopher J. Cramer and Donald G. Truhlar   : smd solvation model
   Lars Goerigk                                  : TD-DFT with DH, B97 family of functionals
   V. Asgeirsson, H. Jonsson                     : NEB implementation
   FAccTs GmbH                                   : IRC, NEB, NEB-TS, Multilevel, MM, QM/MM, CI optimization
   S Lehtola, MJT Oliveira, MAL Marques          : LibXC Library


 Your calculation uses the libint2 library for the computation of 2-el integrals
 For citations please refer to: http://libint.valeyev.net

 Your ORCA version has been built with support for libXC version: 4.2.3
 For citations please refer to: https://tddft.org/programs/libxc/

 This ORCA versions uses:
   CBLAS   interface :  Fast vector & matrix operations
   LAPACKE interface :  Fast linear algebra routines
   SCALAPACK package :  Parallel linear algebra routines


XCFun DFT library Copyright 2009-2010 Ulf Ekstrom and contributors.
See http://admol.org/xcfun for more information. This is free soft-
ware; see the source code for copying conditions. There is ABSOLUTELY
NO WARRANTY; not even for MERCHANTABILITY or FITNESS FOR A PARTICULAR
PURPOSE. For details see the documentation. Scientific users of this 
library should cite U. Ekstrom, L. Visscher, R. Bast, A. J. Thorvald-
sen and K. Ruud; J.Chem.Theor.Comp. 2010, DOI: 10.1021/ct100117s
XCFun Version 0.99 
----- Orbital basis set information -----
Your calculation utilizes the basis: def2-SVP
   F. Weigend and R. Ahlrichs, Phys. Chem. Chem. Phys. 7, 3297 (2005).

----- AuxJ basis set information -----
Your calculation utilizes the auxiliary basis: def2/J
   F. Weigend, Phys. Chem. Chem. Phys. 8, 1057 (2006).

================================================================================
                                        WARNINGS
                       Please study these warnings very carefully!
================================================================================

INFO   : Checking CIS options ...

WARNING: CIS/ROCIS methods need fully converged wavefunctions
  ===> : Setting SCFConvForced true
         You can overwrite this default with %scf ConvForced false 


INFO   : the flag for use of LIBINT has been found!

================================================================================
                                       INPUT FILE
================================================================================
NAME = xtbopt.inp
|  1> # ORCA input file
|  2> # SCF done       -172.880983558751          0.000768987430
|  3> ! CAM-B3LYP def2-SVP def2/J RIJCOSX Grid4 TightSCF
|  4> %maxcore 5000
|  5> %tddft
|  6>     Mode sTDDFT
|  7>     Ethresh 5.0
|  8>     maxcore 5000
|  9> end
| 10> 
| 11> %pal
| 12>   nprocs 6
| 13>   end
| 14> * xyz 0 1
| 15>    C       -8.48677         2.01045         5.92358
| 16>    C       -9.24599         2.08132         7.05750
| 17>    F       -9.56533         3.27233         7.58093
| 18>    C       -9.70222         0.90724         7.69018
| 19>    F      -10.44512         1.00753         8.80071
| 20>    C       -9.39234        -0.32211         7.17981
| 21>    C       -8.61095        -0.42839         6.01289
| 22>    C       -8.14913         0.75784         5.37203
| 23>    C       -7.36201         0.67611         4.20092
| 24>    C       -7.04644        -0.55427         3.68589
| 25>    C       -7.51515        -1.73253         4.33063
| 26>    C       -8.27400        -1.68555         5.46392
| 27>    C       -7.04036        -2.92064         3.59097
| 28>    O       -7.16886        -4.07631         3.92206
| 29>    C       -6.32507        -2.38536         2.40073
| 30>    C       -6.26388        -0.94131         2.51434
| 31>    C       -5.57875        -0.07650         1.69928
| 32>    C       -5.55256         1.32318         1.87538
| 33>    N       -5.49018         2.46593         1.96288
| 34>    C       -4.78297        -0.44611         0.59494
| 35>    N       -4.11003        -0.66505        -0.30982
| 36>    C       -5.83010        -3.14983         1.38141
| 37>    C       -5.98144        -4.54950         1.26481
| 38>    C       -5.28839        -5.24614         0.31905
| 39>    C       -5.38668        -6.64488         0.14552
| 40>    N       -4.52183        -7.37952        -0.63628
| 41>    C       -3.36265        -6.88269        -1.33824
| 42>    C       -2.20010        -6.60085        -0.39015
| 43>    C       -4.81994        -8.74987        -0.60651
| 44>    O       -4.18553        -9.59233        -1.21039
| 45>    C       -5.98778        -8.84263         0.24361
| 46>    C       -6.31439        -7.53953         0.68210
| 47>    C       -7.52307        -7.62653         1.48070
| 48>    O       -8.20045        -6.78808         2.02946
| 49>    N       -7.82300        -9.00485         1.49951
| 50>    C       -8.98396        -9.50634         2.19529
| 51>    C      -10.12502        -9.83892         1.23699
| 52>    C       -6.92494        -9.73776         0.76670
| 53>    C       -6.97323       -11.14805         0.64792
| 54>    C       -6.08981       -11.86446        -0.10025
| 55>    C       -6.06610       -13.28283        -0.14928
| 56>    C       -6.50598       -14.10493         0.84377
| 57>    C       -6.81561       -13.68034         2.15923
| 58>    C       -7.51231       -14.36870         3.10777
| 59>    C       -7.39521       -14.00905         4.54370
| 60>    O       -6.94692       -12.98076         4.99736
| 61>    C       -7.90718       -15.18614         5.27621
| 62>    C       -7.91557       -15.42442         6.61997
| 63>    C       -8.43435       -16.64909         7.09762
| 64>    C       -8.93526       -17.60734         6.16888
| 65>    C       -9.44337       -18.82957         6.65247
| 66>    C       -9.45635       -19.08737         7.99464
| 67>    C       -8.96303       -18.13806         8.91230
| 68>    C       -8.46261       -16.94387         8.47448
| 69>    F       -8.98799       -18.41762        10.22182
| 70>    F       -9.93959       -20.24916         8.45210
| 71>    C       -8.92388       -17.32905         4.78262
| 72>    C       -8.42055       -16.13422         4.34344
| 73>    C       -8.31380       -15.56601         3.00261
| 74>    C       -9.00819       -15.97034         1.89173
| 75>    C       -9.11730       -15.16858         0.73638
| 76>    N       -9.28111       -14.49597        -0.17901
| 77>    C       -9.78208       -17.14685         1.83607
| 78>    N      -10.40164       -18.10842         1.74436
| 79>    H       -8.14511         2.91884         5.45240
| 80>    H       -9.74888        -1.21145         7.67541
| 81>    H       -7.03080         1.59249         3.74010
| 82>    H       -8.61366        -2.59651         5.93272
| 83>    H       -5.28525        -2.65806         0.58480
| 84>    H       -6.64264        -5.06187         1.94952
| 85>    H       -4.59322        -4.71155        -0.31624
| 86>    H       -3.63194        -5.98511        -1.90165
| 87>    H       -3.07941        -7.66861        -2.04392
| 88>    H       -2.47148        -5.84999         0.34871
| 89>    H       -1.34452        -6.24211        -0.95517
| 90>    H       -1.91569        -7.51204         0.13045
| 91>    H       -9.29525        -8.70558         2.87200
| 92>    H       -8.70525       -10.38037         2.79118
| 93>    H      -10.40815        -8.95188         0.67558
| 94>    H      -10.98806       -10.18120         1.80114
| 95>    H       -9.83816       -10.61744         0.53347
| 96>    H       -7.77873       -11.66389         1.15089
| 97>    H       -5.37789       -11.33681        -0.72344
| 98>    H       -5.66343       -13.73024        -1.04742
| 99>    H       -6.54388       -15.16950         0.64942
|100>    H       -6.35548       -12.75777         2.50146
|101>    H       -7.53042       -14.68947         7.31029
|102>    H       -9.82752       -19.56605         5.96411
|103>    H       -8.08837       -16.22805         9.18950
|104>    H       -9.30527       -18.07199         4.10004
|105> *
|106> 
|107>                          ****END OF INPUT****
================================================================================

                       ****************************
                       * Single Point Calculation *
                       ****************************

---------------------------------
CARTESIAN COORDINATES (ANGSTROEM)
---------------------------------
  C     -8.486770    2.010450    5.923580
  C     -9.245990    2.081320    7.057500
  F     -9.565330    3.272330    7.580930
  C     -9.702220    0.907240    7.690180
  F    -10.445120    1.007530    8.800710
  C     -9.392340   -0.322110    7.179810
  C     -8.610950   -0.428390    6.012890
  C     -8.149130    0.757840    5.372030
  C     -7.362010    0.676110    4.200920
  C     -7.046440   -0.554270    3.685890
  C     -7.515150   -1.732530    4.330630
  C     -8.274000   -1.685550    5.463920
  C     -7.040360   -2.920640    3.590970
  O     -7.168860   -4.076310    3.922060
  C     -6.325070   -2.385360    2.400730
  C     -6.263880   -0.941310    2.514340
  C     -5.578750   -0.076500    1.699280
  C     -5.552560    1.323180    1.875380
  N     -5.490180    2.465930    1.962880
  C     -4.782970   -0.446110    0.594940
  N     -4.110030   -0.665050   -0.309820
  C     -5.830100   -3.149830    1.381410
  C     -5.981440   -4.549500    1.264810
  C     -5.288390   -5.246140    0.319050
  C     -5.386680   -6.644880    0.145520
  N     -4.521830   -7.379520   -0.636280
  C     -3.362650   -6.882690   -1.338240
  C     -2.200100   -6.600850   -0.390150
  C     -4.819940   -8.749870   -0.606510
  O     -4.185530   -9.592330   -1.210390
  C     -5.987780   -8.842630    0.243610
  C     -6.314390   -7.539530    0.682100
  C     -7.523070   -7.626530    1.480700
  O     -8.200450   -6.788080    2.029460
  N     -7.823000   -9.004850    1.499510
  C     -8.983960   -9.506340    2.195290
  C    -10.125020   -9.838920    1.236990
  C     -6.924940   -9.737760    0.766700
  C     -6.973230  -11.148050    0.647920
  C     -6.089810  -11.864460   -0.100250
  C     -6.066100  -13.282830   -0.149280
  C     -6.505980  -14.104930    0.843770
  C     -6.815610  -13.680340    2.159230
  C     -7.512310  -14.368700    3.107770
  C     -7.395210  -14.009050    4.543700
  O     -6.946920  -12.980760    4.997360
  C     -7.907180  -15.186140    5.276210
  C     -7.915570  -15.424420    6.619970
  C     -8.434350  -16.649090    7.097620
  C     -8.935260  -17.607340    6.168880
  C     -9.443370  -18.829570    6.652470
  C     -9.456350  -19.087370    7.994640
  C     -8.963030  -18.138060    8.912300
  C     -8.462610  -16.943870    8.474480
  F     -8.987990  -18.417620   10.221820
  F     -9.939590  -20.249160    8.452100
  C     -8.923880  -17.329050    4.782620
  C     -8.420550  -16.134220    4.343440
  C     -8.313800  -15.566010    3.002610
  C     -9.008190  -15.970340    1.891730
  C     -9.117300  -15.168580    0.736380
  N     -9.281110  -14.495970   -0.179010
  C     -9.782080  -17.146850    1.836070
  N    -10.401640  -18.108420    1.744360
  H     -8.145110    2.918840    5.452400
  H     -9.748880   -1.211450    7.675410
  H     -7.030800    1.592490    3.740100
  H     -8.613660   -2.596510    5.932720
  H     -5.285250   -2.658060    0.584800
  H     -6.642640   -5.061870    1.949520
  H     -4.593220   -4.711550   -0.316240
  H     -3.631940   -5.985110   -1.901650
  H     -3.079410   -7.668610   -2.043920
  H     -2.471480   -5.849990    0.348710
  H     -1.344520   -6.242110   -0.955170
  H     -1.915690   -7.512040    0.130450
  H     -9.295250   -8.705580    2.872000
  H     -8.705250  -10.380370    2.791180
  H    -10.408150   -8.951880    0.675580
  H    -10.988060  -10.181200    1.801140
  H     -9.838160  -10.617440    0.533470
  H     -7.778730  -11.663890    1.150890
  H     -5.377890  -11.336810   -0.723440
  H     -5.663430  -13.730240   -1.047420
  H     -6.543880  -15.169500    0.649420
  H     -6.355480  -12.757770    2.501460
  H     -7.530420  -14.689470    7.310290
  H     -9.827520  -19.566050    5.964110
  H     -8.088370  -16.228050    9.189500
  H     -9.305270  -18.071990    4.100040

----------------------------
CARTESIAN COORDINATES (A.U.)
----------------------------
  NO LB      ZA    FRAG     MASS         X           Y           Z
   0 C     6.0000    0    12.011  -16.037671    3.799200   11.193944
   1 C     6.0000    0    12.011  -17.472389    3.933125   13.336742
   2 F     9.0000    0    18.998  -18.075854    6.183808   14.325882
   3 C     6.0000    0    12.011  -18.334539    1.714435   14.532334
   4 F     9.0000    0    18.998  -19.738416    1.903956   16.630932
   5 C     6.0000    0    12.011  -17.748950   -0.608700   13.567875
   6 C     6.0000    0    12.011  -16.272337   -0.809540   11.362715
   7 C     6.0000    0    12.011  -15.399624    1.432110   10.151665
   8 C     6.0000    0    12.011  -13.912183    1.277663    7.938588
   9 C     6.0000    0    12.011  -13.315842   -1.047419    6.965323
  10 C     6.0000    0    12.011  -14.201575   -3.274007    8.183705
  11 C     6.0000    0    12.011  -15.635594   -3.185228   10.325312
  12 C     6.0000    0    12.011  -13.304352   -5.519210    6.785950
  13 O     8.0000    0    15.999  -13.547182   -7.703110    7.411619
  14 C     6.0000    0    12.011  -11.952650   -4.507677    4.536722
  15 C     6.0000    0    12.011  -11.837018   -1.778818    4.751414
  16 C     6.0000    0    12.011  -10.542310   -0.144564    3.211174
  17 C     6.0000    0    12.011  -10.492818    2.500448    3.543955
  18 N     7.0000    0    14.007  -10.374937    4.659932    3.709306
  19 C     6.0000    0    12.011   -9.038503   -0.843026    1.124274
  20 N     7.0000    0    14.007   -7.766831   -1.256762   -0.585475
  21 C     6.0000    0    12.011  -11.017292   -5.952316    2.610487
  22 C     6.0000    0    12.011  -11.303283   -8.597309    2.390145
  23 C     6.0000    0    12.011   -9.993609   -9.913768    0.602917
  24 C     6.0000    0    12.011  -10.179350  -12.557003    0.274993
  25 N     7.0000    0    14.007   -8.545020  -13.945272   -1.202395
  26 C     6.0000    0    12.011   -6.354488  -13.006399   -2.528907
  27 C     6.0000    0    12.011   -4.157586  -12.473799   -0.737277
  28 C     6.0000    0    12.011   -9.108367  -16.534858   -1.146138
  29 O     8.0000    0    15.999   -7.909505  -18.126877   -2.287306
  30 C     6.0000    0    12.011  -11.315264  -16.710149    0.460356
  31 C     6.0000    0    12.011  -11.932468  -14.247647    1.288982
  32 C     6.0000    0    12.011  -14.216542  -14.412053    2.798117
  33 O     8.0000    0    15.999  -15.496605  -12.827612    3.835124
  34 N     7.0000    0    14.007  -14.783328  -17.016700    2.833663
  35 C     6.0000    0    12.011  -16.977224  -17.964379    4.148497
  36 C     6.0000    0    12.011  -19.133515  -18.592864    2.337572
  37 C     6.0000    0    12.011  -13.086240  -18.401700    1.448853
  38 C     6.0000    0    12.011  -13.177495  -21.066761    1.224391
  39 C     6.0000    0    12.011  -11.508073  -22.420580   -0.189445
  40 C     6.0000    0    12.011  -11.463268  -25.100911   -0.282098
  41 C     6.0000    0    12.011  -12.294520  -26.654455    1.594494
  42 C     6.0000    0    12.011  -12.879636  -25.852096    4.080353
  43 C     6.0000    0    12.011  -14.196209  -27.152908    5.872834
  44 C     6.0000    0    12.011  -13.974922  -26.473268    8.586349
  45 O     8.0000    0    15.999  -13.127776  -24.530081    9.443642
  46 C     6.0000    0    12.011  -14.942405  -28.697646    9.970592
  47 C     6.0000    0    12.011  -14.958259  -29.147930   12.509930
  48 C     6.0000    0    12.011  -15.938612  -31.462220   13.412558
  49 C     6.0000    0    12.011  -16.885194  -33.273051   11.657494
  50 C     6.0000    0    12.011  -17.845383  -35.582731   12.571346
  51 C     6.0000    0    12.011  -17.869912  -36.069902   15.107680
  52 C     6.0000    0    12.011  -16.937672  -34.275966   16.841806
  53 C     6.0000    0    12.011  -15.992015  -32.019274   16.014446
  54 F     9.0000    0    18.998  -16.984840  -34.804258   19.316440
  55 F     9.0000    0    18.998  -18.783103  -38.265367   15.972154
  56 C     6.0000    0    12.011  -16.863689  -32.747159    9.037842
  57 C     6.0000    0    12.011  -15.912533  -30.489257    8.207912
  58 C     6.0000    0    12.011  -15.710805  -29.415496    5.674111
  59 C     6.0000    0    12.011  -17.023012  -30.179569    3.574852
  60 C     6.0000    0    12.011  -17.229200  -28.664462    1.391557
  61 N     7.0000    0    14.007  -17.538756  -27.393413   -0.338280
  62 C     6.0000    0    12.011  -18.485452  -32.402851    3.469669
  63 N     7.0000    0    14.007  -19.656251  -34.219955    3.296363
  64 H     1.0000    0     1.008  -15.392027    5.515808   10.303543
  65 H     1.0000    0     1.008  -18.422713   -2.289309   14.504423
  66 H     1.0000    0     1.008  -13.286287    3.009370    7.067765
  67 H     1.0000    0     1.008  -16.277458   -4.906693   11.211216
  68 H     1.0000    0     1.008   -9.987675   -5.023005    1.105112
  69 H     1.0000    0     1.008  -12.552770   -9.565548    3.684059
  70 H     1.0000    0     1.008   -8.679928   -8.903539   -0.597607
  71 H     1.0000    0     1.008   -6.863372  -11.310219   -3.593598
  72 H     1.0000    0     1.008   -5.819242  -14.491573   -3.862449
  73 H     1.0000    0     1.008   -4.670420  -11.054879    0.658966
  74 H     1.0000    0     1.008   -2.540775  -11.795878   -1.805010
  75 H     1.0000    0     1.008   -3.620129  -14.195698    0.246515
  76 H     1.0000    0     1.008  -17.565477  -16.451162    5.427293
  77 H     1.0000    0     1.008  -16.450538  -19.616056    5.274566
  78 H     1.0000    0     1.008  -19.668553  -16.916602    1.276661
  79 H     1.0000    0     1.008  -20.764424  -19.239680    3.403661
  80 H     1.0000    0     1.008  -18.591428  -20.064054    1.008112
  81 H     1.0000    0     1.008  -14.699669  -22.041558    2.174867
  82 H     1.0000    0     1.008  -10.162739  -21.423466   -1.367103
  83 H     1.0000    0     1.008  -10.702332  -25.946393   -1.979337
  84 H     1.0000    0     1.008  -12.366141  -28.666201    1.227226
  85 H     1.0000    0     1.008  -12.010117  -24.108691    4.727074
  86 H     1.0000    0     1.008  -14.230431  -27.759075   13.814446
  87 H     1.0000    0     1.008  -18.571321  -36.974476   11.270535
  88 H     1.0000    0     1.008  -15.284804  -30.666570   17.365638
  89 H     1.0000    0     1.008  -17.584412  -34.151112    7.747953

--------------------------------
INTERNAL COORDINATES (ANGSTROEM)
--------------------------------
 C      0   0   0     0.000000000000     0.00000000     0.00000000
 C      1   0   0     1.366459707309     0.00000000     0.00000000
 F      2   1   0     1.339575238872   120.18617372     0.00000000
 C      2   1   3     1.409572148455   120.60358526   179.99976746
 F      4   2   1     1.339863938988   119.28365571   180.00695217
 C      4   2   1     1.366676470054   120.54630482     0.00000000
 C      6   4   2     1.408392011089   120.20456216     0.02397295
 C      1   2   3     1.409694996870   120.25391167   179.95781066
 C      8   1   2     1.413413003832   120.59362794   180.12592142
 C      9   8   1     1.370647755698   119.43679169   179.92281892
 C     10   9   8     1.422559439637   119.82447183     0.15564628
 C     11  10   9     1.364700211402   122.07782986   359.68707016
 C     11  10   9     1.477879505169   109.46210966   180.20072406
 O     13  11  10     1.209010333703   126.67356427   173.84594250
 C     13  11  10     1.488232414679   105.39844166   356.39010145
 C     15  13  11     1.449804073211   108.41281265     5.67087918
 C     16  15  13     1.371722368630   127.04713578   173.06072971
 C     17  16  15     1.410957557299   124.09229503   180.60400814
 N     18  17  16     1.147791390846   176.53642743   179.83296861
 C     17  16  15     1.410476584740   125.57787683   359.12333936
 N     20  17  16     1.148639902145   175.71323995   187.35375465
 C     15  13  11     1.366902682783   124.70032230   186.19001510
 C     22  15  13     1.412648386719   125.23218046     3.53563243
 C     23  22  15     1.363850273930   120.59017211   189.63850022
 C     24  23  22     1.412886114519   123.74469419   179.86823323
 N     25  24  23     1.377995896982   123.62839796   192.08073860
 C     26  25  24     1.443359332564   126.61652663     3.27341988
 C     27  26  25     1.526378372554   111.91053905    74.78794416
 C     26  25  24     1.402716987671   112.04885463   178.33790107
 O     29  26  25     1.215271967133   123.76183115   180.64132377
 C     29  26  25     1.447466302751   104.27272326     1.45391519
 C     25  24  23     1.396052492924   129.30503685    12.25598244
 C     32  25  24     1.451288497302   143.45142220     4.79016012
 O     33  32  25     1.209536938047   132.41629297   358.97026344
 N     33  32  25     1.410701188558   104.06230427   178.11787272
 C     35  33  32     1.443409210896   121.12409150   180.61418060
 C     36  35  33     1.526750231701   111.97797641   102.35963059
 C     35  33  32     1.371378623065   112.07442118   358.73393046
 C     38  35  33     1.416106809743   123.69196089   178.27551363
 C     39  38  35     1.361408290485   123.23219301   178.87280742
 C     40  39  38     1.419415218285   123.75631812   175.16820955
 C     41  40  39     1.362164133612   124.92502794   333.62498831
 C     42  41  40     1.416538886371   124.51975463   347.55845627
 C     43  42  41     1.363436287914   127.33106465   165.14326278
 C     44  43  42     1.484909255611   120.67532665   160.33471488
 O     45  44  43     1.210021340225   126.69789999    16.14585743
 C     45  44  43     1.477912395611   105.01474633   197.61308679
 C     47  45  44     1.364748580545   128.99137981   173.83582737
 C     48  47  45     1.413187468031   119.10154048   181.52250585
 C     49  48  47     1.425381309755   119.43091675     0.05796134
 C     50  49  48     1.409212983583   119.09035815   179.61360763
 C     51  50  49     1.366766120922   120.26532368     0.13437762
 C     52  51  50     1.409487131584   120.59595532     0.00000000
 C     53  52  51     1.366819770453   120.53361114   359.96025422
 F     53  52  51     1.339260775801   119.30691862   180.00942807
 F     52  51  50     1.338860169435   120.17429682   179.99603001
 C     50  49  48     1.413963088663   120.24272308   359.43176691
 C     57  50  49     1.368882350752   119.29426461     0.35363236
 C     44  43  42     1.444643929070   130.63882077   347.77778864
 C     59  44  43     1.371026839781   125.76010946   330.62656404
 C     60  59  44     1.410516824501   122.35903750   353.71490448
 N     61  60  59     1.147683222976   175.92849996   258.61460660
 C     60  59  44     1.409318824042   123.80104222   180.20021384
 N     63  60  59     1.147554871281   177.61742954   211.41476214
 H      1   2   3     1.078848710478   119.65039759     0.04967876
 H      6   4   2     1.078733408772   119.67501743   179.99850064
 H      9   8   1     1.077871718202   118.43738284   359.78220690
 H     12  11  10     1.079347245885   120.43879605   180.14366964
 H     22  15  13     1.083183616706   118.46729214   182.79102623
 H     23  22  15     1.080988548043   118.87335128     8.55929391
 H     24  23  22     1.082885580798   118.74262530     2.21324751
 H     27  26  25     1.093433943409   109.59478364   311.38343485
 H     27  26  25     1.093562712605   105.93013432   194.24090457
 H     28  27  26     1.087819812101   111.05886826   299.56310968
 H     28  27  26     1.086259234437   109.74235165   179.25906632
 H     28  27  26     1.087281299480   109.99225442    59.77924684
 H     36  35  33     1.093642750536   105.83202267   343.01174447
 H     36  35  33     1.093934457406   109.58760197   225.98053319
 H     37  36  35     1.087282735355   109.93754063   301.11768397
 H     37  36  35     1.086397193710   109.65837925   181.83417293
 H     37  36  35     1.087806251315   111.39216271    61.52179107
 H     39  38  35     1.080694210450   117.49952279     1.26652343
 H     40  39  38     1.083332998205   119.09496766   353.15959250
 H     41  40  39     1.081191147115   116.64253197   153.79867214
 H     42  41  40     1.082828526314   118.28146008   173.08261135
 H     43  42  41     1.086267183846   117.03597107   337.34631825
 H     48  47  45     1.079367281049   120.57370539     1.43650886
 H     51  50  49     1.078801882877   120.10117048   179.93507438
 H     54  53  52     1.078752729035   119.63372117   180.02867417
 H     57  50  49     1.078579450991   118.81850300   179.78255229

---------------------------
INTERNAL COORDINATES (A.U.)
---------------------------
 C      0   0   0     0.000000000000     0.00000000     0.00000000
 C      1   0   0     2.582234619853     0.00000000     0.00000000
 F      2   1   0     2.531430337251   120.18617372     0.00000000
 C      2   1   3     2.663705326583   120.60358526   179.99976746
 F      4   2   1     2.531975901404   119.28365571   180.00695217
 C      4   2   1     2.582644242077   120.54630482     0.00000000
 C      6   4   2     2.661475190161   120.20456216     0.02397295
 C      1   2   3     2.663937476443   120.25391167   179.95781066
 C      8   1   2     2.670963491365   120.59362794   180.12592142
 C      9   8   1     2.590148884343   119.43679169   179.92281892
 C     10   9   8     2.688247750138   119.82447183     0.15564628
 C     11  10   9     2.578909654454   122.07782986   359.68707016
 C     11  10   9     2.792787523705   109.46210966   180.20072406
 O     13  11  10     2.284698423779   126.67356427   173.84594250
 C     13  11  10     2.812351687367   105.39844166   356.39010145
 C     15  13  11     2.739732646213   108.41281265     5.67087918
 C     16  15  13     2.592179608485   127.04713578   173.06072971
 C     17  16  15     2.666323369882   124.09229503   180.60400814
 N     18  17  16     2.169011387571   176.53642743   179.83296861
 C     17  16  15     2.665414463467   125.57787683   359.12333936
 N     20  17  16     2.170614841548   175.71323995   187.35375465
 C     15  13  11     2.583071722183   124.70032230   186.19001510
 C     22  15  13     2.669518574425   125.23218046     3.53563243
 C     23  22  15     2.577303505402   120.59017211   189.63850022
 C     24  23  22     2.669967814861   123.74469419   179.86823323
 N     25  24  23     2.604034858964   123.62839796   192.08073860
 C     26  25  24     2.727553851386   126.61652663     3.27341988
 C     27  26  25     2.884437100867   111.91053905    74.78794416
 C     26  25  24     2.650750950097   112.04885463   178.33790107
 O     29  26  25     2.296531196114   123.76183115   180.64132377
 C     29  26  25     2.735314900279   104.27272326     1.45391519
 C     25  24  23     2.638156880205   129.30503685    12.25598244
 C     32  25  24     2.742537801210   143.45142220     4.79016012
 O     33  32  25     2.285693561770   132.41629297   358.97026344
 N     33  32  25     2.665838903173   104.06230427   178.11787272
 C     35  33  32     2.727648107773   121.12409150   180.61418060
 C     36  35  33     2.885139812816   111.97797641   102.35963059
 C     35  33  32     2.591530023507   112.07442118   358.73393046
 C     38  35  33     2.676054046795   123.69196089   178.27551363
 C     39  38  35     2.572688825466   123.23219301   178.87280742
 C     40  39  38     2.682306032879   123.75631812   175.16820955
 C     41  40  39     2.574117161978   124.92502794   333.62498831
 C     42  41  40     2.676870553290   124.51975463   347.55845627
 C     43  42  41     2.576521185207   127.33106465   165.14326278
 C     44  43  42     2.806071826830   120.67532665   160.33471488
 O     45  44  43     2.286608949226   126.69789999    16.14585743
 C     45  44  43     2.792849677632   105.01474633   197.61308679
 C     47  45  44     2.579001058888   128.99137981   173.83582737
 C     48  47  45     2.670537290468   119.10154048   181.52250585
 C     49  48  47     2.693580311848   119.43091675     0.05796134
 C     50  49  48     2.663026603339   119.09035815   179.61360763
 C     51  50  49     2.582813657664   120.26532368     0.13437762
 C     52  51  50     2.663544667979   120.59595532     0.00000000
 C     53  52  51     2.582915040584   120.53361114   359.96025422
 F     53  52  51     2.530836088167   119.30691862   180.00942807
 F     52  51  50     2.530079051848   120.17429682   179.99603001
 C     50  49  48     2.672003001046   120.24272308   359.43176691
 C     57  50  49     2.586812752479   119.29426461     0.35363236
 C     44  43  42     2.729981386975   130.63882077   347.77778864
 C     59  44  43     2.590865249442   125.76010946   330.62656404
 C     60  59  44     2.665490505595   122.35903750   353.71490448
 N     61  60  59     2.168806979920   175.92849996   258.61460660
 C     60  59  44     2.663226612820   123.80104222   180.20021384
 N     63  60  59     2.168564430368   177.61742954   211.41476214
 H      1   2   3     2.038728602737   119.65039759     0.04967876
 H      6   4   2     2.038510714090   119.67501743   179.99850064
 H      9   8   1     2.036882354901   118.43738284   359.78220690
 H     12  11  10     2.039670698125   120.43879605   180.14366964
 H     22  15  13     2.046920388324   118.46729214   182.79102623
 H     23  22  15     2.042772309706   118.87335128     8.55929391
 H     24  23  22     2.046357182080   118.74262530     2.21324751
 H     27  26  25     2.066290698577   109.59478364   311.38343485
 H     27  26  25     2.066534037091   105.93013432   194.24090457
 H     28  27  26     2.055681527925   111.05886826   299.56310968
 H     28  27  26     2.052732463529   109.74235165   179.25906632
 H     28  27  26     2.054663886552   109.99225442    59.77924684
 H     36  35  33     2.066685286861   105.83202267   343.01174447
 H     36  35  33     2.067236532957   109.58760197   225.98053319
 H     37  36  35     2.054666599961   109.93754063   301.11768397
 H     37  36  35     2.052993168772   109.65837925   181.83417293
 H     37  36  35     2.055655901753   111.39216271    61.52179107
 H     39  38  35     2.042216092265   117.49952279     1.26652343
 H     40  39  38     2.047202678447   119.09496766   353.15959250
 H     41  40  39     2.043155166468   116.64253197   153.79867214
 H     42  41  40     2.046249364732   118.28146008   173.08261135
 H     43  42  41     2.052747485734   117.03597107   337.34631825
 H     48  47  45     2.039708559099   120.57370539     1.43650886
 H     51  50  49     2.038640111397   120.10117048   179.93507438
 H     54  53  52     2.038547224096   119.63372117   180.02867417
 H     57  50  49     2.038219776048   118.81850300   179.78255229

---------------------
BASIS SET INFORMATION
---------------------
There are 5 groups of distinct atoms

 Group   1 Type C   : 7s4p1d contracted to 3s2p1d pattern {511/31/1}
 Group   2 Type F   : 7s4p1d contracted to 3s2p1d pattern {511/31/1}
 Group   3 Type O   : 7s4p1d contracted to 3s2p1d pattern {511/31/1}
 Group   4 Type N   : 7s4p1d contracted to 3s2p1d pattern {511/31/1}
 Group   5 Type H   : 4s1p contracted to 2s1p pattern {31/1}

Atom   0C    basis set group =>   1
Atom   1C    basis set group =>   1
Atom   2F    basis set group =>   2
Atom   3C    basis set group =>   1
Atom   4F    basis set group =>   2
Atom   5C    basis set group =>   1
Atom   6C    basis set group =>   1
Atom   7C    basis set group =>   1
Atom   8C    basis set group =>   1
Atom   9C    basis set group =>   1
Atom  10C    basis set group =>   1
Atom  11C    basis set group =>   1
Atom  12C    basis set group =>   1
Atom  13O    basis set group =>   3
Atom  14C    basis set group =>   1
Atom  15C    basis set group =>   1
Atom  16C    basis set group =>   1
Atom  17C    basis set group =>   1
Atom  18N    basis set group =>   4
Atom  19C    basis set group =>   1
Atom  20N    basis set group =>   4
Atom  21C    basis set group =>   1
Atom  22C    basis set group =>   1
Atom  23C    basis set group =>   1
Atom  24C    basis set group =>   1
Atom  25N    basis set group =>   4
Atom  26C    basis set group =>   1
Atom  27C    basis set group =>   1
Atom  28C    basis set group =>   1
Atom  29O    basis set group =>   3
Atom  30C    basis set group =>   1
Atom  31C    basis set group =>   1
Atom  32C    basis set group =>   1
Atom  33O    basis set group =>   3
Atom  34N    basis set group =>   4
Atom  35C    basis set group =>   1
Atom  36C    basis set group =>   1
Atom  37C    basis set group =>   1
Atom  38C    basis set group =>   1
Atom  39C    basis set group =>   1
Atom  40C    basis set group =>   1
Atom  41C    basis set group =>   1
Atom  42C    basis set group =>   1
Atom  43C    basis set group =>   1
Atom  44C    basis set group =>   1
Atom  45O    basis set group =>   3
Atom  46C    basis set group =>   1
Atom  47C    basis set group =>   1
Atom  48C    basis set group =>   1
Atom  49C    basis set group =>   1
Atom  50C    basis set group =>   1
Atom  51C    basis set group =>   1
Atom  52C    basis set group =>   1
Atom  53C    basis set group =>   1
Atom  54F    basis set group =>   2
Atom  55F    basis set group =>   2
Atom  56C    basis set group =>   1
Atom  57C    basis set group =>   1
Atom  58C    basis set group =>   1
Atom  59C    basis set group =>   1
Atom  60C    basis set group =>   1
Atom  61N    basis set group =>   4
Atom  62C    basis set group =>   1
Atom  63N    basis set group =>   4
Atom  64H    basis set group =>   5
Atom  65H    basis set group =>   5
Atom  66H    basis set group =>   5
Atom  67H    basis set group =>   5
Atom  68H    basis set group =>   5
Atom  69H    basis set group =>   5
Atom  70H    basis set group =>   5
Atom  71H    basis set group =>   5
Atom  72H    basis set group =>   5
Atom  73H    basis set group =>   5
Atom  74H    basis set group =>   5
Atom  75H    basis set group =>   5
Atom  76H    basis set group =>   5
Atom  77H    basis set group =>   5
Atom  78H    basis set group =>   5
Atom  79H    basis set group =>   5
Atom  80H    basis set group =>   5
Atom  81H    basis set group =>   5
Atom  82H    basis set group =>   5
Atom  83H    basis set group =>   5
Atom  84H    basis set group =>   5
Atom  85H    basis set group =>   5
Atom  86H    basis set group =>   5
Atom  87H    basis set group =>   5
Atom  88H    basis set group =>   5
Atom  89H    basis set group =>   5
---------------------------------
AUXILIARY/J BASIS SET INFORMATION
---------------------------------
There are 5 groups of distinct atoms

 Group   1 Type C   : 12s5p4d2f1g contracted to 6s4p3d1f1g pattern {711111/2111/211/2/1}
 Group   2 Type F   : 12s5p4d2f1g contracted to 6s4p3d1f1g pattern {711111/2111/211/2/1}
 Group   3 Type O   : 12s5p4d2f1g contracted to 6s4p3d1f1g pattern {711111/2111/211/2/1}
 Group   4 Type N   : 12s5p4d2f1g contracted to 6s4p3d1f1g pattern {711111/2111/211/2/1}
 Group   5 Type H   : 5s2p1d contracted to 3s1p1d pattern {311/2/1}

Atom   0C    basis set group =>   1
Atom   1C    basis set group =>   1
Atom   2F    basis set group =>   2
Atom   3C    basis set group =>   1
Atom   4F    basis set group =>   2
Atom   5C    basis set group =>   1
Atom   6C    basis set group =>   1
Atom   7C    basis set group =>   1
Atom   8C    basis set group =>   1
Atom   9C    basis set group =>   1
Atom  10C    basis set group =>   1
Atom  11C    basis set group =>   1
Atom  12C    basis set group =>   1
Atom  13O    basis set group =>   3
Atom  14C    basis set group =>   1
Atom  15C    basis set group =>   1
Atom  16C    basis set group =>   1
Atom  17C    basis set group =>   1
Atom  18N    basis set group =>   4
Atom  19C    basis set group =>   1
Atom  20N    basis set group =>   4
Atom  21C    basis set group =>   1
Atom  22C    basis set group =>   1
Atom  23C    basis set group =>   1
Atom  24C    basis set group =>   1
Atom  25N    basis set group =>   4
Atom  26C    basis set group =>   1
Atom  27C    basis set group =>   1
Atom  28C    basis set group =>   1
Atom  29O    basis set group =>   3
Atom  30C    basis set group =>   1
Atom  31C    basis set group =>   1
Atom  32C    basis set group =>   1
Atom  33O    basis set group =>   3
Atom  34N    basis set group =>   4
Atom  35C    basis set group =>   1
Atom  36C    basis set group =>   1
Atom  37C    basis set group =>   1
Atom  38C    basis set group =>   1
Atom  39C    basis set group =>   1
Atom  40C    basis set group =>   1
Atom  41C    basis set group =>   1
Atom  42C    basis set group =>   1
Atom  43C    basis set group =>   1
Atom  44C    basis set group =>   1
Atom  45O    basis set group =>   3
Atom  46C    basis set group =>   1
Atom  47C    basis set group =>   1
Atom  48C    basis set group =>   1
Atom  49C    basis set group =>   1
Atom  50C    basis set group =>   1
Atom  51C    basis set group =>   1
Atom  52C    basis set group =>   1
Atom  53C    basis set group =>   1
Atom  54F    basis set group =>   2
Atom  55F    basis set group =>   2
Atom  56C    basis set group =>   1
Atom  57C    basis set group =>   1
Atom  58C    basis set group =>   1
Atom  59C    basis set group =>   1
Atom  60C    basis set group =>   1
Atom  61N    basis set group =>   4
Atom  62C    basis set group =>   1
Atom  63N    basis set group =>   4
Atom  64H    basis set group =>   5
Atom  65H    basis set group =>   5
Atom  66H    basis set group =>   5
Atom  67H    basis set group =>   5
Atom  68H    basis set group =>   5
Atom  69H    basis set group =>   5
Atom  70H    basis set group =>   5
Atom  71H    basis set group =>   5
Atom  72H    basis set group =>   5
Atom  73H    basis set group =>   5
Atom  74H    basis set group =>   5
Atom  75H    basis set group =>   5
Atom  76H    basis set group =>   5
Atom  77H    basis set group =>   5
Atom  78H    basis set group =>   5
Atom  79H    basis set group =>   5
Atom  80H    basis set group =>   5
Atom  81H    basis set group =>   5
Atom  82H    basis set group =>   5
Atom  83H    basis set group =>   5
Atom  84H    basis set group =>   5
Atom  85H    basis set group =>   5
Atom  86H    basis set group =>   5
Atom  87H    basis set group =>   5
Atom  88H    basis set group =>   5
Atom  89H    basis set group =>   5


           ************************************************************
           *        Program running with 6 parallel MPI-processes     *
           *              working on a common directory               *
           ************************************************************
------------------------------------------------------------------------------
                           ORCA GTO INTEGRAL CALCULATION
                           -- RI-GTO INTEGRALS CHOSEN --
------------------------------------------------------------------------------

                         BASIS SET STATISTICS AND STARTUP INFO

Gaussian basis set:
 # of primitive gaussian shells          ...  898
 # of primitive gaussian functions       ... 1718
 # of contracted shells                  ...  462
 # of contracted basis functions         ... 1026
 Highest angular momentum                ...    2
 Maximum contraction depth               ...    5
Auxiliary gaussian basis set:
 # of primitive gaussian shells          ... 1744
 # of primitive gaussian functions       ... 4896
 # of contracted shells                  ... 1090
 # of contracted aux-basis functions     ... 3422
 Highest angular momentum                ...    4
 Maximum contraction depth               ...    7
Ratio of auxiliary to basis functions    ...  3.34
Integral package used                  ... LIBINT
 One Electron integrals                  ... done
 Ordering auxiliary basis shells         ... done
 Integral threshhold             Thresh  ...  2.500e-11
 Primitive cut-off               TCut    ...  2.500e-12
 Pre-screening matrix                    ... done
 Shell pair data                         ... 
 Ordering of the shell pairs             ... done (   0.007 sec) 38151 of 106953 pairs
 Determination of significant pairs      ... done (   0.000 sec)
 Creation of shell pair data             ... done (   0.005 sec)
 Storage of shell pair data              ... done (   0.008 sec)
 Shell pair data done in (   0.020 sec)
 Computing two index integrals           ... done
 Cholesky decomposition of the V-matrix  ... done


Timings:
 Total evaluation time                   ...   1.709 sec (  0.028 min)
 One electron matrix time                ...   0.404 sec (  0.007 min) = 23.6%
 Schwartz matrix evaluation time         ...   0.484 sec (  0.008 min) = 28.3%
 Two index repulsion integral time       ...   0.332 sec (  0.006 min) = 19.4%
 Cholesky decomposition of V             ...   0.456 sec (  0.008 min) = 26.7%
 Three index repulsion integral time     ...   0.000 sec (  0.000 min) =  0.0%



           ************************************************************
           *        Program running with 6 parallel MPI-processes     *
           *              working on a common directory               *
           ************************************************************
-------------------------------------------------------------------------------
                                 ORCA SCF
-------------------------------------------------------------------------------

------------
SCF SETTINGS
------------
Hamiltonian:
 Density Functional     Method          .... DFT(GTOs)
 Exchange Functional    Exchange        .... WB88
 Correlation Functional Correlation     .... LYP
 LDA part of GGA corr.  LDAOpt          .... VWN-5
 Gradients option       PostSCFGGA      .... off
 Hybrid DFT is turned on
   Fraction HF Exchange ScalHFX         ....  0.190000
   Scaling of DF-GGA-X  ScalDFX         ....  0.350000
   Scaling of DF-GGA-C  ScalDFC         ....  0.810000
   Scaling of DF-LDA-C  ScalLDAC        ....  1.000000
   Perturbative correction              ....  0.000000
   Density functional embedding theory  .... OFF
 Long-range corrected/Screened/Range-Separated Hybrid DFT is turned on
   Amount of maximum screened exact exchange              ....  0.460000
   Range separation parameter mu (erf(mu*r12)/r12)        ....  0.330000
 RI-approximation to the Coulomb term is turned on
   Number of auxiliary basis functions  .... 3422
   RIJ-COSX (HFX calculated with COS-X)).... on


General Settings:
 Integral files         IntName         .... xtbopt
 Hartree-Fock type      HFTyp           .... RHF
 Total Charge           Charge          ....    0
 Multiplicity           Mult            ....    1
 Number of Electrons    NEL             ....  436
 Basis Dimension        Dim             .... 1026
 Nuclear Repulsion      ENuc            ....   7803.9022392148 Eh

Convergence Acceleration:
 DIIS                   CNVDIIS         .... on
   Start iteration      DIISMaxIt       ....    12
   Startup error        DIISStart       ....  0.200000
   # of expansion vecs  DIISMaxEq       ....     5
   Bias factor          DIISBfac        ....   1.050
   Max. coefficient     DIISMaxC        ....  10.000
 Newton-Raphson         CNVNR           .... off
 SOSCF                  CNVSOSCF        .... on
   Start iteration      SOSCFMaxIt      ....   150
   Startup grad/error   SOSCFStart      ....  0.003300
 Level Shifting         CNVShift        .... on
   Level shift para.    LevelShift      ....    0.2500
   Turn off err/grad.   ShiftErr        ....    0.0010
 Zerner damping         CNVZerner       .... off
 Static damping         CNVDamp         .... on
   Fraction old density DampFac         ....    0.7000
   Max. Damping (<1)    DampMax         ....    0.9800
   Min. Damping (>=0)   DampMin         ....    0.0000
   Turn off err/grad.   DampErr         ....    0.1000
 Fernandez-Rico         CNVRico         .... off

SCF Procedure:
 Maximum # iterations   MaxIter         ....   125
 SCF integral mode      SCFMode         .... Direct
   Integral package                     .... LIBINT
 Reset frequency        DirectResetFreq ....    20
 Integral Threshold     Thresh          ....  2.500e-11 Eh
 Primitive CutOff       TCut            ....  2.500e-12 Eh

Convergence Tolerance:
 Convergence Check Mode ConvCheckMode   .... Total+1el-Energy
 Convergence forced     ConvForced      .... 1
 Energy Change          TolE            ....  1.000e-08 Eh
 1-El. energy change                    ....  1.000e-05 Eh
 Orbital Gradient       TolG            ....  1.000e-05
 Orbital Rotation angle TolX            ....  1.000e-05
 DIIS Error             TolErr          ....  5.000e-07


Diagonalization of the overlap matrix:
Smallest eigenvalue                        ... 1.912e-04
Time for diagonalization                   ...    0.148 sec
Threshold for overlap eigenvalues          ... 1.000e-08
Number of eigenvalues below threshold      ... 0
Time for construction of square roots      ...    0.110 sec
Total time needed                          ...    0.261 sec

-------------------
DFT GRID GENERATION
-------------------

General Integration Accuracy     IntAcc      ...  4.670
Radial Grid Type                 RadialGrid  ... Gauss-Chebyshev
Angular Grid (max. acc.)         AngularGrid ... Lebedev-302
Angular grid pruning method      GridPruning ... 3 (G Style)
Weight generation scheme         WeightScheme... Becke
Basis function cutoff            BFCut       ...    1.0000e-11
Integration weight cutoff        WCut        ...    1.0000e-14
Grids for H and He will be reduced by one unit

# of grid points (after initial pruning)     ... 486052 (   0.0 sec)
# of grid points (after weights+screening)   ... 417545 (   3.9 sec)
nearest neighbour list constructed           ...    0.0 sec
Grid point re-assignment to atoms done       ...    0.1 sec
Grid point division into batches done        ...    1.3 sec
Reduced shell lists constructed in    2.1 sec

Total number of grid points                  ...   417545
Total number of batches                      ...     6571
Average number of points per batch           ...       63
Average number of grid points per atom       ...     4639
Average number of shells per batch           ...    81.77 (17.70%)
Average number of basis functions per batch  ...   175.55 (17.11%)
Average number of large shells per batch     ...    53.73 (65.71%)
Average number of large basis fcns per batch ...   116.80 (66.54%)
Maximum spatial batch extension              ...  20.85, 19.41, 18.24 au
Average spatial batch extension              ...   0.39,  0.31,  0.36 au

Time for grid setup =    6.314 sec

------------------------------
INITIAL GUESS: MODEL POTENTIAL
------------------------------
Loading Hartree-Fock densities                     ... done
Calculating cut-offs                               ... done
Setting up the integral package                    ... done
Initializing the effective Hamiltonian             ... done
Starting the Coulomb interaction                   ... done (   0.9 sec)
Reading the grid                                   ... done
Mapping shells                                     ... done
Starting the XC term evaluation                    ... done (   1.1 sec)
  promolecular density results
     # of electrons  =    435.985994352
     EX              =   -375.343350711
     EC              =    -14.793316029
     EX+EC           =   -390.136666739
Transforming the Hamiltonian                       ... done (   0.1 sec)
Diagonalizing the Hamiltonian                      ... done (   0.1 sec)
Back transforming the eigenvectors                 ... done (   0.0 sec)
Now organizing SCF variables                       ... done
                      ------------------
                      INITIAL GUESS DONE (   8.7 sec)
                      ------------------
--------------------
COSX GRID GENERATION
--------------------

General Integration Accuracy     IntAcc      ...  3.340
Radial Grid Type                 RadialGrid  ... Gauss-Chebyshev
Angular Grid (max. acc.)         AngularGrid ... Lebedev-50
Angular grid pruning method      GridPruning ... 3 (G Style)
Weight generation scheme         WeightScheme... Becke
Basis function cutoff            BFCut       ...    1.0000e-11
Integration weight cutoff        WCut        ...    1.0000e-14
Grids for H and He will be reduced by one unit

# of grid points (after initial pruning)     ...  45356 (   0.0 sec)
# of grid points (after weights+screening)   ...  40648 (   0.4 sec)
nearest neighbour list constructed           ...    0.0 sec
Grid point re-assignment to atoms done       ...    0.0 sec
Grid point division into batches done        ...    0.0 sec
Reduced shell lists constructed in    0.1 sec

Total number of grid points                  ...    40648
Total number of batches                      ...      688
Average number of points per batch           ...       59
Average number of grid points per atom       ...      452
Average number of shells per batch           ...    96.60 (20.91%)
Average number of basis functions per batch  ...   209.16 (20.39%)
Average number of large shells per batch     ...    63.49 (65.72%)
Average number of large basis fcns per batch ...   140.25 (67.06%)
Maximum spatial batch extension              ...  29.01, 18.61, 19.53 au
Average spatial batch extension              ...   0.99,  0.55,  0.84 au

Overlap Fitting                  UseSFitting ... on
Constructing numerical overlap ... done (      0.1 sec)
Inverting numerical overlap    ... done (      0.0 sec)
Obtaining analytic overlap     ... done (      0.0 sec)
Final contraction and storage  ... done (      0.1 sec)


General Integration Accuracy     IntAcc      ...  3.670
Radial Grid Type                 RadialGrid  ... Gauss-Chebyshev
Angular Grid (max. acc.)         AngularGrid ... Lebedev-50
Angular grid pruning method      GridPruning ... 3 (G Style)
Weight generation scheme         WeightScheme... Becke
Basis function cutoff            BFCut       ...    1.0000e-11
Integration weight cutoff        WCut        ...    1.0000e-14
Grids for H and He will be reduced by one unit

# of grid points (after initial pruning)     ...  56616 (   0.0 sec)
# of grid points (after weights+screening)   ...  50544 (   0.4 sec)
nearest neighbour list constructed           ...    0.0 sec
Grid point re-assignment to atoms done       ...    0.0 sec
Grid point division into batches done        ...    0.0 sec
Reduced shell lists constructed in    0.1 sec

Total number of grid points                  ...    50544
Total number of batches                      ...      840
Average number of points per batch           ...       60
Average number of grid points per atom       ...      562
Average number of shells per batch           ...    96.11 (20.80%)
Average number of basis functions per batch  ...   207.82 (20.26%)
Average number of large shells per batch     ...    63.26 (65.82%)
Average number of large basis fcns per batch ...   139.70 (67.22%)
Maximum spatial batch extension              ...  26.60, 20.38, 15.73 au
Average spatial batch extension              ...   0.91,  0.52,  0.74 au

Overlap Fitting                  UseSFitting ... on
Constructing numerical overlap ... done (      0.1 sec)
Inverting numerical overlap    ... done (      0.0 sec)
Obtaining analytic overlap     ... done (      0.0 sec)
Final contraction and storage  ... done (      0.1 sec)


General Integration Accuracy     IntAcc      ...  4.010
Radial Grid Type                 RadialGrid  ... Gauss-Chebyshev
Angular Grid (max. acc.)         AngularGrid ... Lebedev-110
Angular grid pruning method      GridPruning ... 3 (G Style)
Weight generation scheme         WeightScheme... Becke
Basis function cutoff            BFCut       ...    1.0000e-11
Integration weight cutoff        WCut        ...    1.0000e-14
Grids for H and He will be reduced by one unit

# of grid points (after initial pruning)     ... 111048 (   0.0 sec)
# of grid points (after weights+screening)   ...  98227 (   0.9 sec)
nearest neighbour list constructed           ...    0.0 sec
Grid point re-assignment to atoms done       ...    0.0 sec
Grid point division into batches done        ...    0.1 sec
Reduced shell lists constructed in    0.3 sec

Total number of grid points                  ...    98227
Total number of batches                      ...     1589
Average number of points per batch           ...       61
Average number of grid points per atom       ...     1091
Average number of shells per batch           ...    89.65 (19.41%)
Average number of basis functions per batch  ...   193.94 (18.90%)
Average number of large shells per batch     ...    59.88 (66.79%)
Average number of large basis fcns per batch ...   131.47 (67.79%)
Maximum spatial batch extension              ...  34.34, 17.10, 20.99 au
Average spatial batch extension              ...   0.69,  0.45,  0.61 au

Overlap Fitting                  UseSFitting ... on
Constructing numerical overlap ... done (      0.1 sec)
Inverting numerical overlap    ... done (      0.0 sec)
Obtaining analytic overlap     ... done (      0.0 sec)
Final contraction and storage  ... done (      0.1 sec)

Time for X-Grid setup             =    3.050 sec
--------------
SCF ITERATIONS
--------------
ITER       Energy         Delta-E        Max-DP      RMS-DP      [F,P]     Damp
               ***  Starting incremental Fock matrix formation  ***
  0  -2944.9367166391   0.000000000000 0.07788913  0.00105890  0.2345483 0.7000
  1  -2945.4265349391  -0.489818300026 0.04439679  0.00073403  0.0990671 0.7000
                               ***Turning on DIIS***
  2  -2945.6293262446  -0.202791305564 0.07093827  0.00131186  0.0415955 0.0000
  3  -2945.9922512621  -0.362925017454 0.03501073  0.00049383  0.0512836 0.0000
  4  -2946.0408365529  -0.048585290835 0.01499863  0.00014719  0.0256082 0.0000
  5  -2946.0469824566  -0.006145903658 0.00416986  0.00005557  0.0037064 0.0000
                      *** Initiating the SOSCF procedure ***
                           *** Shutting down DIIS ***
                      *** Re-Reading the Fockian *** 
                      *** Removing any level shift *** 
ITER      Energy       Delta-E        Grad      Rot      Max-DP    RMS-DP
  6  -2946.04761797  -0.0006355130  0.002791  0.002791  0.002302  0.000030
               *** Restarting incremental Fock matrix formation ***
  7  -2946.04785846  -0.0002404915  0.002218  0.014792  0.001870  0.000037
  8  -2946.04809165  -0.0002331904  0.000673  0.014340  0.002353  0.000046
  9  -2946.04810216  -0.0000105050  0.000783  0.003037  0.001481  0.000016
 10  -2946.04816478  -0.0000626284  0.000193  0.001361  0.000623  0.000008
 11  -2946.04816423   0.0000005555  0.000135  0.000479  0.000360  0.000004
 12  -2946.04816816  -0.0000039350  0.000029  0.000226  0.000200  0.000002
 13  -2946.04816821  -0.0000000482  0.000021  0.000082  0.000104  0.000001
 14  -2946.04816844  -0.0000002297  0.000004  0.000033  0.000026  0.000000
 15  -2946.04816843   0.0000000116  0.000005  0.000017  0.000015  0.000000
                  ***Gradient check signals convergence***
              ***Rediagonalizing the Fockian in SOSCF/NRSCF***

               *****************************************************
               *                     SUCCESS                       *
               *           SCF CONVERGED AFTER  16 CYCLES          *
               *****************************************************

Setting up the final grid:

General Integration Accuracy     IntAcc      ...  5.010
Radial Grid Type                 RadialGrid  ... Gauss-Chebyshev
Angular Grid (max. acc.)         AngularGrid ... Lebedev-434
Angular grid pruning method      GridPruning ... 3 (G Style)
Weight generation scheme         WeightScheme... Becke
Basis function cutoff            BFCut       ...    1.0000e-11
Integration weight cutoff        WCut        ...    1.0000e-14
Grids for H and He will be reduced by one unit

# of grid points (after initial pruning)     ... 859072 (   0.0 sec)
# of grid points (after weights+screening)   ... 735500 (   6.6 sec)
nearest neighbour list constructed           ...    0.0 sec
Grid point re-assignment to atoms done       ...    0.1 sec
Grid point division into batches done        ...    4.1 sec
Reduced shell lists constructed in    5.5 sec

Total number of grid points                  ...   735500
Total number of batches                      ...    11537
Average number of points per batch           ...       63
Average number of grid points per atom       ...     8172
Average number of shells per batch           ...    80.02 (17.32%)
Average number of basis functions per batch  ...   171.41 (16.71%)
Average number of large shells per batch     ...    52.44 (65.53%)
Average number of large basis fcns per batch ...   113.82 (66.40%)
Maximum spatial batch extension              ...  20.56, 13.44, 17.47 au
Average spatial batch extension              ...   0.30,  0.26,  0.29 au

Final grid set up in   12.7 sec
Final integration                            ... done (   2.3 sec)
Change in XC energy                          ...    -0.000057374
Integrated number of electrons               ...   436.000046912
Previous integrated no of electrons          ...   435.999338104
Old exchange energy                            =   -106.612047502 Eh
New exchange energy                            =   -106.612840827 Eh
Exchange energy change after final integration =     -0.000793325 Eh
Total energy after final integration           =  -2946.049019130 Eh
Final COS-X integration done in                =    44.101 sec

----------------
TOTAL SCF ENERGY
----------------

Total Energy       :        -2946.04901913 Eh          -80166.06937 eV

Components:
Nuclear Repulsion  :         7803.90223921 Eh          212354.97585 eV
Electronic Energy  :       -10749.95125834 Eh         -292521.04522 eV
One Electron Energy:       -19547.81765045 Eh         -531923.16072 eV
Two Electron Energy:         8797.86639211 Eh          239402.11550 eV

Virial components:
Potential Energy   :        -5866.13090430 Eh         -159625.53711 eV
Kinetic Energy     :         2920.08188517 Eh           79459.46774 eV
Virial Ratio       :            2.00889260


DFT components:
N(Alpha)           :      218.000023456212 electrons
N(Beta)            :      218.000023456212 electrons
N(Total)           :      436.000046912425 electrons
E(XC)              :     -290.527559726586 Eh       
DFET-embed. en.    :        0.000000000000 Eh       

---------------
SCF CONVERGENCE
---------------

  Last Energy change         ...    4.0836e-10  Tolerance :   1.0000e-08
  Last MAX-Density change    ...    6.2172e-15  Tolerance :   1.0000e-07
  Last RMS-Density change    ...    3.4461e-17  Tolerance :   5.0000e-09
  Last Orbital Gradient      ...    1.3641e-06  Tolerance :   1.0000e-05
  Last Orbital Rotation      ...    1.1855e-05  Tolerance :   1.0000e-05

             **** THE GBW FILE WAS UPDATED (xtbopt.gbw) ****
             **** DENSITY FILE WAS UPDATED (xtbopt.scfp) ****
             **** ENERGY FILE WAS UPDATED (xtbopt.en.tmp) ****
             **** THE GBW FILE WAS UPDATED (xtbopt.gbw) ****
             **** DENSITY FILE WAS UPDATED (xtbopt.scfp) ****
----------------
ORBITAL ENERGIES
----------------

  NO   OCC          E(Eh)            E(eV) 
   0   2.0000     -24.802916      -674.9217 
   1   2.0000     -24.802274      -674.9042 
   2   2.0000     -24.799125      -674.8185 
   3   2.0000     -24.798053      -674.7893 
   4   2.0000     -19.224097      -523.1143 
   5   2.0000     -19.218277      -522.9559 
   6   2.0000     -19.203204      -522.5458 
   7   2.0000     -19.200393      -522.4693 
   8   2.0000     -14.463808      -393.5802 
   9   2.0000     -14.462708      -393.5503 
  10   2.0000     -14.424839      -392.5198 
  11   2.0000     -14.423040      -392.4709 
  12   2.0000     -14.421472      -392.4282 
  13   2.0000     -14.418724      -392.3534 
  14   2.0000     -10.386520      -282.6316 
  15   2.0000     -10.386083      -282.6197 
  16   2.0000     -10.385532      -282.6047 
  17   2.0000     -10.383729      -282.5556 
  18   2.0000     -10.382385      -282.5191 
  19   2.0000     -10.381519      -282.4955 
  20   2.0000     -10.374571      -282.3064 
  21   2.0000     -10.368851      -282.1508 
  22   2.0000     -10.353557      -281.7346 
  23   2.0000     -10.353434      -281.7313 
  24   2.0000     -10.349638      -281.6280 
  25   2.0000     -10.347921      -281.5812 
  26   2.0000     -10.346986      -281.5558 
  27   2.0000     -10.345097      -281.5044 
  28   2.0000     -10.326921      -281.0098 
  29   2.0000     -10.325274      -280.9650 
  30   2.0000     -10.324214      -280.9361 
  31   2.0000     -10.323638      -280.9205 
  32   2.0000     -10.321512      -280.8626 
  33   2.0000     -10.317253      -280.7467 
  34   2.0000     -10.316556      -280.7277 
  35   2.0000     -10.316161      -280.7170 
  36   2.0000     -10.315157      -280.6897 
  37   2.0000     -10.314826      -280.6807 
  38   2.0000     -10.313415      -280.6423 
  39   2.0000     -10.311889      -280.6008 
  40   2.0000     -10.311459      -280.5891 
  41   2.0000     -10.311186      -280.5816 
  42   2.0000     -10.309369      -280.5322 
  43   2.0000     -10.309142      -280.5260 
  44   2.0000     -10.308973      -280.5214 
  45   2.0000     -10.308938      -280.5205 
  46   2.0000     -10.308902      -280.5195 
  47   2.0000     -10.306373      -280.4507 
  48   2.0000     -10.306259      -280.4476 
  49   2.0000     -10.305534      -280.4278 
  50   2.0000     -10.304975      -280.4126 
  51   2.0000     -10.304403      -280.3971 
  52   2.0000     -10.303623      -280.3758 
  53   2.0000     -10.303414      -280.3701 
  54   2.0000     -10.302641      -280.3491 
  55   2.0000     -10.301747      -280.3248 
  56   2.0000     -10.301218      -280.3104 
  57   2.0000     -10.300614      -280.2940 
  58   2.0000     -10.296089      -280.1708 
  59   2.0000     -10.293712      -280.1061 
  60   2.0000     -10.278301      -279.6868 
  61   2.0000     -10.275005      -279.5971 
  62   2.0000     -10.269200      -279.4391 
  63   2.0000     -10.266721      -279.3717 
  64   2.0000      -1.325718       -36.0746 
  65   2.0000      -1.321504       -35.9600 
  66   2.0000      -1.310849       -35.6700 
  67   2.0000      -1.306606       -35.5546 
  68   2.0000      -1.145005       -31.1572 
  69   2.0000      -1.138524       -30.9808 
  70   2.0000      -1.137866       -30.9629 
  71   2.0000      -1.133972       -30.8570 
  72   2.0000      -1.075316       -29.2608 
  73   2.0000      -1.066287       -29.0151 
  74   2.0000      -1.027899       -27.9706 
  75   2.0000      -1.023007       -27.8374 
  76   2.0000      -1.010812       -27.5056 
  77   2.0000      -1.006563       -27.3900 
  78   2.0000      -1.002906       -27.2905 
  79   2.0000      -0.998448       -27.1692 
  80   2.0000      -0.988396       -26.8956 
  81   2.0000      -0.983249       -26.7556 
  82   2.0000      -0.952883       -25.9293 
  83   2.0000      -0.941398       -25.6167 
  84   2.0000      -0.937515       -25.5111 
  85   2.0000      -0.934917       -25.4404 
  86   2.0000      -0.925347       -25.1800 
  87   2.0000      -0.910735       -24.7824 
  88   2.0000      -0.900306       -24.4986 
  89   2.0000      -0.898931       -24.4612 
  90   2.0000      -0.893780       -24.3210 
  91   2.0000      -0.892123       -24.2759 
  92   2.0000      -0.879769       -23.9397 
  93   2.0000      -0.867186       -23.5973 
  94   2.0000      -0.859164       -23.3790 
  95   2.0000      -0.846654       -23.0386 
  96   2.0000      -0.841568       -22.9002 
  97   2.0000      -0.827772       -22.5248 
  98   2.0000      -0.822809       -22.3898 
  99   2.0000      -0.815289       -22.1851 
 100   2.0000      -0.787650       -21.4331 
 101   2.0000      -0.775057       -21.0904 
 102   2.0000      -0.771542       -20.9947 
 103   2.0000      -0.769156       -20.9298 
 104   2.0000      -0.767682       -20.8897 
 105   2.0000      -0.747923       -20.3520 
 106   2.0000      -0.737702       -20.0739 
 107   2.0000      -0.729355       -19.8468 
 108   2.0000      -0.724196       -19.7064 
 109   2.0000      -0.720518       -19.6063 
 110   2.0000      -0.716152       -19.4875 
 111   2.0000      -0.711305       -19.3556 
 112   2.0000      -0.701290       -19.0831 
 113   2.0000      -0.693128       -18.8610 
 114   2.0000      -0.690870       -18.7995 
 115   2.0000      -0.686308       -18.6754 
 116   2.0000      -0.663878       -18.0650 
 117   2.0000      -0.663205       -18.0467 
 118   2.0000      -0.660717       -17.9790 
 119   2.0000      -0.658092       -17.9076 
 120   2.0000      -0.651710       -17.7339 
 121   2.0000      -0.649647       -17.6778 
 122   2.0000      -0.647437       -17.6177 
 123   2.0000      -0.643198       -17.5023 
 124   2.0000      -0.638108       -17.3638 
 125   2.0000      -0.621800       -16.9200 
 126   2.0000      -0.620055       -16.8726 
 127   2.0000      -0.615921       -16.7601 
 128   2.0000      -0.609305       -16.5800 
 129   2.0000      -0.602568       -16.3967 
 130   2.0000      -0.594262       -16.1707 
 131   2.0000      -0.590271       -16.0621 
 132   2.0000      -0.589336       -16.0367 
 133   2.0000      -0.587125       -15.9765 
 134   2.0000      -0.586063       -15.9476 
 135   2.0000      -0.581860       -15.8332 
 136   2.0000      -0.579604       -15.7718 
 137   2.0000      -0.577141       -15.7048 
 138   2.0000      -0.573019       -15.5926 
 139   2.0000      -0.565374       -15.3846 
 140   2.0000      -0.560048       -15.2397 
 141   2.0000      -0.555523       -15.1165 
 142   2.0000      -0.554947       -15.1009 
 143   2.0000      -0.551730       -15.0133 
 144   2.0000      -0.547656       -14.9025 
 145   2.0000      -0.547617       -14.9014 
 146   2.0000      -0.545418       -14.8416 
 147   2.0000      -0.543333       -14.7848 
 148   2.0000      -0.540373       -14.7043 
 149   2.0000      -0.538551       -14.6547 
 150   2.0000      -0.538034       -14.6406 
 151   2.0000      -0.536996       -14.6124 
 152   2.0000      -0.533098       -14.5063 
 153   2.0000      -0.531104       -14.4521 
 154   2.0000      -0.527450       -14.3527 
 155   2.0000      -0.525843       -14.3089 
 156   2.0000      -0.521887       -14.2013 
 157   2.0000      -0.520925       -14.1751 
 158   2.0000      -0.518760       -14.1162 
 159   2.0000      -0.515270       -14.0212 
 160   2.0000      -0.513881       -13.9834 
 161   2.0000      -0.511091       -13.9075 
 162   2.0000      -0.506271       -13.7763 
 163   2.0000      -0.505687       -13.7604 
 164   2.0000      -0.500394       -13.6164 
 165   2.0000      -0.499410       -13.5896 
 166   2.0000      -0.494270       -13.4498 
 167   2.0000      -0.491468       -13.3735 
 168   2.0000      -0.487309       -13.2603 
 169   2.0000      -0.482879       -13.1398 
 170   2.0000      -0.478704       -13.0262 
 171   2.0000      -0.477708       -12.9991 
 172   2.0000      -0.475158       -12.9297 
 173   2.0000      -0.473341       -12.8803 
 174   2.0000      -0.470395       -12.8001 
 175   2.0000      -0.469914       -12.7870 
 176   2.0000      -0.466656       -12.6984 
 177   2.0000      -0.463774       -12.6199 
 178   2.0000      -0.462803       -12.5935 
 179   2.0000      -0.459167       -12.4946 
 180   2.0000      -0.458275       -12.4703 
 181   2.0000      -0.455645       -12.3987 
 182   2.0000      -0.453641       -12.3442 
 183   2.0000      -0.453241       -12.3333 
 184   2.0000      -0.452087       -12.3019 
 185   2.0000      -0.449741       -12.2381 
 186   2.0000      -0.447329       -12.1724 
 187   2.0000      -0.447090       -12.1659 
 188   2.0000      -0.444804       -12.1037 
 189   2.0000      -0.442346       -12.0368 
 190   2.0000      -0.434943       -11.8354 
 191   2.0000      -0.433826       -11.8050 
 192   2.0000      -0.433596       -11.7987 
 193   2.0000      -0.432856       -11.7786 
 194   2.0000      -0.429763       -11.6944 
 195   2.0000      -0.428975       -11.6730 
 196   2.0000      -0.426945       -11.6178 
 197   2.0000      -0.425199       -11.5703 
 198   2.0000      -0.413129       -11.2418 
 199   2.0000      -0.411466       -11.1966 
 200   2.0000      -0.410267       -11.1639 
 201   2.0000      -0.396081       -10.7779 
 202   2.0000      -0.389359       -10.5950 
 203   2.0000      -0.385834       -10.4991 
 204   2.0000      -0.373434       -10.1617 
 205   2.0000      -0.363010        -9.8780 
 206   2.0000      -0.358408        -9.7528 
 207   2.0000      -0.344023        -9.3613 
 208   2.0000      -0.342518        -9.3204 
 209   2.0000      -0.336856        -9.1663 
 210   2.0000      -0.326755        -8.8914 
 211   2.0000      -0.323507        -8.8031 
 212   2.0000      -0.323258        -8.7963 
 213   2.0000      -0.316927        -8.6240 
 214   2.0000      -0.312089        -8.4924 
 215   2.0000      -0.304364        -8.2822 
 216   2.0000      -0.300313        -8.1719 
 217   2.0000      -0.248384        -6.7589 
 218   0.0000      -0.123524        -3.3613 
 219   0.0000      -0.097386        -2.6500 
 220   0.0000      -0.072179        -1.9641 
 221   0.0000      -0.062890        -1.7113 
 222   0.0000      -0.054549        -1.4844 
 223   0.0000      -0.035733        -0.9723 
 224   0.0000      -0.018692        -0.5086 
 225   0.0000       0.004602         0.1252 
 226   0.0000       0.025523         0.6945 
 227   0.0000       0.030925         0.8415 
 228   0.0000       0.035255         0.9593 
 229   0.0000       0.035526         0.9667 
 230   0.0000       0.036493         0.9930 
 231   0.0000       0.038696         1.0530 
 232   0.0000       0.052586         1.4309 
 233   0.0000       0.073965         2.0127 
 234   0.0000       0.081449         2.2163 
 235   0.0000       0.085158         2.3173 
 236   0.0000       0.087702         2.3865 
 237   0.0000       0.089731         2.4417 
 238   0.0000       0.091749         2.4966 
 239   0.0000       0.093954         2.5566 
 240   0.0000       0.095879         2.6090 
 241   0.0000       0.101336         2.7575 
 242   0.0000       0.105149         2.8613 
 243   0.0000       0.107782         2.9329 
 244   0.0000       0.111725         3.0402 
 245   0.0000       0.118840         3.2338 
 246   0.0000       0.120415         3.2767 
 247   0.0000       0.124417         3.3856 
 248   0.0000       0.130201         3.5429 
 249   0.0000       0.131423         3.5762 
 250   0.0000       0.138581         3.7710 
 251   0.0000       0.140007         3.8098 
 252   0.0000       0.146633         3.9901 
 253   0.0000       0.148389         4.0379 
 254   0.0000       0.151365         4.1188 
 255   0.0000       0.153446         4.1755 
 256   0.0000       0.155605         4.2342 
 257   0.0000       0.155950         4.2436 
 258   0.0000       0.158625         4.3164 
 259   0.0000       0.161721         4.4006 
 260   0.0000       0.165179         4.4947 
 261   0.0000       0.166691         4.5359 
 262   0.0000       0.166978         4.5437 
 263   0.0000       0.168429         4.5832 
 264   0.0000       0.173302         4.7158 
 265   0.0000       0.174524         4.7490 
 266   0.0000       0.180160         4.9024 
 267   0.0000       0.189215         5.1488 
 268   0.0000       0.192096         5.2272 
 269   0.0000       0.195062         5.3079 
 270   0.0000       0.197441         5.3727 
 271   0.0000       0.200051         5.4437 
 272   0.0000       0.204142         5.5550 
 273   0.0000       0.207892         5.6570 
 274   0.0000       0.208927         5.6852 
 275   0.0000       0.214153         5.8274 
 276   0.0000       0.215818         5.8727 
 277   0.0000       0.218414         5.9434 
 278   0.0000       0.220872         6.0102 
 279   0.0000       0.224862         6.1188 
 280   0.0000       0.227488         6.1903 
 281   0.0000       0.231075         6.2879 
 282   0.0000       0.232321         6.3218 
 283   0.0000       0.235977         6.4213 
 284   0.0000       0.239707         6.5228 
 285   0.0000       0.241801         6.5797 
 286   0.0000       0.242634         6.6024 
 287   0.0000       0.245399         6.6776 
 288   0.0000       0.250741         6.8230 
 289   0.0000       0.255736         6.9589 
 290   0.0000       0.258122         7.0239 
 291   0.0000       0.261025         7.1029 
 292   0.0000       0.263234         7.1630 
 293   0.0000       0.264415         7.1951 
 294   0.0000       0.273722         7.4484 
 295   0.0000       0.283106         7.7037 
 296   0.0000       0.286975         7.8090 
 297   0.0000       0.290755         7.9118 
 298   0.0000       0.292309         7.9541 
 299   0.0000       0.297341         8.0911 
 300   0.0000       0.299616         8.1530 
 301   0.0000       0.301762         8.2114 
 302   0.0000       0.305214         8.3053 
 303   0.0000       0.310360         8.4453 
 304   0.0000       0.313048         8.5185 
 305   0.0000       0.315330         8.5806 
 306   0.0000       0.317646         8.6436 
 307   0.0000       0.320706         8.7269 
 308   0.0000       0.326448         8.8831 
 309   0.0000       0.329321         8.9613 
 310   0.0000       0.330822         9.0021 
 311   0.0000       0.332581         9.0500 
 312   0.0000       0.336546         9.1579 
 313   0.0000       0.337003         9.1703 
 314   0.0000       0.340984         9.2786 
 315   0.0000       0.344849         9.3838 
 316   0.0000       0.348284         9.4773 
 317   0.0000       0.351472         9.5640 
 318   0.0000       0.353754         9.6261 
 319   0.0000       0.356006         9.6874 
 320   0.0000       0.357345         9.7238 
 321   0.0000       0.366444         9.9714 
 322   0.0000       0.369956        10.0670 
 323   0.0000       0.373506        10.1636 
 324   0.0000       0.375369        10.2143 
 325   0.0000       0.378416        10.2972 
 326   0.0000       0.383343        10.4313 
 327   0.0000       0.384127        10.4526 
 328   0.0000       0.388719        10.5776 
 329   0.0000       0.390497        10.6260 
 330   0.0000       0.395403        10.7595 
 331   0.0000       0.400039        10.8856 
 332   0.0000       0.402763        10.9597 
 333   0.0000       0.405144        11.0245 
 334   0.0000       0.407741        11.0952 
 335   0.0000       0.410120        11.1599 
 336   0.0000       0.416477        11.3329 
 337   0.0000       0.417743        11.3674 
 338   0.0000       0.423194        11.5157 
 339   0.0000       0.428340        11.6557 
 340   0.0000       0.431227        11.7343 
 341   0.0000       0.434845        11.8327 
 342   0.0000       0.441572        12.0158 
 343   0.0000       0.448246        12.1974 
 344   0.0000       0.450320        12.2538 
 345   0.0000       0.451880        12.2963 
 346   0.0000       0.456290        12.4163 
 347   0.0000       0.461687        12.5631 
 348   0.0000       0.462339        12.5809 
 349   0.0000       0.464364        12.6360 
 350   0.0000       0.467453        12.7200 
 351   0.0000       0.469009        12.7624 
 352   0.0000       0.470410        12.8005 
 353   0.0000       0.474359        12.9080 
 354   0.0000       0.475567        12.9408 
 355   0.0000       0.477508        12.9937 
 356   0.0000       0.479979        13.0609 
 357   0.0000       0.481611        13.1053 
 358   0.0000       0.483577        13.1588 
[...]
  10      3.62     342.6    88 ->  93      gap,J,K:    5.275     1.924     0.134
  11      3.67     337.6    84 ->  89      gap,J,K:    5.263     1.875     0.142
  12      3.87     320.3    83 ->  89      gap,J,K:    5.435     1.921     0.179
  13      3.98     311.2    77 ->  89      gap,J,K:    6.392     2.413     0.003
  14      4.02     308.1    82 ->  89      gap,J,K:    5.442     1.523     0.052
  15      4.08     303.7    86 ->  90      gap,J,K:    5.632     2.037     0.243
  16      4.15     298.9    78 ->  89      gap,J,K:    6.000     1.916     0.032
  17      4.20     295.3    85 ->  90      gap,J,K:    5.842     2.020     0.188
  18      4.22     293.7    87 ->  90      gap,J,K:    5.522     1.578     0.139
  19      4.25     292.0    88 ->  94      gap,J,K:    5.787     1.833     0.146
  20      4.40     282.0    81 ->  90      gap,J,K:    6.241     1.959     0.057
  21      4.53     273.7    82 ->  90      gap,J,K:    6.153     1.869     0.123
  22      4.58     270.9    84 ->  90      gap,J,K:    5.974     1.619     0.111
  23      4.63     267.7    86 ->  91      gap,J,K:    6.318     2.039     0.176
  24      4.63     267.5    78 ->  90      gap,J,K:    6.711     2.170     0.046

average / max PT2 energy lowering (eV):       0.032       0.061

CSF included by PT:                   197 
total number of CSF included:         231 
 
sTD-DFT procedure...
setting up A+B and A-B matrices...  done
estimated time (min):    0.001
calculating (A-B)^0.5 ... done
calculating (A+B)*(A-B)^0.5 ... done
calculating (A-B)^0.5 *(A+B)*(A-B)^0.5 ... done
diagonalizing ...using LAPACKE_ssyevr ...done

   40 roots found, lowest/highest eigenvalue :     1.476     4.970

excitation energies, transition moments and amplitudes

molecular weight:  850.788
state   eV        nm        fL         fV        Rl        RV
   0   1.476     839.8   0.881097   1.451144  95.442459  164.608970     0.98 (  88->  89)    0.00 (  85->  90)    0.00 (  86->  90)
   1   2.296     540.1   0.095473   0.111822   6.406055  19.820023     0.95 (  88->  90)    0.01 (  88->  94)    0.01 (  88->  92)
   2   2.989     414.7   0.019341   0.014693  19.306770  13.500989     0.53 (  88->  91)    0.26 (  87->  89)    0.04 (  81->  89)
   3   3.031     409.1   0.046918   0.047843  -14.537017  -14.706014     0.33 (  81->  89)    0.21 (  87->  89)    0.13 (  80->  89)
   4   3.050     406.5   0.227055   0.219301  97.040554  94.087137     0.39 (  81->  89)    0.26 (  86->  89)    0.10 (  85->  89)
   5   3.085     401.9   0.073944   0.073156  22.531704  26.408934     0.30 (  86->  89)    0.22 (  88->  91)    0.20 (  87->  89)
   6   3.095     400.6   0.014933   0.015926  25.531822  28.434811     0.56 (  80->  89)    0.13 (  87->  89)    0.13 (  80->  90)
   7   3.221     384.9   0.004914   0.005191   4.191425   2.188226     0.56 (  88->  92)    0.09 (  85->  89)    0.07 (  88->  93)
   8   3.240     382.6   0.016203   0.015825   2.444421   6.888811     0.70 (  79->  89)    0.04 (  84->  89)    0.04 (  79->  91)
   9   3.306     375.0   0.320634   0.303935   9.047874  27.969089     0.27 (  85->  89)    0.13 (  84->  89)    0.09 (  85->  90)
  10   3.344     370.7   0.050396   0.052392  -38.145165  -34.698142     0.55 (  84->  89)    0.15 (  85->  89)    0.11 (  84->  90)
  11   3.457     358.6   0.044344   0.041513  -72.033735  -64.406161     0.52 (  88->  93)    0.17 (  88->  92)    0.06 (  78->  89)
  12   3.473     357.0   0.000576   0.000660   0.376346   1.311611     0.24 (  78->  89)    0.19 (  82->  89)    0.13 (  78->  90)
  13   3.551     349.2   0.699323   0.652163  -21.430199  -14.109579     0.63 (  83->  89)    0.11 (  88->  93)    0.06 (  83->  90)
  14   3.613     343.1   0.033579   0.029521   5.722730   5.702618     0.23 (  82->  89)    0.18 (  78->  89)    0.16 (  82->  90)
  15   3.697     335.4   0.044023   0.040851  -79.120053  -75.675184     0.73 (  77->  89)    0.05 (  77->  91)    0.04 (  79->  90)
  16   3.848     322.2   0.060913   0.057407  -73.725943  -66.934087     0.41 (  86->  90)    0.21 (  85->  90)    0.09 (  86->  91)
  17   4.010     309.2   0.166777   0.154662  222.741238  212.645758     0.48 (  88->  94)    0.10 (  87->  90)    0.08 (  87->  91)
  18   4.084     303.6   0.146651   0.128334  -858.661802  -805.081412     0.16 (  88->  94)    0.11 (  80->  92)    0.10 (  80->  93)
  19   4.101     302.3   0.476615   0.438249  360.343857  359.128302     0.15 (  82->  89)    0.14 (  86->  92)    0.11 (  86->  91)
  20   4.122     300.8   0.224831   0.197388  200.320613  177.014769     0.18 (  80->  92)    0.18 (  80->  93)    0.11 (  87->  90)
  21   4.185     296.2   0.049932   0.045635  27.513245  21.654445     0.19 (  85->  90)    0.15 (  86->  90)    0.11 (  85->  89)
  22   4.240     292.4   0.030274   0.030900  40.857299  42.900037     0.27 (  78->  91)    0.24 (  78->  92)    0.08 (  78->  90)
  23   4.245     292.1   0.041838   0.035942  -25.354114  -15.600456     0.41 (  81->  90)    0.13 (  87->  90)    0.08 (  87->  93)
  24   4.254     291.5   0.019496   0.017848  22.218272  21.176994     0.40 (  81->  90)    0.21 (  87->  90)    0.05 (  87->  93)
  25   4.383     282.9   0.279379   0.249720  47.753427  26.233039     0.19 (  86->  91)    0.15 (  85->  91)    0.14 (  85->  92)
  26   4.475     277.0   0.074641   0.065882  43.853982  29.659182     0.23 (  83->  90)    0.20 (  84->  90)    0.05 (  83->  91)
  27   4.506     275.1   0.054658   0.045993  -232.952198  -225.191355     0.19 (  76->  89)    0.12 (  85->  92)    0.06 (  85->  90)
  28   4.553     272.3   0.153387   0.131263  -363.152047  -332.876227     0.55 (  88->  95)    0.04 (  76->  89)    0.03 (  88->  94)
  29   4.578     270.8   0.012398   0.010402  -109.949346  -101.576601     0.69 (  79->  90)    0.06 (  77->  89)    0.04 (  80->  90)
  30   4.597     269.7   0.507577   0.438711  1052.503309  1001.301477     0.15 (  82->  90)    0.09 (  83->  90)    0.08 (  84->  91)
  31   4.648     266.8   0.138811   0.112750  -362.679918  -338.248378     0.18 (  88->  95)    0.12 (  83->  90)    0.10 (  82->  90)
  32   4.706     263.4   0.021346   0.018372  -42.996258  -39.379097     0.37 (  80->  90)    0.16 (  80->  89)    0.13 (  80->  91)
  33   4.719     262.8   0.003315   0.002956  -18.453769  -15.719571     0.32 (  78->  90)    0.25 (  78->  89)    0.07 (  78->  91)
  34   4.788     258.9   0.101611   0.086474  62.099157  63.698371     0.18 (  84->  90)    0.07 (  83->  91)    0.07 (  83->  92)
  35   4.806     258.0   0.033912   0.027608  -14.959438  -8.881051     0.14 (  86->  93)    0.09 (  88->  96)    0.08 (  86->  92)
  36   4.910     252.5   0.047376   0.038424  -21.007162  -17.383941     0.24 (  81->  91)    0.12 (  75->  89)    0.06 (  83->  91)
  37   4.932     251.4   0.115682   0.095562  44.315579  38.615683     0.12 (  82->  91)    0.10 (  81->  91)    0.10 (  82->  92)
  38   4.967     249.6   0.186645   0.154375  -4.897585  -0.623882     0.21 (  81->  91)    0.12 (  83->  93)    0.12 (  83->  92)
  39   4.970     249.5   0.143927   0.112410  36.143050  11.661380     0.26 (  87->  91)    0.20 (  87->  93)    0.11 (  87->  94)

-----------------------------------------------------------------------------
         ABSORPTION SPECTRUM VIA TRANSITION ELECTRIC DIPOLE MOMENTS
-----------------------------------------------------------------------------
State   Energy  Wavelength   fosc         T2         TX        TY        TZ  
        (cm-1)    (nm)                  (au**2)     (au)      (au)      (au) 
-----------------------------------------------------------------------------
   0   11907.3    839.8   0.881096542  24.36039   1.01152   4.82517  -0.23453
   1   18514.7    540.1   0.095473330   1.69763  -0.54793   0.06845   1.18013
   2   24111.6    414.7   0.019340651   0.26407   0.11234  -0.48896  -0.11120
   3   24443.8    409.1   0.046917973   0.63190  -0.25372  -0.71907   0.22462
   4   24598.2    406.5   0.227055093   3.03881   0.34409   1.68105  -0.30739
   5   24879.5    401.9   0.073944267   0.97845   0.41523   0.79422  -0.41863
   6   24964.2    400.6   0.014932925   0.19693   0.14187   0.41187  -0.08461
   7   25981.7    384.9   0.004914138   0.06227   0.00027  -0.23274  -0.08998
   8   26135.1    382.6   0.016203327   0.20411   0.12753  -0.42432   0.08828
   9   26665.2    375.0   0.320634497   3.95859   0.18658   1.74450  -0.93835
  10   26973.8    370.7   0.050396166   0.61508  -0.02012  -0.44534  -0.64525
  11   27883.1    358.6   0.044343677   0.52356   0.31581  -0.31692   0.56867
  12   28011.8    357.0   0.000575668   0.00677   0.01705  -0.07992  -0.00933
  13   28640.8    349.2   0.699322643   8.03836   1.20930  -1.69757  -1.92203
  14   29144.6    343.1   0.033579026   0.37930  -0.09897  -0.23919   0.55883
  15   29816.3    335.4   0.044022603   0.48607  -0.38568   0.19241   0.54800
  16   31038.4    322.2   0.060912630   0.64608  -0.76338   0.09584  -0.23267
  17   32346.1    309.2   0.166777222   1.69743  -0.56256   0.02161   1.17494
  18   32938.7    303.6   0.146650946   1.46573   0.90137  -0.78459  -0.19414
  19   33074.4    302.3   0.476615428   4.74408   0.13474   0.62313  -2.08270
  20   33248.0    300.8   0.224830571   2.22621   0.70741  -0.29573  -1.27997
  21   33755.8    296.2   0.049932458   0.48698   0.36665  -0.02799  -0.59310
  22   34194.7    292.4   0.030273575   0.29146   0.09024   0.50817  -0.15838
  23   34235.0    292.1   0.041837769   0.40232   0.40159  -0.13280  -0.47266
  24   34309.9    291.5   0.019496486   0.18707  -0.05405  -0.24839  -0.34994
  25   35353.0    282.9   0.279378710   2.60161   0.14818   0.34089  -1.56954
  26   36096.6    277.0   0.074640657   0.68075  -0.12537  -0.46182   0.67212
  27   36346.3    275.1   0.054658375   0.49508   0.26860   0.25443   0.59849
  28   36719.9    272.3   0.153386745   1.37519   0.79701  -0.71759  -0.47437
  29   36921.4    270.8   0.012397884   0.11055   0.32973   0.03964  -0.01590
  30   37077.0    269.7   0.507576585   4.50684  -0.61811  -0.35658   1.99941
  31   37487.0    266.8   0.138810598   1.21904   0.57915   0.61800   0.70831
  32   37959.7    263.4   0.021345586   0.18512   0.31201   0.00620  -0.29620
  33   38058.6    262.8   0.003314859   0.02867   0.14845  -0.05309   0.06178
  34   38621.7    258.9   0.101611010   0.86613  -0.42981  -0.07269   0.82226
  35   38759.6    258.0   0.033912295   0.28804   0.06763  -0.17547  -0.50267
  36   39598.2    252.5   0.047375592   0.39387   0.24995  -0.36162  -0.44792
  37   39781.4    251.4   0.115681626   0.95733   0.17131   0.95134  -0.15141
  38   40060.5    249.6   0.186644758   1.53382   0.40296  -0.96380  -0.66523
  39   40083.5    249.5   0.143926571   1.18209  -0.10563   1.07705   0.10444

-----------------------------------------------------------------------------
         ABSORPTION SPECTRUM VIA TRANSITION VELOCITY DIPOLE MOMENTS
-----------------------------------------------------------------------------
State   Energy  Wavelength   fosc         P2         PX        PY        PZ  
        (cm-1)    (nm)                  (au**2)     (au)      (au)      (au) 
-----------------------------------------------------------------------------
   0   11907.3    839.8   1.451144358   0.11810   0.07665   0.33449  -0.01840
   1   18514.7    540.1   0.111821687   0.01415  -0.04946   0.01167   0.10755
   2   24111.6    414.7   0.014693468   0.00242   0.01440  -0.04502  -0.01369
   3   24443.8    409.1   0.047843157   0.00799  -0.02840  -0.08075   0.02580
   4   24598.2    406.5   0.219301115   0.03687   0.03736   0.18532  -0.03361
   5   24879.5    401.9   0.073156463   0.01244   0.04834   0.08752  -0.04943
   6   24964.2    400.6   0.015926450   0.00272   0.01869   0.04691  -0.01295
   7   25981.7    384.9   0.005191388   0.00092   0.00060  -0.02729  -0.01330
   8   26135.1    382.6   0.015824868   0.00283   0.01729  -0.04857   0.01297
   9   26665.2    375.0   0.303934770   0.05539   0.02317   0.20496  -0.11334
  10   26973.8    370.7   0.052392166   0.00966  -0.00242  -0.05697  -0.08004
  11   27883.1    358.6   0.041512976   0.00791   0.04017  -0.03434   0.07154
  12   28011.8    357.0   0.000660251   0.00013   0.00050  -0.01055  -0.00386
  13   28640.8    349.2   0.652162974   0.12766   0.15264  -0.21441  -0.24164
  14   29144.6    343.1   0.029520832   0.00588  -0.01249  -0.02986   0.06952
  15   29816.3    335.4   0.040851162   0.00832  -0.05023   0.02598   0.07160
  16   31038.4    322.2   0.057406589   0.01218  -0.10579   0.00591  -0.03086
  17   32346.1    309.2   0.154661539   0.03419  -0.07877   0.00328   0.16726
  18   32938.7    303.6   0.128333605   0.02889   0.12865  -0.10797  -0.02609
  19   33074.4    302.3   0.438248831   0.09906   0.02011   0.08916  -0.30118
  20   33248.0    300.8   0.197387954   0.04485   0.10259  -0.03719  -0.18151
  21   33755.8    296.2   0.045635085   0.01053   0.05296  -0.00318  -0.08783
  22   34194.7    292.4   0.030900245   0.00722   0.01604   0.07996  -0.02389
  23   34235.0    292.1   0.035941560   0.00841   0.05778  -0.02535  -0.06655
  24   34309.9    291.5   0.017848233   0.00419  -0.00995  -0.03962  -0.05017
  25   35353.0    282.9   0.249719668   0.06034   0.02164   0.05429  -0.23858
  26   36096.6    277.0   0.065881703   0.01625  -0.01828  -0.07426   0.10200
  27   36346.3    275.1   0.045992729   0.01143   0.04136   0.03615   0.09169
  28   36719.9    272.3   0.131262792   0.03294   0.12475  -0.11028  -0.07222
  29   36921.4    270.8   0.010402115   0.00262   0.05098   0.00479  -0.00170
  30   37077.0    269.7   0.438710688   0.11117  -0.09915  -0.05363   0.31379
  31   37487.0    266.8   0.112750152   0.02889   0.08869   0.09064   0.11317
  32   37959.7    263.4   0.018371799   0.00477   0.04918  -0.00045  -0.04845
  33   38058.6    262.8   0.002956223   0.00077   0.02448  -0.00719   0.01085
  34   38621.7    258.9   0.086474097   0.02283  -0.06967  -0.00837   0.13380
  35   38759.6    258.0   0.027607646   0.00731   0.01016  -0.03116  -0.07899
  36   39598.2    252.5   0.038423772   0.01040   0.03887  -0.06137  -0.07157
  37   39781.4    251.4   0.095562230   0.02598   0.02711   0.15715  -0.02344
  38   40060.5    249.6   0.154375490   0.04227   0.06533  -0.16169  -0.10889
  39   40083.5    249.5   0.112410047   0.03079  -0.02194   0.17234   0.02474

-------------------------------------------------------------------
                             CD SPECTRUM
-------------------------------------------------------------------
State   Energy Wavelength       R         MX        MY        MZ   
        (cm-1)   (nm)       (1e40*cgs)   (au)      (au)      (au)  
-------------------------------------------------------------------
   0   11907.3    839.8     95.44246  -0.77418   0.18641   2.22255
   1   18514.7    540.1      6.40605   1.87153  -1.01396   0.90473
   2   24111.6    414.7     19.30677   0.27712   0.23930  -0.03574
   3   24443.8    409.1    -14.53702   0.44158  -0.25079  -0.02952
   4   24598.2    406.5     97.04055  -0.41106   0.10717   1.46520
   5   24879.5    401.9     22.53170  -1.50539   0.39250  -0.52019
   6   24964.2    400.6     25.53182  -0.14684  -0.14954   0.30599
   7   25981.7    384.9      4.19142  -0.78063   0.27598  -0.51858
   8   26135.1    382.6      2.44442   0.10564  -0.13087  -0.89914
   9   26665.2    375.0      9.04787  -2.47873   1.42489   2.19707
  10   26973.8    370.7    -38.14516  -2.32426   1.04705  -0.90097
  11   27883.1    358.6    -72.03374   1.97277  -0.83078  -1.02120
  12   28011.8    357.0      0.37635   0.31813   0.09036  -0.02161
  13   28640.8    349.2    -21.43020  -2.26715   2.28105  -3.48841
  14   29144.6    343.1      5.72273   1.74918  -1.17624  -0.23711
  15   29816.3    335.4    -79.12005   0.75153  -0.43163   1.29298
  16   31038.4    322.2    -73.72594  -1.13814   0.95562   2.78354
  17   32346.1    309.2    222.74124   1.42498  -1.52109  -0.09398
  18   32938.7    303.6    -858.66180   2.73444  -0.97744  -2.11739
  19   33074.4    302.3    360.34386  -7.07459   4.31845   1.56833
  20   33248.0    300.8    200.32061  -1.66064   2.21551  -0.76574
  21   33755.8    296.2     27.51325  -1.65513   0.98399  -0.87282
  22   34194.7    292.4     40.85730  -0.77949  -0.09617   0.34168
  23   34235.0    292.1    -25.35411  -0.80212   0.57470  -1.07054
  24   34309.9    291.5     22.21827  -0.78014   0.56130  -0.00856
  25   35353.0    282.9     47.75343  -5.92711   3.07832   0.23807
  26   36096.6    277.0     43.85398   2.33098  -1.39410  -0.79992
  27   36346.3    275.1    -232.95220   4.84056  -2.04634   0.34872
  28   36719.9    272.3    -363.15205   0.60488   0.33996  -2.74562
  29   36921.4    270.8    -109.94935   1.45188  -0.38398  -0.18421
  30   37077.0    269.7    1052.50331   3.61759  -3.90584  -1.81139
  31   37487.0    266.8    -362.67992   5.95184  -2.73086  -0.31166
  32   37959.7    263.4    -42.99626   0.42580   0.10436  -0.16510
  33   38058.6    262.8    -18.45377   0.66433  -0.52942  -0.78405
  34   38621.7    258.9     62.09916   1.38815  -1.46546   0.27568
  35   38759.6    258.0    -14.95944  -2.59169   1.26127  -0.91523
  36   39598.2    252.5    -21.00716  -1.30405   0.64898  -1.45059
  37   39781.4    251.4     44.31558   0.54199  -0.09187   1.27763
  38   40060.5    249.6     -4.89759  -1.62021   1.00102  -2.46296
  39   40083.5    249.5     36.14305   1.70776  -0.26611   3.00338

sTD-DFT done

Total run time:        2.199 sec

           *** ORCA-CIS/TD-DFT FINISHED WITHOUT ERROR ***

-------------------------   --------------------
FINAL SINGLE POINT ENERGY     -2946.049019129585
-------------------------   --------------------


                            ***************************************
                            *     ORCA property calculations      *
                            ***************************************

                                    ---------------------
                                    Active property flags
                                    ---------------------
   (+) Dipole Moment


------------------------------------------------------------------------------
                       ORCA ELECTRIC PROPERTIES CALCULATION
------------------------------------------------------------------------------

Dipole Moment Calculation                       ... on
Quadrupole Moment Calculation                   ... off
Polarizability Calculation                      ... off
GBWName                                         ... xtbopt.gbw
Electron density file                           ... xtbopt.scfp
The origin for moment calculation is the CENTER OF MASS  = (-14.109844, -15.988374  6.399958)

-------------
DIPOLE MOMENT
-------------
                                X             Y             Z
Electronic contribution:    -22.99930       4.61673      48.94083
Nuclear contribution   :     23.41127      -6.09217     -47.92797
                        -----------------------------------------
Total Dipole Moment    :      0.41197      -1.47545       1.01286
                        -----------------------------------------
Magnitude (a.u.)       :      1.83645
Magnitude (Debye)      :      4.66789



--------------------
Rotational spectrum 
--------------------
 
Rotational constants in cm-1:     0.001548     0.000378     0.000318 
Rotational constants in MHz :    46.405840    11.345774     9.538002 

 Dipole components along the rotational axes: 
x,y,z [a.u.] :     1.493833    -0.602536     0.882023 
x,y,z [Debye]:     3.797021    -1.531525     2.241924 

 

Timings for individual modules:

Sum of individual times         ...      436.203 sec (=   7.270 min)
GTO integral calculation        ...        2.360 sec (=   0.039 min)   0.5 %
SCF iterations                  ...      430.979 sec (=   7.183 min)  98.8 %
CIS module                      ...        2.864 sec (=   0.048 min)   0.7 %
                             ****ORCA TERMINATED NORMALLY****
TOTAL RUN TIME: 0 days 0 hours 7 minutes 17 seconds 75 msec
