
                                 *****************
                                 * O   R   C   A *
                                 *****************

           --- An Ab Initio, DFT and Semiempirical electronic structure package ---

                  #######################################################
                  #                        -***-                        #
                  #          Department of theory and spectroscopy      #
                  #               Directorship: Frank Neese             #
                  #        Max Planck Institute fuer Kohlenforschung    #
                  #                Kaiser Wilhelm Platz 1               #
                  #                 D-45470 Muelheim/Ruhr               #
                  #                      Germany                        #
                  #                                                     #
                  #                  All rights reserved                #
                  #                        -***-                        #
                  #######################################################


                         Program Version 4.2.0 -  RELEASE  -


 With contributions from (in alphabetic order):
   Daniel Aravena         : Magnetic Suceptibility
   Michael Atanasov       : Ab Initio Ligand Field Theory (pilot matlab implementation)
   Alexander A. Auer      : GIAO ZORA, VPT2
   Ute Becker             : Parallelization
   Giovanni Bistoni       : ED, misc. LED, open-shell LED, HFLED
   Martin Brehm           : Molecular dynamics
   Dmytro Bykov           : SCF Hessian
   Vijay G. Chilkuri      : MRCI spin determinant printing, contributions to CSF-ICE
   Dipayan Datta          : RHF DLPNO-CCSD density
   Achintya Kumar Dutta   : EOM-CC, STEOM-CC
   Dmitry Ganyushin       : Spin-Orbit,Spin-Spin,Magnetic field MRCI
   Miquel Garcia          : C-PCM Hessian, Gaussian charge scheme
   Yang Guo               : DLPNO-NEVPT2, CIM, IAO-localization
   Andreas Hansen         : Spin unrestricted coupled pair/coupled cluster methods
   Benjamin Helmich-Paris : CASSCF linear response (MC-RPA)
   Lee Huntington         : MR-EOM, pCC
   Robert Izsak           : Overlap fitted RIJCOSX, COSX-SCS-MP3, EOM
   Christian Kollmar      : KDIIS, OOCD, Brueckner-CCSD(T), CCSD density
   Simone Kossmann        : Meta GGA functionals, TD-DFT gradient, OOMP2, MP2 Hessian
   Martin Krupicka        : AUTO-CI
   Lucas Lang             : DCDCAS
   Dagmar Lenk            : GEPOL surface, SMD
   Dimitrios Liakos       : Extrapolation schemes; Compound Job, initial MDCI parallelization
   Dimitrios Manganas     : Further ROCIS development; embedding schemes
   Dimitrios Pantazis     : SARC Basis sets
   Taras Petrenko         : DFT Hessian,TD-DFT gradient, ASA, ECA, R-Raman, ABS, FL, XAS/XES, NRVS
   Peter Pinski           : DLPNO-MP2, DLPNO-MP2 Gradient
   Christoph Reimann      : Effective Core Potentials
   Marius Retegan         : Local ZFS, SOC
   Christoph Riplinger    : Optimizer, TS searches, QM/MM, DLPNO-CCSD(T), (RO)-DLPNO pert. Triples
   Tobias Risthaus        : Range-separated hybrids, TD-DFT gradient, RPA, STAB
   Michael Roemelt        : Original ROCIS implementation
   Masaaki Saitow         : Open-shell DLPNO-CCSD energy and density
   Barbara Sandhoefer     : DKH picture change effects
   Avijit Sen             : IP-ROCIS
   Kantharuban Sivalingam : CASSCF convergence, NEVPT2, FIC-MRCI
   Bernardo de Souza      : ESD, SOC TD-DFT
   Georgi Stoychev        : AutoAux, RI-MP2 NMR
   Willem Van den Heuvel  : Paramagnetic NMR
   Boris Wezisla          : Elementary symmetry handling
   Frank Wennmohs         : Technical directorship


 We gratefully acknowledge several colleagues who have allowed us to
 interface, adapt or use parts of their codes:
   Stefan Grimme, W. Hujo, H. Kruse,             : VdW corrections, initial TS optimization,
                  C. Bannwarth                     DFT functionals, gCP, sTDA/sTD-DF
   Ed Valeev, F. Pavosevic, A. Kumar             : LibInt (2-el integral package), F12 methods
   Garnet Chan, S. Sharma, J. Yang, R. Olivares  : DMRG
   Ulf Ekstrom                                   : XCFun DFT Library
   Mihaly Kallay                                 : mrcc  (arbitrary order and MRCC methods)
   Andreas Klamt, Michael Diedenhofen            : otool_cosmo (COSMO solvation model)
   Jiri Pittner, Ondrej Demel                    : Mk-CCSD
   Frank Weinhold                                : gennbo (NPA and NBO analysis)
   Christopher J. Cramer and Donald G. Truhlar   : smd solvation model
   Lars Goerigk                                  : TD-DFT with DH, B97 family of functionals
   V. Asgeirsson, H. Jonsson                     : NEB implementation
   FAccTs GmbH                                   : IRC, NEB, NEB-TS, Multilevel, MM, QM/MM, CI optimization
   S Lehtola, MJT Oliveira, MAL Marques          : LibXC Library


 Your calculation uses the libint2 library for the computation of 2-el integrals
 For citations please refer to: http://libint.valeyev.net

 Your ORCA version has been built with support for libXC version: 4.2.3
 For citations please refer to: https://tddft.org/programs/libxc/

 This ORCA versions uses:
   CBLAS   interface :  Fast vector & matrix operations
   LAPACKE interface :  Fast linear algebra routines
   SCALAPACK package :  Parallel linear algebra routines


XCFun DFT library Copyright 2009-2010 Ulf Ekstrom and contributors.
See http://admol.org/xcfun for more information. This is free soft-
ware; see the source code for copying conditions. There is ABSOLUTELY
NO WARRANTY; not even for MERCHANTABILITY or FITNESS FOR A PARTICULAR
PURPOSE. For details see the documentation. Scientific users of this 
library should cite U. Ekstrom, L. Visscher, R. Bast, A. J. Thorvald-
sen and K. Ruud; J.Chem.Theor.Comp. 2010, DOI: 10.1021/ct100117s
XCFun Version 0.99 
----- Orbital basis set information -----
Your calculation utilizes the basis: def2-SVP
   F. Weigend and R. Ahlrichs, Phys. Chem. Chem. Phys. 7, 3297 (2005).

----- AuxJ basis set information -----
Your calculation utilizes the auxiliary basis: def2/J
   F. Weigend, Phys. Chem. Chem. Phys. 8, 1057 (2006).

================================================================================
                                        WARNINGS
                       Please study these warnings very carefully!
================================================================================

INFO   : Checking CIS options ...

WARNING: CIS/ROCIS methods need fully converged wavefunctions
  ===> : Setting SCFConvForced true
         You can overwrite this default with %scf ConvForced false 


INFO   : the flag for use of LIBINT has been found!

================================================================================
                                       INPUT FILE
================================================================================
NAME = xtbopt.inp
|  1> # ORCA input file
|  2> # SCF done       -243.856484844100          0.000367304952
|  3> ! CAM-B3LYP def2-SVP def2/J RIJCOSX Grid4 TightSCF
|  4> %maxcore 5000
|  5> %tddft
|  6>     Mode sTDDFT
|  7>     Ethresh 5.0
|  8>     maxcore 5000
|  9> end
| 10> 
| 11> %pal
| 12>   nprocs 6
| 13>   end
| 14> * xyz 0 1
| 15>    C       -5.77679         0.80452         2.82786
| 16>    C       -6.71356         0.51391         3.77763
| 17>    F       -6.97376         1.39004         4.76079
| 18>    C       -7.41918        -0.70469         3.74377
| 19>    F       -8.35619        -0.94810         4.67676
| 20>    C       -7.15203        -1.63391         2.77907
| 21>    C       -6.16330        -1.38107         1.80659
| 22>    C       -5.48133        -0.12892         1.81376
| 23>    C       -4.52095         0.16553         0.82080
| 24>    C       -4.21490        -0.78468        -0.11775
| 25>    C       -4.84507        -2.05963        -0.07154
| 26>    C       -5.81909        -2.35126         0.84112
| 27>    C       -4.25817        -2.94126        -1.09439
| 28>    O       -4.52344        -4.10610        -1.28878
| 29>    C       -3.20707        -2.12184        -1.77073
| 30>    C       -3.28855        -0.76676        -1.24191
| 31>    C       -2.73179         0.34167        -1.80788
| 32>    C       -1.95146         0.32469        -2.98546
| 33>    N       -1.32864         0.37931        -3.94701
| 34>    C       -2.94358         1.65277        -1.32817
| 35>    N       -3.09217         2.73587        -0.98083
| 36>    C       -2.27281        -2.60593        -2.61780
| 37>    C       -2.31340        -3.90895        -3.22982
| 38>    C       -1.20509        -4.75242        -3.31007
| 39>    C        0.06731        -4.46653        -2.71608
| 40>    O        0.32347        -3.49507        -2.04112
| 41>    C        1.17650        -5.52200        -2.99107
| 42>    F        0.84879        -6.72321        -2.48280
| 43>    F        1.37514        -5.70385        -4.30784
| 44>    F        2.33959        -5.16900        -2.45776
| 45>    S       -1.58257        -6.22203        -4.15229
| 46>    C       -3.18441        -5.70856        -4.39621
| 47>    C       -3.46019        -4.46792        -3.86634
| 48>    C       -4.71431        -3.76690        -3.92075
| 49>    C       -5.92911        -4.33634        -4.04704
| 50>    C       -7.12020        -3.55867        -3.96671
| 51>    N       -8.37578        -4.08268        -4.13664
| 52>    C       -8.71581        -5.47707        -4.28065
| 53>    C       -8.64785        -6.20446        -2.93999
| 54>    C       -9.37712        -3.10322        -4.02739
| 55>    O      -10.56186        -3.34104        -4.14544
| 56>    C       -8.64846        -1.87812        -3.77546
| 57>    C       -7.26379        -2.19281        -3.73101
| 58>    C       -6.55233        -0.97522        -3.42310
| 59>    O       -5.37024        -0.74817        -3.21445
| 60>    N       -7.54494         0.01055        -3.35487
| 61>    C       -7.21695         1.39193        -3.09224
| 62>    C       -7.07877         2.19536        -4.38243
| 63>    C       -8.80040        -0.51344        -3.56353
| 64>    C      -10.01011         0.23650        -3.56758
| 65>    C      -11.20629        -0.38854        -3.48191
| 66>    C      -12.50585         0.21792        -3.62529
| 67>    C      -12.68689         1.25732        -4.55203
| 68>    C      -13.96182         1.68055        -4.83446
| 69>    C      -15.07668         1.07740        -4.23443
| 70>    C      -16.29535         1.72394        -4.77783
| 71>    O      -17.45356         1.50696        -4.53027
| 72>    N      -15.83515         2.67548        -5.67794
| 73>    C      -14.45287         2.72357        -5.76932
| 74>    O      -13.82786         3.47035        -6.47789
| 75>    C      -16.71190         3.56587        -6.40919
| 76>    C      -16.96961         4.84959        -5.62830
| 77>    C      -14.92581         0.07850        -3.30456
| 78>    C      -13.62816        -0.32996        -2.95068
| 79>    C      -13.49632        -1.19880        -1.80834
| 80>    C      -12.45876        -1.15528        -0.93863
| 81>    C      -12.49729        -1.75827         0.34528
| 82>    C      -11.68330        -1.40625         1.37989
| 83>    C      -12.12143        -1.56149         2.79764
| 84>    O      -12.91856        -2.35561         3.23252
| 85>    C      -11.43484        -0.46449         3.51645
| 86>    C      -11.59321        -0.04943         4.80646
| 87>    C      -10.89142         1.09371         5.25253
| 88>    C      -10.04537         1.79925         4.34765
| 89>    C       -9.38949         2.96546         4.78833
| 90>    C       -9.54413         3.39744         6.07541
| 91>    C      -10.36319         2.68722         6.97590
| 92>    C      -11.02617         1.56151         6.57333
| 93>    F      -10.49598         3.13226         8.23151
| 94>    F       -8.92351         4.50698         6.49166
| 95>    C       -9.86431         1.32160         3.02949
| 96>    C      -10.54253         0.20334         2.62613
| 97>    C      -10.53810        -0.52411         1.36645
| 98>    C       -9.53090        -0.54603         0.43460
| 99>    C       -9.40610        -1.59417        -0.49735
|100>    N       -9.21399        -2.48534        -1.19547
|101>    C       -8.46986         0.37322         0.39210
|102>    N       -7.61618         1.13309         0.27480
|103>    H       -5.25974         1.75047         2.85781
|104>    H       -7.68971        -2.56970         2.77338
|105>    H       -4.04072         1.13069         0.83390
|106>    H       -6.30621        -3.31464         0.83518
|107>    H       -1.40317        -2.00638        -2.85852
|108>    H       -3.86007        -6.34112        -4.93849
|109>    H       -4.65483        -2.69640        -3.77946
|110>    H       -6.02565        -5.40474        -4.16492
|111>    H       -8.05722        -5.94384        -5.01835
|112>    H       -9.74123        -5.50031        -4.66004
|113>    H       -7.64390        -6.16281        -2.52352
|114>    H       -8.93552        -7.24451        -3.06731
|115>    H       -9.32991        -5.73481        -2.23584
|116>    H       -6.26302         1.38837        -2.55762
|117>    H       -7.97528         1.82598        -2.43596
|118>    H       -6.29242         1.76974        -5.00099
|119>    H       -6.81733         3.22309        -4.14764
|120>    H       -8.00702         2.18870        -4.94986
|121>    H       -9.94639         1.31494        -3.61146
|122>    H      -11.21534        -1.46226        -3.34247
|123>    H      -11.83968         1.68302        -5.06673
|124>    H      -17.64846         3.03085        -6.58276
|125>    H      -16.22832         3.79085        -7.36270
|126>    H      -17.43861         4.62137        -4.67387
|127>    H      -17.63015         5.49839        -6.19605
|128>    H      -16.03399         5.37397        -5.44792
|129>    H      -15.78820        -0.36157        -2.82732
|130>    H      -14.36026        -1.80306        -1.56273
|131>    H      -11.63089        -0.49475        -1.15524
|132>    H      -13.33739        -2.40008         0.58185
|133>    H      -12.25005        -0.58016         5.47830
|134>    H       -8.75087         3.51625         4.11596
|135>    H      -11.65340         1.03275         7.27369
|136>    H       -9.20671         1.85703         2.36084
|137> *
|138> 
|139>                          ****END OF INPUT****
================================================================================

                       ****************************
                       * Single Point Calculation *
                       ****************************

---------------------------------
CARTESIAN COORDINATES (ANGSTROEM)
---------------------------------
  C     -5.776790    0.804520    2.827860
  C     -6.713560    0.513910    3.777630
  F     -6.973760    1.390040    4.760790
  C     -7.419180   -0.704690    3.743770
  F     -8.356190   -0.948100    4.676760
  C     -7.152030   -1.633910    2.779070
  C     -6.163300   -1.381070    1.806590
  C     -5.481330   -0.128920    1.813760
  C     -4.520950    0.165530    0.820800
  C     -4.214900   -0.784680   -0.117750
  C     -4.845070   -2.059630   -0.071540
  C     -5.819090   -2.351260    0.841120
  C     -4.258170   -2.941260   -1.094390
  O     -4.523440   -4.106100   -1.288780
  C     -3.207070   -2.121840   -1.770730
  C     -3.288550   -0.766760   -1.241910
  C     -2.731790    0.341670   -1.807880
  C     -1.951460    0.324690   -2.985460
  N     -1.328640    0.379310   -3.947010
  C     -2.943580    1.652770   -1.328170
  N     -3.092170    2.735870   -0.980830
  C     -2.272810   -2.605930   -2.617800
  C     -2.313400   -3.908950   -3.229820
  C     -1.205090   -4.752420   -3.310070
  C      0.067310   -4.466530   -2.716080
  O      0.323470   -3.495070   -2.041120
  C      1.176500   -5.522000   -2.991070
  F      0.848790   -6.723210   -2.482800
  F      1.375140   -5.703850   -4.307840
  F      2.339590   -5.169000   -2.457760
  S     -1.582570   -6.222030   -4.152290
  C     -3.184410   -5.708560   -4.396210
  C     -3.460190   -4.467920   -3.866340
  C     -4.714310   -3.766900   -3.920750
  C     -5.929110   -4.336340   -4.047040
  C     -7.120200   -3.558670   -3.966710
  N     -8.375780   -4.082680   -4.136640
  C     -8.715810   -5.477070   -4.280650
  C     -8.647850   -6.204460   -2.939990
  C     -9.377120   -3.103220   -4.027390
  O    -10.561860   -3.341040   -4.145440
  C     -8.648460   -1.878120   -3.775460
  C     -7.263790   -2.192810   -3.731010
  C     -6.552330   -0.975220   -3.423100
  O     -5.370240   -0.748170   -3.214450
  N     -7.544940    0.010550   -3.354870
  C     -7.216950    1.391930   -3.092240
  C     -7.078770    2.195360   -4.382430
  C     -8.800400   -0.513440   -3.563530
  C    -10.010110    0.236500   -3.567580
  C    -11.206290   -0.388540   -3.481910
  C    -12.505850    0.217920   -3.625290
  C    -12.686890    1.257320   -4.552030
  C    -13.961820    1.680550   -4.834460
  C    -15.076680    1.077400   -4.234430
  C    -16.295350    1.723940   -4.777830
  O    -17.453560    1.506960   -4.530270
  N    -15.835150    2.675480   -5.677940
  C    -14.452870    2.723570   -5.769320
  O    -13.827860    3.470350   -6.477890
  C    -16.711900    3.565870   -6.409190
  C    -16.969610    4.849590   -5.628300
  C    -14.925810    0.078500   -3.304560
  C    -13.628160   -0.329960   -2.950680
  C    -13.496320   -1.198800   -1.808340
  C    -12.458760   -1.155280   -0.938630
  C    -12.497290   -1.758270    0.345280
  C    -11.683300   -1.406250    1.379890
  C    -12.121430   -1.561490    2.797640
  O    -12.918560   -2.355610    3.232520
  C    -11.434840   -0.464490    3.516450
  C    -11.593210   -0.049430    4.806460
  C    -10.891420    1.093710    5.252530
  C    -10.045370    1.799250    4.347650
  C     -9.389490    2.965460    4.788330
  C     -9.544130    3.397440    6.075410
  C    -10.363190    2.687220    6.975900
  C    -11.026170    1.561510    6.573330
  F    -10.495980    3.132260    8.231510
  F     -8.923510    4.506980    6.491660
  C     -9.864310    1.321600    3.029490
  C    -10.542530    0.203340    2.626130
  C    -10.538100   -0.524110    1.366450
  C     -9.530900   -0.546030    0.434600
  C     -9.406100   -1.594170   -0.497350
  N     -9.213990   -2.485340   -1.195470
  C     -8.469860    0.373220    0.392100
  N     -7.616180    1.133090    0.274800
  H     -5.259740    1.750470    2.857810
  H     -7.689710   -2.569700    2.773380
  H     -4.040720    1.130690    0.833900
  H     -6.306210   -3.314640    0.835180
  H     -1.403170   -2.006380   -2.858520
  H     -3.860070   -6.341120   -4.938490
  H     -4.654830   -2.696400   -3.779460
  H     -6.025650   -5.404740   -4.164920
  H     -8.057220   -5.943840   -5.018350
  H     -9.741230   -5.500310   -4.660040
  H     -7.643900   -6.162810   -2.523520
  H     -8.935520   -7.244510   -3.067310
  H     -9.329910   -5.734810   -2.235840
  H     -6.263020    1.388370   -2.557620
  H     -7.975280    1.825980   -2.435960
  H     -6.292420    1.769740   -5.000990
  H     -6.817330    3.223090   -4.147640
  H     -8.007020    2.188700   -4.949860
  H     -9.946390    1.314940   -3.611460
  H    -11.215340   -1.462260   -3.342470
  H    -11.839680    1.683020   -5.066730
  H    -17.648460    3.030850   -6.582760
  H    -16.228320    3.790850   -7.362700
  H    -17.438610    4.621370   -4.673870
  H    -17.630150    5.498390   -6.196050
  H    -16.033990    5.373970   -5.447920
  H    -15.788200   -0.361570   -2.827320
  H    -14.360260   -1.803060   -1.562730
  H    -11.630890   -0.494750   -1.155240
  H    -13.337390   -2.400080    0.581850
  H    -12.250050   -0.580160    5.478300
  H     -8.750870    3.516250    4.115960
  H    -11.653400    1.032750    7.273690
  H     -9.206710    1.857030    2.360840

----------------------------
CARTESIAN COORDINATES (A.U.)
----------------------------
  NO LB      ZA    FRAG     MASS         X           Y           Z
   0 C     6.0000    0    12.011  -10.916551    1.520322    5.343881
   1 C     6.0000    0    12.011  -12.686790    0.971149    7.138686
   2 F     9.0000    0    18.998  -13.178497    2.626795    8.996589
   3 C     6.0000    0    12.011  -14.020218   -1.331671    7.074700
   4 F     9.0000    0    18.998  -15.790911   -1.791649    8.837796
   5 C     6.0000    0    12.011  -13.515378   -3.087642    5.251681
   6 C     6.0000    0    12.011  -11.646949   -2.609844    3.413960
   7 C     6.0000    0    12.011  -10.358213   -0.243623    3.427510
   8 C     6.0000    0    12.011   -8.543357    0.312806    1.551087
   9 C     6.0000    0    12.011   -7.965007   -1.482830   -0.222515
  10 C     6.0000    0    12.011   -9.155855   -3.892137   -0.135191
  11 C     6.0000    0    12.011  -10.996486   -4.443237    1.589486
  12 C     6.0000    0    12.011   -8.046775   -5.558176   -2.068097
  13 O     8.0000    0    15.999   -8.548063   -7.759404   -2.435441
  14 C     6.0000    0    12.011   -6.060484   -4.009696   -3.346195
  15 C     6.0000    0    12.011   -6.214459   -1.448966   -2.346870
  16 C     6.0000    0    12.011   -5.162335    0.645663   -3.416398
  17 C     6.0000    0    12.011   -3.687725    0.613575   -5.641702
  18 N     7.0000    0    14.007   -2.510766    0.716792   -7.458768
  19 C     6.0000    0    12.011   -5.562560    3.123283   -2.509878
  20 N     7.0000    0    14.007   -5.843354    5.170045   -1.853500
  21 C     6.0000    0    12.011   -4.294988   -4.924494   -4.946925
  22 C     6.0000    0    12.011   -4.371692   -7.386845   -6.103475
  23 C     6.0000    0    12.011   -2.277290   -8.980772   -6.255126
  24 C     6.0000    0    12.011    0.127197   -8.440518   -5.132647
  25 O     8.0000    0    15.999    0.611270   -6.604725   -3.857158
  26 C     6.0000    0    12.011    2.223263  -10.435068   -5.652303
  27 F     9.0000    0    18.998    1.603981  -12.705026   -4.691812
  28 F     9.0000    0    18.998    2.598638  -10.778714   -8.140638
  29 F     9.0000    0    18.998    4.421184   -9.767994   -4.644493
  30 S    16.0000    0    32.060   -2.990624  -11.757933   -7.846691
  31 C     6.0000    0    12.011   -6.017663  -10.787615   -8.307633
  32 C     6.0000    0    12.011   -6.538811   -8.443145   -7.306324
  33 C     6.0000    0    12.011   -8.908755   -7.118409   -7.409144
  34 C     6.0000    0    12.011  -11.204394   -8.194495   -7.647797
  35 C     6.0000    0    12.011  -13.455228   -6.724912   -7.495996
  36 N     7.0000    0    14.007  -15.827930   -7.715147   -7.817117
  37 C     6.0000    0    12.011  -16.470494  -10.350162   -8.089256
  38 C     6.0000    0    12.011  -16.342068  -11.724730   -5.555776
  39 C     6.0000    0    12.011  -17.720189   -5.864236   -7.610664
  40 O     8.0000    0    15.999  -19.959023   -6.313651   -7.833746
  41 C     6.0000    0    12.011  -16.343221   -3.549132   -7.134585
  42 C     6.0000    0    12.011  -13.726574   -4.143810   -7.050587
  43 C     6.0000    0    12.011  -12.382109   -1.842899   -6.468722
  44 O     8.0000    0    15.999  -10.148283   -1.413836   -6.074430
  45 N     7.0000    0    14.007  -14.257870    0.019937   -6.339786
  46 C     6.0000    0    12.011  -13.638059    2.630366   -5.843487
  47 C     6.0000    0    12.011  -13.376937    4.148629   -8.281593
  48 C     6.0000    0    12.011  -16.630346   -0.970261   -6.734096
  49 C     6.0000    0    12.011  -18.916366    0.446920   -6.741749
  50 C     6.0000    0    12.011  -21.176819   -0.734234   -6.579856
  51 C     6.0000    0    12.011  -23.632632    0.411809   -6.850805
  52 C     6.0000    0    12.011  -23.974748    2.375990   -8.602090
  53 C     6.0000    0    12.011  -26.384016    3.175779   -9.135805
  54 C     6.0000    0    12.011  -28.490796    2.035991   -8.001913
  55 C     6.0000    0    12.011  -30.793749    3.257774   -9.028790
  56 O     8.0000    0    15.999  -32.982448    2.847742   -8.560970
  57 N     7.0000    0    14.007  -29.924097    5.055924  -10.729752
  58 C     6.0000    0    12.011  -27.311966    5.146801  -10.902435
  59 O     8.0000    0    15.999  -26.130868    6.558011  -12.241438
  60 C     6.0000    0    12.011  -31.580914    6.738518  -12.111614
  61 C     6.0000    0    12.011  -32.067915    9.164397  -10.635946
  62 C     6.0000    0    12.011  -28.205693    0.148344   -6.244713
  63 C     6.0000    0    12.011  -25.753490   -0.623534   -5.575977
  64 C     6.0000    0    12.011  -25.504349   -2.265404   -3.417267
  65 C     6.0000    0    12.011  -23.543644   -2.183163   -1.773754
  66 C     6.0000    0    12.011  -23.616456   -3.322649    0.652485
  67 C     6.0000    0    12.011  -22.078237   -2.657427    2.607614
  68 C     6.0000    0    12.011  -22.906183   -2.950788    5.286773
  69 O     8.0000    0    15.999  -24.412540   -4.451458    6.108578
  70 C     6.0000    0    12.011  -21.608716   -0.877759    6.645127
  71 C     6.0000    0    12.011  -21.907992   -0.093409    9.082893
  72 C     6.0000    0    12.011  -20.581801    2.066812    9.925843
  73 C     6.0000    0    12.011  -18.982998    3.400090    8.215868
  74 C     6.0000    0    12.011  -17.743565    5.603907    9.048632
  75 C     6.0000    0    12.011  -18.035792    6.420231   11.480861
  76 C     6.0000    0    12.011  -19.583591    5.078110   13.182541
  77 C     6.0000    0    12.011  -20.836442    2.950826   12.421793
  78 F     9.0000    0    18.998  -19.834528    5.919114   15.555300
  79 F     9.0000    0    18.998  -16.862990    8.516958   12.267460
  80 C     6.0000    0    12.011  -18.640844    2.497462    5.724906
  81 C     6.0000    0    12.011  -19.922494    0.384257    4.962666
  82 C     6.0000    0    12.011  -19.914123   -0.990424    2.582216
  83 C     6.0000    0    12.011  -18.010791   -1.031847    0.821275
  84 C     6.0000    0    12.011  -17.774953   -3.012545   -0.939855
  85 N     7.0000    0    14.007  -17.411918   -4.696612   -2.259111
  86 C     6.0000    0    12.011  -16.005716    0.705284    0.740962
  87 N     7.0000    0    14.007  -14.392494    2.141230    0.519297
  88 H     1.0000    0     1.008   -9.939468    3.307909    5.400478
  89 H     1.0000    0     1.008  -14.531446   -4.856029    5.240929
  90 H     1.0000    0     1.008   -7.635854    2.136694    1.575843
  91 H     1.0000    0     1.008  -11.917010   -6.263762    1.578261
  92 H     1.0000    0     1.008   -2.651607   -3.791509   -5.401820
  93 H     1.0000    0     1.008   -7.294475  -11.982980   -9.332394
  94 H     1.0000    0     1.008   -8.796354   -5.095458   -7.142144
  95 H     1.0000    0     1.008  -11.386828  -10.213478   -7.870558
  96 H     1.0000    0     1.008  -15.225939  -11.232230   -9.483307
  97 H     1.0000    0     1.008  -18.408257  -10.394080   -8.806199
  98 H     1.0000    0     1.008  -14.444878  -11.646023   -4.768762
  99 H     1.0000    0     1.008  -16.885686  -13.690140   -5.796376
 100 H     1.0000    0     1.008  -17.630975  -10.837220   -4.225125
 101 H     1.0000    0     1.008  -11.835393    2.623639   -4.833201
 102 H     1.0000    0     1.008  -15.071095    3.450602   -4.603297
 103 H     1.0000    0     1.008  -11.890951    3.344324   -9.450501
 104 H     1.0000    0     1.008  -12.882887    6.090757   -7.837904
 105 H     1.0000    0     1.008  -15.131075    4.136044   -9.353880
 106 H     1.0000    0     1.008  -18.795953    2.484876   -6.824670
 107 H     1.0000    0     1.008  -21.193921   -2.763271   -6.316353
 108 H     1.0000    0     1.008  -22.373753    3.180447   -9.574732
 109 H     1.0000    0     1.008  -33.350756    5.727476  -12.439614
 110 H     1.0000    0     1.008  -30.667080    7.163668  -13.913487
 111 H     1.0000    0     1.008  -32.954197    8.733124   -8.832334
 112 H     1.0000    0     1.008  -33.316155   10.390451  -11.708838
 113 H     1.0000    0     1.008  -30.299850   10.155332  -10.295077
 114 H     1.0000    0     1.008  -29.835374   -0.683268   -5.342860
 115 H     1.0000    0     1.008  -27.136959   -3.407290   -2.953132
 116 H     1.0000    0     1.008  -21.979197   -0.934942   -2.183087
 117 H     1.0000    0     1.008  -25.204014   -4.535494    1.099537
 118 H     1.0000    0     1.008  -23.149240   -1.096344   10.352487
 119 H     1.0000    0     1.008  -16.536748    6.644750    7.778037
 120 H     1.0000    0     1.008  -22.021735    1.951615   13.745282
 121 H     1.0000    0     1.008  -17.398160    3.509278    4.461341

--------------------------------
INTERNAL COORDINATES (ANGSTROEM)
--------------------------------
 C      0   0   0     0.000000000000     0.00000000     0.00000000
 C      1   0   0     1.365304089901     0.00000000     0.00000000
 F      2   1   0     1.342352935148   120.23677934     0.00000000
 C      2   1   3     1.408556723742   120.73994098   180.06133743
 F      4   2   1     1.344509765044   119.27918509   181.45214722
 C      4   2   1     1.365820274011   120.50295938     1.78565785
 C      6   4   2     1.409692317103   120.16003181     0.07389495
 C      1   2   3     1.409611881051   120.22019979   178.50548024
 C      8   1   2     1.412444727591   120.67901227   179.54179217
 C      9   8   1     1.370197704384   119.26475951   177.23628703
 C     10   9   8     1.422936082718   120.01304604   358.91619211
 C     11  10   9     1.366276433559   121.91514360     4.02148232
 C     11  10   9     1.472394372918   109.71933044   185.52836796
 O     13  11  10     1.210375095002   126.90257891   176.72560602
 C     13  11  10     1.494555499806   105.45087336     0.51931474
 C     10   9   8     1.456770796831   131.45900419   179.75611805
 C     16  10   9     1.363422459621   126.15715302   343.06983432
 C     17  16  10     1.412762501520   124.17949426   187.08695860
 N     18  17  16     1.146937879442   176.52977366   162.35573038
 C     17  16  10     1.412076449134   123.54371151     2.81875916
 N     20  17  16     1.147096192000   177.41933048   189.46775124
 C     15  13  11     1.350819181312   125.00887988   168.29501013
 C     22  15  13     1.440165667172   124.83634095    14.35473528
 C     23  22  15     1.395074463783   123.30422363   224.58753239
 C     24  23  22     1.433024414377   124.12043716     4.59262489
 O     25  24  23     1.210340232662   125.39414914     2.70474950
 C     25  24  23     1.555615272842   115.11713464   182.70249589
 F     27  25  24     1.344856015007   111.43613787   297.79651217
 F     27  25  24     1.344027717348   111.73842009    56.91867390
 F     27  25  24     1.327330744088   111.92096134   177.49814062
 S     24  23  22     1.735390224388   111.53806476   181.86261325
 C     31  24  23     1.699717562685    91.07804712     0.31128395
 C     32  31  24     1.376954768647   113.93571825   359.86630022
 C     33  32  31     1.437778307981   126.82978971   179.49135645
 C     34  33  32     1.347571934147   125.72078943    25.56372284
 C     35  34  33     1.424752233162   121.17787373   174.12215184
 N     36  35  34     1.371110433700   123.36457189   177.56392317
 C     37  36  35     1.442457192814   126.70422162     6.78728705
 C     38  37  36     1.526788790010   111.24668409    75.73674473
 C     37  36  35     1.404976601122   112.12249251   180.86330843
 O     40  37  36     1.214126444198   123.45935475   179.85209377
 C     40  37  36     1.447509630538   104.16912648     0.32167687
 C     36  35  34     1.393465506462   129.10159472   358.34429171
 C     43  36  35     1.443436631030   144.30319480   356.18156759
 O     44  43  36     1.221647777839   132.07802150   358.21092744
 N     44  43  36     1.400597171888   104.76020277   180.06964244
 C     46  44  43     1.443870721845   121.41487329   181.42616392
 C     47  46  44     1.526166345259   111.74344047    95.21693612
 C     46  44  43     1.376330021216   111.78501428     1.46388260
 C     49  46  44     1.423314684179   125.10784987   180.58026469
 C     50  49  46     1.352353852695   120.53520526   194.87759902
 C     51  50  49     1.441252146434   126.63922077   187.53585832
 C     52  51  50     1.404270226559   119.56126961    36.05140192
 C     53  52  51     1.372711492886   118.92902118   169.69651667
 C     54  53  52     1.402404628843   121.17838061   358.79311167
 C     55  54  53     1.482718483226   108.00198389   181.92377464
 O     56  55  54     1.204083335197   129.54428425   180.01809384
 N     56  55  54     1.388312077200   105.30923950     0.22628288
 C     58  56  55     1.386131649916   113.39585057   359.51637226
 O     59  58  56     1.204321100621   125.29812290   180.28835097
 C     58  56  55     1.447829919949   123.24575975   181.83376273
 C     61  58  56     1.524513258257   111.19282084    89.32498385
 C     55  54  53     1.373033569801   121.01758909     2.59455511
 C     63  55  54     1.405690630438   118.90289394     0.44754027
 C     64  63  55     1.441251333668   117.33237701   169.02639606
 C     65  64  63     1.354555361770   124.02823778   215.08458828
 C     66  65  64     1.418980757128   123.12683536   163.36990586
 C     67  66  65     1.362686923912   124.12333867   201.10793566
 C     68  67  66     1.492002820708   121.27645412   151.32129289
 O     69  68  67     1.206301548412   127.23662517    27.19430895
 C     69  68  67     1.480372468063   104.36498829   211.18303034
 C     71  69  68     1.364361264695   129.10153827   171.97665700
 C     72  71  69     1.413597081420   119.12685549   184.57114113
 C     73  72  71     1.425620955409   119.63998061     0.68563491
 C     74  73  72     1.408695567147   119.17387733   177.66329330
 C     75  74  73     1.366416911634   120.24474204     1.26306471
 C     76  75  74     1.409309750232   120.55154375   359.77237371
 C     77  76  75     1.367050873011   120.57559840   359.39469667
 F     77  76  75     1.338749512717   119.30093362   179.94280437
 F     76  75  74     1.337726526051   120.18575694   180.17400964
 C     74  73  72     1.413675362910   120.04198355   357.17419622
 C     81  74  73     1.368644250929   119.16986033     2.04830435
 C     68  67  66     1.445626041962   128.59272164   351.05039012
 C     83  68  67     1.372325307243   125.30845979   313.84081931
 C     84  83  68     1.408084976875   121.75981889   349.43025309
 N     85  84  83     1.148242899129   174.23962026   253.43411378
 C     84  83  68     1.404504430075   124.37099827   175.87953907
 N     87  84  83     1.148882609016   175.80341894   227.14509794
 H      1   2   3     1.078452181369   119.75793961   358.73919152
 H      6   4   2     1.079275258032   119.74695295   179.08830251
 H      9   8   1     1.078112372854   118.74783772   358.03705642
 H     12  11  10     1.079547221014   120.56292081   177.91453640
 H     22  15  13     1.083365151046   119.74828945   195.91951888
 H     32  31  24     1.072714401693   119.20905182   178.91809416
 H     34  33  32     1.081420817490   115.45028007   201.25789912
 H     35  34  33     1.079210000880   120.61134960   357.07972525
 H     38  37  36     1.093533863673   109.75515584   312.19454370
 H     38  37  36     1.093600953776   106.03418980   194.88710830
 H     39  38  37     1.087702894131   111.04207344   299.09120007
 H     39  38  37     1.086585667953   109.95855444   178.34884457
 H     39  38  37     1.087016185988   109.57522901    58.72961940
 H     47  46  44     1.093532652873   106.49741104   335.51936284
 H     47  46  44     1.092779588847   109.36641458   218.76533401
 H     48  47  46     1.087251203954   109.89857476   300.23501819
 H     48  47  46     1.086142794756   109.70478848   180.87221039
 H     48  47  46     1.087965635027   111.12705563    60.39238110
 H     50  49  46     1.081211601122   118.39661921    13.11937716
 H     51  50  49     1.082774239858   118.28598994     4.11681192
 H     53  52  51     1.078842603951   120.37599251   352.53723320
 H     61  58  56     1.092482301413   107.34967961   328.45371508
 H     61  58  56     1.092541503514   107.42157576   210.21394836
 H     62  61  58     1.087649756723   110.22388687   299.89789258
 H     62  61  58     1.086091429899   109.75903573   180.11284121
 H     62  61  58     1.087610276340   110.21342695    60.33003798
 H     63  55  54     1.079414718540   120.54665459   178.29541649
 H     65  64  63     1.082518703441   116.31647080    25.11909778
 H     66  65  64     1.081012724208   118.52777004   354.17016855
 H     67  66  65     1.083352874644   118.05954720     9.02367994
 H     72  71  69     1.079111719935   120.64334539     4.14226196
 H     75  74  73     1.078557622661   120.22735375   180.42192914
 H     78  77  76     1.078660623227   119.63435681   180.33724067
 H     81  74  73     1.079914750061   119.19631119   181.07201246

---------------------------
INTERNAL COORDINATES (A.U.)
---------------------------
 C      0   0   0     0.000000000000     0.00000000     0.00000000
 C      1   0   0     2.580050819435     0.00000000     0.00000000
 F      2   1   0     2.536679422495   120.23677934     0.00000000
 C      2   1   3     2.661786451967   120.73994098   180.06133743
 F      4   2   1     2.540755240317   119.27918509   181.45214722
 C      4   2   1     2.581026266038   120.50295938     1.78565785
 C      6   4   2     2.663932412418   120.16003181     0.07389495
 C      1   2   3     2.663780410308   120.22019979   178.50548024
 C      8   1   2     2.669133714448   120.67901227   179.54179217
 C      9   8   1     2.589298410614   119.26475951   177.23628703
 C     10   9   8     2.688959502411   120.01304604   358.91619211
 C     11  10   9     2.581888282658   121.91514360     4.02148232
 C     11  10   9     2.782422125941   109.71933044   185.52836796
 O     13  11  10     2.287277448872   126.90257891   176.72560602
 C     13  11  10     2.824300586579   105.45087336     0.51931474
 C     10   9   8     2.752897845905   131.45900419   179.75611805
 C     16  10   9     2.576495053522   126.15715302   343.06983432
 C     17  16  10     2.669734220146   124.17949426   187.08695860
 N     18  17  16     2.167398484767   176.52977366   162.35573038
 C     17  16  10     2.668437769024   123.54371151     2.81875916
 N     20  17  16     2.167697652143   177.41933048   189.46775124
 C     15  13  11     2.552678309127   125.00887988   168.29501013
 C     22  15  13     2.721518698430   124.83634095    14.35473528
 C     23  22  15     2.636308672977   123.30422363   224.58753239
 C     24  23  22     2.708023686395   124.12043716     4.59262489
 O     25  24  23     2.287211568597   125.39414914     2.70474950
 C     25  24  23     2.939686835417   115.11713464   182.70249589
 F     27  25  24     2.541409557920   111.43613787   297.79651217
 F     27  25  24     2.539844302187   111.73842009    56.91867390
 F     27  25  24     2.508291595459   111.92096134   177.49814062
 S     24  23  22     3.279412259577   111.53806476   181.86261325
 C     31  24  23     3.212000698491    91.07804712     0.31128395
 C     32  31  24     2.602067411540   113.93571825   359.86630022
 C     33  32  31     2.717007243376   126.82978971   179.49135645
 C     34  33  32     2.546541901296   125.72078943    25.56372284
 C     35  34  33     2.692391529369   121.17787373   174.12215184
 N     36  35  34     2.591023219054   123.36457189   177.56392317
 C     37  36  35     2.725849054323   126.70422162     6.78728705
 C     38  37  36     2.885212677460   111.24668409    75.73674473
 C     37  36  35     2.655021000688   112.12249251   180.86330843
 O     40  37  36     2.294366471485   123.45935475   179.85209377
 C     40  37  36     2.735396777930   104.16912648     0.32167687
 C     36  35  34     2.633268184279   129.10159472   358.34429171
 C     43  36  35     2.727699924317   144.30319480   356.18156759
 O     44  43  36     2.308579732230   132.07802150   358.21092744
 N     44  43  36     2.646745078813   104.76020277   180.06964244
 C     46  44  43     2.728520237073   121.41487329   181.42616392
 C     47  46  44     2.884036427346   111.74344047    95.21693612
 C     46  44  43     2.600886809992   111.78501428     1.46388260
 C     49  46  44     2.689674955487   125.10784987   180.58026469
 C     50  49  46     2.555578417748   120.53520526   194.87759902
 C     51  50  49     2.723571846686   126.63922077   187.53585832
 C     52  51  50     2.653686146216   119.56126961    36.05140192
 C     53  52  51     2.594048782440   118.92902118   169.69651667
 C     54  53  52     2.650160677457   121.17838061   358.79311167
 C     55  54  53     2.801931867000   108.00198389   181.92377464
 O     56  55  54     2.275387745942   129.54428425   180.01809384
 N     56  55  54     2.623529614324   105.30923950     0.22628288
 C     58  56  55     2.619409203902   113.39585057   359.51637226
 O     59  58  56     2.275837057476   125.29812290   180.28835097
 C     58  56  55     2.736002037201   123.24575975   181.83376273
 C     61  58  56     2.880912545637   111.19282084    89.32498385
 C     55  54  53     2.594657419604   121.01758909     2.59455511
 C     63  55  54     2.656370320546   118.90289394     0.44754027
 C     64  63  55     2.723570310781   117.33237701   169.02639606
 C     65  64  63     2.559738666980   124.02823778   215.08458828
 C     66  65  64     2.681485020276   123.12683536   163.36990586
 C     67  66  65     2.575105092469   124.12333867   201.10793566
 C     68  67  66     2.819476722176   121.27645412   151.32129289
 O     69  68  67     2.279579561423   127.23662517    27.19430895
 C     69  68  67     2.797498540837   104.36498829   211.18303034
 C     71  69  68     2.578269138004   129.10153827   171.97665700
 C     72  71  69     2.671311347595   119.12685549   184.57114113
 C     73  72  71     2.694033176501   119.63998061     0.68563491
 C     74  73  72     2.662048827977   119.17387733   177.66329330
 C     75  74  73     2.582153747747   120.24474204     1.26306471
 C     76  75  74     2.663209465804   120.55154375   359.77237371
 C     77  76  75     2.583351761129   120.57559840   359.39469667
 F     77  76  75     2.529869940956   119.30093362   179.94280437
 F     76  75  74     2.527936776318   120.18575694   180.17400964
 C     74  73  72     2.671459278172   120.04198355   357.17419622
 C     81  74  73     2.586362809021   119.16986033     2.04830435
 C     68  67  66     2.731837311374   128.59272164   351.05039012
 C     83  68  67     2.593318997339   125.30845979   313.84081931
 C     84  83  68     2.660894979582   121.75981889   349.43025309
 N     85  84  83     2.169864614573   174.23962026   253.43411378
 C     84  83  68     2.654128726721   124.37099827   175.87953907
 N     87  84  83     2.171073491066   175.80341894   227.14509794
 H      1   2   3     2.037979271318   119.75793961   358.73919152
 H      6   4   2     2.039534660798   119.74695295   179.08830251
 H      9   8   1     2.037337126285   118.74783772   358.03705642
 H     12  11  10     2.040048596353   120.56292081   177.91453640
 H     22  15  13     2.047263438510   119.74828945   195.91951888
 H     32  31  24     2.027136439113   119.20905182   178.91809416
 H     34  33  32     2.043589180577   115.45028007   201.25789912
 H     35  34  33     2.039411342653   120.61134960   357.07972525
 H     38  37  36     2.066479520511   109.75515584   312.19454370
 H     38  37  36     2.066606302432   106.03418980   194.88710830
 H     39  38  37     2.055460584980   111.04207344   299.09120007
 H     39  38  37     2.053349333474   109.95855444   178.34884457
 H     39  38  37     2.054162894657   109.57522901    58.72961940
 H     47  46  44     2.066477232431   106.49741104   335.51936284
 H     47  46  44     2.065054147659   109.36641458   218.76533401
 H     48  47  46     2.054607014250   109.89857476   300.23501819
 H     48  47  46     2.052512424420   109.70478848   180.87221039
 H     48  47  46     2.055957093319   111.12705563    60.39238110
 H     50  49  46     2.043193818938   118.39661921    13.11937716
 H     51  50  49     2.046146778196   118.28598994     4.11681192
 H     53  52  51     2.038717063074   120.37599251   352.53723320
 H     61  58  56     2.064492355826   107.34967961   328.45371508
 H     61  58  56     2.064604231583   107.42157576   210.21394836
 H     62  61  58     2.055360169833   110.22388687   299.89789258
 H     62  61  58     2.052415358908   109.75903573   180.11284121
 H     62  61  58     2.055285562721   110.21342695    60.33003798
 H     63  55  54     2.039798202964   120.54665459   178.29541649
 H     65  64  63     2.045663884351   116.31647080    25.11909778
 H     66  65  64     2.042817996038   118.52777004   354.17016855
 H     67  66  65     2.047240239474   118.05954720     9.02367994
 H     72  71  69     2.039225618581   120.64334539     4.14226196
 H     75  74  73     2.038178526482   120.22735375   180.42192914
 H     78  77  76     2.038373169343   119.63435681   180.33724067
 H     81  74  73     2.040743125598   119.19631119   181.07201246

---------------------
BASIS SET INFORMATION
---------------------
There are 6 groups of distinct atoms

 Group   1 Type C   : 7s4p1d contracted to 3s2p1d pattern {511/31/1}
 Group   2 Type F   : 7s4p1d contracted to 3s2p1d pattern {511/31/1}
 Group   3 Type O   : 7s4p1d contracted to 3s2p1d pattern {511/31/1}
 Group   4 Type N   : 7s4p1d contracted to 3s2p1d pattern {511/31/1}
 Group   5 Type S   : 10s7p1d contracted to 4s3p1d pattern {5311/511/1}
 Group   6 Type H   : 4s1p contracted to 2s1p pattern {31/1}

Atom   0C    basis set group =>   1
Atom   1C    basis set group =>   1
Atom   2F    basis set group =>   2
Atom   3C    basis set group =>   1
Atom   4F    basis set group =>   2
Atom   5C    basis set group =>   1
Atom   6C    basis set group =>   1
Atom   7C    basis set group =>   1
Atom   8C    basis set group =>   1
Atom   9C    basis set group =>   1
Atom  10C    basis set group =>   1
Atom  11C    basis set group =>   1
Atom  12C    basis set group =>   1
Atom  13O    basis set group =>   3
Atom  14C    basis set group =>   1
Atom  15C    basis set group =>   1
Atom  16C    basis set group =>   1
Atom  17C    basis set group =>   1
Atom  18N    basis set group =>   4
Atom  19C    basis set group =>   1
Atom  20N    basis set group =>   4
Atom  21C    basis set group =>   1
Atom  22C    basis set group =>   1
Atom  23C    basis set group =>   1
Atom  24C    basis set group =>   1
Atom  25O    basis set group =>   3
Atom  26C    basis set group =>   1
Atom  27F    basis set group =>   2
Atom  28F    basis set group =>   2
Atom  29F    basis set group =>   2
Atom  30S    basis set group =>   5
Atom  31C    basis set group =>   1
Atom  32C    basis set group =>   1
Atom  33C    basis set group =>   1
Atom  34C    basis set group =>   1
Atom  35C    basis set group =>   1
Atom  36N    basis set group =>   4
Atom  37C    basis set group =>   1
Atom  38C    basis set group =>   1
Atom  39C    basis set group =>   1
Atom  40O    basis set group =>   3
Atom  41C    basis set group =>   1
Atom  42C    basis set group =>   1
Atom  43C    basis set group =>   1
Atom  44O    basis set group =>   3
Atom  45N    basis set group =>   4
Atom  46C    basis set group =>   1
Atom  47C    basis set group =>   1
Atom  48C    basis set group =>   1
Atom  49C    basis set group =>   1
Atom  50C    basis set group =>   1
Atom  51C    basis set group =>   1
Atom  52C    basis set group =>   1
Atom  53C    basis set group =>   1
Atom  54C    basis set group =>   1
Atom  55C    basis set group =>   1
Atom  56O    basis set group =>   3
Atom  57N    basis set group =>   4
Atom  58C    basis set group =>   1
Atom  59O    basis set group =>   3
Atom  60C    basis set group =>   1
Atom  61C    basis set group =>   1
Atom  62C    basis set group =>   1
Atom  63C    basis set group =>   1
Atom  64C    basis set group =>   1
Atom  65C    basis set group =>   1
Atom  66C    basis set group =>   1
Atom  67C    basis set group =>   1
Atom  68C    basis set group =>   1
Atom  69O    basis set group =>   3
Atom  70C    basis set group =>   1
Atom  71C    basis set group =>   1
Atom  72C    basis set group =>   1
Atom  73C    basis set group =>   1
Atom  74C    basis set group =>   1
Atom  75C    basis set group =>   1
Atom  76C    basis set group =>   1
Atom  77C    basis set group =>   1
Atom  78F    basis set group =>   2
Atom  79F    basis set group =>   2
Atom  80C    basis set group =>   1
Atom  81C    basis set group =>   1
Atom  82C    basis set group =>   1
Atom  83C    basis set group =>   1
Atom  84C    basis set group =>   1
Atom  85N    basis set group =>   4
Atom  86C    basis set group =>   1
Atom  87N    basis set group =>   4
Atom  88H    basis set group =>   6
Atom  89H    basis set group =>   6
Atom  90H    basis set group =>   6
Atom  91H    basis set group =>   6
Atom  92H    basis set group =>   6
Atom  93H    basis set group =>   6
Atom  94H    basis set group =>   6
Atom  95H    basis set group =>   6
Atom  96H    basis set group =>   6
Atom  97H    basis set group =>   6
Atom  98H    basis set group =>   6
Atom  99H    basis set group =>   6
Atom 100H    basis set group =>   6
Atom 101H    basis set group =>   6
Atom 102H    basis set group =>   6
Atom 103H    basis set group =>   6
Atom 104H    basis set group =>   6
Atom 105H    basis set group =>   6
Atom 106H    basis set group =>   6
Atom 107H    basis set group =>   6
Atom 108H    basis set group =>   6
Atom 109H    basis set group =>   6
Atom 110H    basis set group =>   6
Atom 111H    basis set group =>   6
Atom 112H    basis set group =>   6
Atom 113H    basis set group =>   6
Atom 114H    basis set group =>   6
Atom 115H    basis set group =>   6
Atom 116H    basis set group =>   6
Atom 117H    basis set group =>   6
Atom 118H    basis set group =>   6
Atom 119H    basis set group =>   6
Atom 120H    basis set group =>   6
Atom 121H    basis set group =>   6
---------------------------------
AUXILIARY/J BASIS SET INFORMATION
---------------------------------
There are 6 groups of distinct atoms

 Group   1 Type C   : 12s5p4d2f1g contracted to 6s4p3d1f1g pattern {711111/2111/211/2/1}
 Group   2 Type F   : 12s5p4d2f1g contracted to 6s4p3d1f1g pattern {711111/2111/211/2/1}
 Group   3 Type O   : 12s5p4d2f1g contracted to 6s4p3d1f1g pattern {711111/2111/211/2/1}
 Group   4 Type N   : 12s5p4d2f1g contracted to 6s4p3d1f1g pattern {711111/2111/211/2/1}
 Group   5 Type S   : 14s5p5d2f1g contracted to 8s4p3d1f1g pattern {71111111/2111/311/2/1}
 Group   6 Type H   : 5s2p1d contracted to 3s1p1d pattern {311/2/1}

Atom   0C    basis set group =>   1
Atom   1C    basis set group =>   1
Atom   2F    basis set group =>   2
Atom   3C    basis set group =>   1
Atom   4F    basis set group =>   2
Atom   5C    basis set group =>   1
Atom   6C    basis set group =>   1
Atom   7C    basis set group =>   1
Atom   8C    basis set group =>   1
Atom   9C    basis set group =>   1
Atom  10C    basis set group =>   1
Atom  11C    basis set group =>   1
Atom  12C    basis set group =>   1
Atom  13O    basis set group =>   3
Atom  14C    basis set group =>   1
Atom  15C    basis set group =>   1
Atom  16C    basis set group =>   1
Atom  17C    basis set group =>   1
Atom  18N    basis set group =>   4
Atom  19C    basis set group =>   1
Atom  20N    basis set group =>   4
Atom  21C    basis set group =>   1
Atom  22C    basis set group =>   1
Atom  23C    basis set group =>   1
Atom  24C    basis set group =>   1
Atom  25O    basis set group =>   3
Atom  26C    basis set group =>   1
Atom  27F    basis set group =>   2
Atom  28F    basis set group =>   2
Atom  29F    basis set group =>   2
Atom  30S    basis set group =>   5
Atom  31C    basis set group =>   1
Atom  32C    basis set group =>   1
Atom  33C    basis set group =>   1
Atom  34C    basis set group =>   1
Atom  35C    basis set group =>   1
Atom  36N    basis set group =>   4
Atom  37C    basis set group =>   1
Atom  38C    basis set group =>   1
Atom  39C    basis set group =>   1
Atom  40O    basis set group =>   3
Atom  41C    basis set group =>   1
Atom  42C    basis set group =>   1
Atom  43C    basis set group =>   1
Atom  44O    basis set group =>   3
Atom  45N    basis set group =>   4
Atom  46C    basis set group =>   1
Atom  47C    basis set group =>   1
Atom  48C    basis set group =>   1
Atom  49C    basis set group =>   1
Atom  50C    basis set group =>   1
Atom  51C    basis set group =>   1
Atom  52C    basis set group =>   1
Atom  53C    basis set group =>   1
Atom  54C    basis set group =>   1
Atom  55C    basis set group =>   1
Atom  56O    basis set group =>   3
Atom  57N    basis set group =>   4
Atom  58C    basis set group =>   1
Atom  59O    basis set group =>   3
Atom  60C    basis set group =>   1
Atom  61C    basis set group =>   1
Atom  62C    basis set group =>   1
Atom  63C    basis set group =>   1
Atom  64C    basis set group =>   1
Atom  65C    basis set group =>   1
Atom  66C    basis set group =>   1
Atom  67C    basis set group =>   1
Atom  68C    basis set group =>   1
Atom  69O    basis set group =>   3
Atom  70C    basis set group =>   1
Atom  71C    basis set group =>   1
Atom  72C    basis set group =>   1
Atom  73C    basis set group =>   1
Atom  74C    basis set group =>   1
Atom  75C    basis set group =>   1
Atom  76C    basis set group =>   1
Atom  77C    basis set group =>   1
Atom  78F    basis set group =>   2
Atom  79F    basis set group =>   2
Atom  80C    basis set group =>   1
Atom  81C    basis set group =>   1
Atom  82C    basis set group =>   1
Atom  83C    basis set group =>   1
Atom  84C    basis set group =>   1
Atom  85N    basis set group =>   4
Atom  86C    basis set group =>   1
Atom  87N    basis set group =>   4
Atom  88H    basis set group =>   6
Atom  89H    basis set group =>   6
Atom  90H    basis set group =>   6
Atom  91H    basis set group =>   6
Atom  92H    basis set group =>   6
Atom  93H    basis set group =>   6
Atom  94H    basis set group =>   6
Atom  95H    basis set group =>   6
Atom  96H    basis set group =>   6
Atom  97H    basis set group =>   6
Atom  98H    basis set group =>   6
Atom  99H    basis set group =>   6
Atom 100H    basis set group =>   6
Atom 101H    basis set group =>   6
Atom 102H    basis set group =>   6
Atom 103H    basis set group =>   6
Atom 104H    basis set group =>   6
Atom 105H    basis set group =>   6
Atom 106H    basis set group =>   6
Atom 107H    basis set group =>   6
Atom 108H    basis set group =>   6
Atom 109H    basis set group =>   6
Atom 110H    basis set group =>   6
Atom 111H    basis set group =>   6
Atom 112H    basis set group =>   6
Atom 113H    basis set group =>   6
Atom 114H    basis set group =>   6
Atom 115H    basis set group =>   6
Atom 116H    basis set group =>   6
Atom 117H    basis set group =>   6
Atom 118H    basis set group =>   6
Atom 119H    basis set group =>   6
Atom 120H    basis set group =>   6
Atom 121H    basis set group =>   6


           ************************************************************
           *        Program running with 6 parallel MPI-processes     *
           *              working on a common directory               *
           ************************************************************
------------------------------------------------------------------------------
                           ORCA GTO INTEGRAL CALCULATION
                           -- RI-GTO INTEGRALS CHOSEN --
------------------------------------------------------------------------------

                         BASIS SET STATISTICS AND STARTUP INFO

Gaussian basis set:
 # of primitive gaussian shells          ... 1232
 # of primitive gaussian functions       ... 2362
 # of contracted shells                  ...  632
 # of contracted basis functions         ... 1406
 Highest angular momentum                ...    2
 Maximum contraction depth               ...    5
Auxiliary gaussian basis set:
 # of primitive gaussian shells          ... 2387
 # of primitive gaussian functions       ... 6711
 # of contracted shells                  ... 1492
 # of contracted aux-basis functions     ... 4688
 Highest angular momentum                ...    4
 Maximum contraction depth               ...    7
Ratio of auxiliary to basis functions    ...  3.33
Integral package used                  ... LIBINT
 One Electron integrals                  ... done
 Ordering auxiliary basis shells         ... done
 Integral threshhold             Thresh  ...  2.500e-11
 Primitive cut-off               TCut    ...  2.500e-12
 Pre-screening matrix                    ... done
 Shell pair data                         ... 
 Ordering of the shell pairs             ... done (   0.016 sec) 77164 of 200028 pairs
 Determination of significant pairs      ... done (   0.000 sec)
 Creation of shell pair data             ... done (   0.009 sec)
 Storage of shell pair data              ... done (   0.015 sec)
 Shell pair data done in (   0.041 sec)
 Computing two index integrals           ... done
 Cholesky decomposition of the V-matrix  ... done


Timings:
 Total evaluation time                   ...   3.351 sec (  0.056 min)
 One electron matrix time                ...   1.039 sec (  0.017 min) = 31.0%
 Schwartz matrix evaluation time         ...   0.870 sec (  0.014 min) = 26.0%
 Two index repulsion integral time       ...   0.524 sec (  0.009 min) = 15.6%
 Cholesky decomposition of V             ...   0.860 sec (  0.014 min) = 25.7%
 Three index repulsion integral time     ...   0.000 sec (  0.000 min) =  0.0%



           ************************************************************
           *        Program running with 6 parallel MPI-processes     *
           *              working on a common directory               *
           ************************************************************
-------------------------------------------------------------------------------
                                 ORCA SCF
-------------------------------------------------------------------------------

------------
SCF SETTINGS
------------
Hamiltonian:
 Density Functional     Method          .... DFT(GTOs)
 Exchange Functional    Exchange        .... WB88
 Correlation Functional Correlation     .... LYP
 LDA part of GGA corr.  LDAOpt          .... VWN-5
 Gradients option       PostSCFGGA      .... off
 Hybrid DFT is turned on
   Fraction HF Exchange ScalHFX         ....  0.190000
   Scaling of DF-GGA-X  ScalDFX         ....  0.350000
   Scaling of DF-GGA-C  ScalDFC         ....  0.810000
   Scaling of DF-LDA-C  ScalLDAC        ....  1.000000
   Perturbative correction              ....  0.000000
   Density functional embedding theory  .... OFF
 Long-range corrected/Screened/Range-Separated Hybrid DFT is turned on
   Amount of maximum screened exact exchange              ....  0.460000
   Range separation parameter mu (erf(mu*r12)/r12)        ....  0.330000
 RI-approximation to the Coulomb term is turned on
   Number of auxiliary basis functions  .... 4688
   RIJ-COSX (HFX calculated with COS-X)).... on


General Settings:
 Integral files         IntName         .... xtbopt
 Hartree-Fock type      HFTyp           .... RHF
 Total Charge           Charge          ....    0
 Multiplicity           Mult            ....    1
 Number of Electrons    NEL             ....  614
 Basis Dimension        Dim             .... 1406
 Nuclear Repulsion      ENuc            ....  15705.8445411843 Eh

Convergence Acceleration:
 DIIS                   CNVDIIS         .... on
   Start iteration      DIISMaxIt       ....    12
   Startup error        DIISStart       ....  0.200000
   # of expansion vecs  DIISMaxEq       ....     5
   Bias factor          DIISBfac        ....   1.050
   Max. coefficient     DIISMaxC        ....  10.000
 Newton-Raphson         CNVNR           .... off
 SOSCF                  CNVSOSCF        .... on
   Start iteration      SOSCFMaxIt      ....   150
   Startup grad/error   SOSCFStart      ....  0.003300
 Level Shifting         CNVShift        .... on
   Level shift para.    LevelShift      ....    0.2500
   Turn off err/grad.   ShiftErr        ....    0.0010
 Zerner damping         CNVZerner       .... off
 Static damping         CNVDamp         .... on
   Fraction old density DampFac         ....    0.7000
   Max. Damping (<1)    DampMax         ....    0.9800
   Min. Damping (>=0)   DampMin         ....    0.0000
   Turn off err/grad.   DampErr         ....    0.1000
 Fernandez-Rico         CNVRico         .... off

SCF Procedure:
 Maximum # iterations   MaxIter         ....   125
 SCF integral mode      SCFMode         .... Direct
   Integral package                     .... LIBINT
 Reset frequency        DirectResetFreq ....    20
 Integral Threshold     Thresh          ....  2.500e-11 Eh
 Primitive CutOff       TCut            ....  2.500e-12 Eh

Convergence Tolerance:
 Convergence Check Mode ConvCheckMode   .... Total+1el-Energy
 Convergence forced     ConvForced      .... 1
 Energy Change          TolE            ....  1.000e-08 Eh
 1-El. energy change                    ....  1.000e-05 Eh
 Orbital Gradient       TolG            ....  1.000e-05
 Orbital Rotation angle TolX            ....  1.000e-05
 DIIS Error             TolErr          ....  5.000e-07


Diagonalization of the overlap matrix:
Smallest eigenvalue                        ... 1.726e-04
Time for diagonalization                   ...    0.310 sec
Threshold for overlap eigenvalues          ... 1.000e-08
Number of eigenvalues below threshold      ... 0
Time for construction of square roots      ...    0.226 sec
Total time needed                          ...    0.541 sec

-------------------
DFT GRID GENERATION
-------------------

General Integration Accuracy     IntAcc      ...  4.670
Radial Grid Type                 RadialGrid  ... Gauss-Chebyshev
Angular Grid (max. acc.)         AngularGrid ... Lebedev-302
Angular grid pruning method      GridPruning ... 3 (G Style)
Weight generation scheme         WeightScheme... Becke
Basis function cutoff            BFCut       ...    1.0000e-11
Integration weight cutoff        WCut        ...    1.0000e-14
Grids for H and He will be reduced by one unit

# of grid points (after initial pruning)     ... 663106 (   0.0 sec)
# of grid points (after weights+screening)   ... 552049 (   8.5 sec)
nearest neighbour list constructed           ...    0.0 sec
Grid point re-assignment to atoms done       ...    0.1 sec
Grid point division into batches done        ...    1.9 sec
Reduced shell lists constructed in    3.7 sec

Total number of grid points                  ...   552049
Total number of batches                      ...     8692
Average number of points per batch           ...       63
Average number of grid points per atom       ...     4525
Average number of shells per batch           ...   144.61 (22.88%)
Average number of basis functions per batch  ...   295.72 (21.03%)
Average number of large shells per batch     ...    77.19 (53.38%)
Average number of large basis fcns per batch ...   162.66 (55.01%)
Maximum spatial batch extension              ...  16.27, 18.18, 18.20 au
Average spatial batch extension              ...   0.30,  0.29,  0.30 au

Time for grid setup =   12.650 sec

------------------------------
INITIAL GUESS: MODEL POTENTIAL
------------------------------
Loading Hartree-Fock densities                     ... done
Calculating cut-offs                               ... done
Setting up the integral package                    ... done
Initializing the effective Hamiltonian             ... done
Starting the Coulomb interaction                   ... done (   2.7 sec)
Reading the grid                                   ... done
Mapping shells                                     ... done
Starting the XC term evaluation                    ... done (   1.9 sec)
  promolecular density results
     # of electrons  =    613.981257995
     EX              =   -545.628447115
     EC              =    -21.042366786
     EX+EC           =   -566.670813901
Transforming the Hamiltonian                       ... done (   0.1 sec)
Diagonalizing the Hamiltonian                      ... done (   0.3 sec)
Back transforming the eigenvectors                 ... done (   0.1 sec)
Now organizing SCF variables                       ... done
                      ------------------
                      INITIAL GUESS DONE (  18.0 sec)
                      ------------------
--------------------
COSX GRID GENERATION
--------------------

General Integration Accuracy     IntAcc      ...  3.340
Radial Grid Type                 RadialGrid  ... Gauss-Chebyshev
Angular Grid (max. acc.)         AngularGrid ... Lebedev-50
Angular grid pruning method      GridPruning ... 3 (G Style)
Weight generation scheme         WeightScheme... Becke
Basis function cutoff            BFCut       ...    1.0000e-11
Integration weight cutoff        WCut        ...    1.0000e-14
Grids for H and He will be reduced by one unit

# of grid points (after initial pruning)     ...  61948 (   0.0 sec)
# of grid points (after weights+screening)   ...  54335 (   0.8 sec)
nearest neighbour list constructed           ...    0.0 sec
Grid point re-assignment to atoms done       ...    0.0 sec
Grid point division into batches done        ...    0.0 sec
Reduced shell lists constructed in    0.3 sec

Total number of grid points                  ...    54335
Total number of batches                      ...      920
Average number of points per batch           ...       59
Average number of grid points per atom       ...      445
Average number of shells per batch           ...   177.50 (28.08%)
Average number of basis functions per batch  ...   366.48 (26.07%)
Average number of large shells per batch     ...    94.40 (53.18%)
Average number of large basis fcns per batch ...   201.08 (54.87%)
Maximum spatial batch extension              ...  15.99, 15.23, 16.14 au
Average spatial batch extension              ...   0.66,  0.57,  0.66 au

Overlap Fitting                  UseSFitting ... on
Constructing numerical overlap ... done (      0.2 sec)
Inverting numerical overlap    ... done (      0.1 sec)
Obtaining analytic overlap     ... done (      0.0 sec)
Final contraction and storage  ... done (      0.1 sec)


General Integration Accuracy     IntAcc      ...  3.670
Radial Grid Type                 RadialGrid  ... Gauss-Chebyshev
Angular Grid (max. acc.)         AngularGrid ... Lebedev-50
Angular grid pruning method      GridPruning ... 3 (G Style)
Weight generation scheme         WeightScheme... Becke
Basis function cutoff            BFCut       ...    1.0000e-11
Integration weight cutoff        WCut        ...    1.0000e-14
Grids for H and He will be reduced by one unit

# of grid points (after initial pruning)     ...  77284 (   0.0 sec)
# of grid points (after weights+screening)   ...  67441 (   1.0 sec)
nearest neighbour list constructed           ...    0.0 sec
Grid point re-assignment to atoms done       ...    0.0 sec
Grid point division into batches done        ...    0.0 sec
Reduced shell lists constructed in    0.3 sec

Total number of grid points                  ...    67441
Total number of batches                      ...     1111
Average number of points per batch           ...       60
Average number of grid points per atom       ...      553
Average number of shells per batch           ...   172.91 (27.36%)
Average number of basis functions per batch  ...   356.80 (25.38%)
Average number of large shells per batch     ...    91.65 (53.00%)
Average number of large basis fcns per batch ...   194.79 (54.59%)
Maximum spatial batch extension              ...  16.55, 16.33, 18.86 au
Average spatial batch extension              ...   0.61,  0.53,  0.63 au

Overlap Fitting                  UseSFitting ... on
Constructing numerical overlap ... done (      0.2 sec)
Inverting numerical overlap    ... done (      0.1 sec)
Obtaining analytic overlap     ... done (      0.0 sec)
Final contraction and storage  ... done (      0.1 sec)


General Integration Accuracy     IntAcc      ...  4.010
Radial Grid Type                 RadialGrid  ... Gauss-Chebyshev
Angular Grid (max. acc.)         AngularGrid ... Lebedev-110
Angular grid pruning method      GridPruning ... 3 (G Style)
Weight generation scheme         WeightScheme... Becke
Basis function cutoff            BFCut       ...    1.0000e-11
Integration weight cutoff        WCut        ...    1.0000e-14
Grids for H and He will be reduced by one unit

# of grid points (after initial pruning)     ... 151584 (   0.0 sec)
# of grid points (after weights+screening)   ... 130713 (   2.0 sec)
nearest neighbour list constructed           ...    0.0 sec
Grid point re-assignment to atoms done       ...    0.0 sec
Grid point division into batches done        ...    0.1 sec
Reduced shell lists constructed in    0.6 sec

Total number of grid points                  ...   130713
Total number of batches                      ...     2105
Average number of points per batch           ...       62
Average number of grid points per atom       ...     1071
Average number of shells per batch           ...   163.27 (25.83%)
Average number of basis functions per batch  ...   336.27 (23.92%)
Average number of large shells per batch     ...    87.77 (53.75%)
Average number of large basis fcns per batch ...   186.01 (55.32%)
Maximum spatial batch extension              ...  19.21, 17.75, 18.82 au
Average spatial batch extension              ...   0.52,  0.47,  0.52 au

Overlap Fitting                  UseSFitting ... on
Constructing numerical overlap ... done (      0.3 sec)
Inverting numerical overlap    ... done (      0.1 sec)
Obtaining analytic overlap     ... done (      0.0 sec)
Final contraction and storage  ... done (      0.1 sec)

Time for X-Grid setup             =    6.452 sec
--------------
SCF ITERATIONS
--------------
ITER       Energy         Delta-E        Max-DP      RMS-DP      [F,P]     Damp
               ***  Starting incremental Fock matrix formation  ***
  0  -4535.6441141977   0.000000000000 0.08974673  0.00094809  0.2372544 0.7000
  1  -4536.3605282308  -0.716414033102 0.06259752  0.00065877  0.1075394 0.7000
                               ***Turning on DIIS***
  2  -4536.6546183899  -0.294090159161 0.10098194  0.00115758  0.0433070 0.0000
  3  -4537.1653540825  -0.510735692589 0.05897985  0.00046705  0.0568257 0.0000
  4  -4537.2447788769  -0.079424794394 0.01607133  0.00013714  0.0250085 0.0000
  5  -4537.2521216056  -0.007342728704 0.00597544  0.00005271  0.0054054 0.0000
                      *** Initiating the SOSCF procedure ***
                           *** Shutting down DIIS ***
                      *** Re-Reading the Fockian *** 
                      *** Removing any level shift *** 
ITER      Energy       Delta-E        Grad      Rot      Max-DP    RMS-DP
  6  -4537.25296831  -0.0008467082  0.001815  0.001815  0.002695  0.000027
               *** Restarting incremental Fock matrix formation ***
  7  -4537.25326788  -0.0002995645  0.001588  0.012249  0.002635  0.000030
  8  -4537.25348540  -0.0002175247  0.000558  0.014823  0.003054  0.000041
  9  -4537.25348594  -0.0000005359  0.000763  0.004328  0.001977  0.000017
 10  -4537.25356525  -0.0000793103  0.000104  0.000654  0.000652  0.000006
 11  -4537.25356346   0.0000017898  0.000120  0.000884  0.000426  0.000004
 12  -4537.25356860  -0.0000051410  0.000017  0.000249  0.000123  0.000001
 13  -4537.25356862  -0.0000000172  0.000022  0.000039  0.000068  0.000001
 14  -4537.25356881  -0.0000001916  0.000011  0.000045  0.000037  0.000000
 15  -4537.25356886  -0.0000000551  0.000018  0.000025  0.000020  0.000000
 16  -4537.25356884   0.0000000226  0.000003  0.000014  0.000008  0.000000
 17  -4537.25356880   0.0000000398  0.000003  0.000004  0.000008  0.000000
                  ***Gradient check signals convergence***
              ***Rediagonalizing the Fockian in SOSCF/NRSCF***

               *****************************************************
               *                     SUCCESS                       *
               *           SCF CONVERGED AFTER  18 CYCLES          *
               *****************************************************

Setting up the final grid:

General Integration Accuracy     IntAcc      ...  5.010
Radial Grid Type                 RadialGrid  ... Gauss-Chebyshev
Angular Grid (max. acc.)         AngularGrid ... Lebedev-434
Angular grid pruning method      GridPruning ... 3 (G Style)
Weight generation scheme         WeightScheme... Becke
Basis function cutoff            BFCut       ...    1.0000e-11
Integration weight cutoff        WCut        ...    1.0000e-14
Grids for H and He will be reduced by one unit

# of grid points (after initial pruning)     ... 1171086 (   0.1 sec)
# of grid points (after weights+screening)   ... 971288 (  14.7 sec)
nearest neighbour list constructed           ...    0.0 sec
Grid point re-assignment to atoms done       ...    0.1 sec
Grid point division into batches done        ...    6.1 sec
Reduced shell lists constructed in    9.3 sec

Total number of grid points                  ...   971288
Total number of batches                      ...    15236
Average number of points per batch           ...       63
Average number of grid points per atom       ...     7961
Average number of shells per batch           ...   139.34 (22.05%)
Average number of basis functions per batch  ...   284.03 (20.20%)
Average number of large shells per batch     ...    74.07 (53.16%)
Average number of large basis fcns per batch ...   155.80 (54.85%)
Maximum spatial batch extension              ...  18.24, 14.43, 19.82 au
Average spatial batch extension              ...   0.25,  0.24,  0.25 au

Final grid set up in   24.7 sec
Final integration                            ... done (   5.8 sec)
Change in XC energy                          ...    -0.000070377
Integrated number of electrons               ...   614.000312990
Previous integrated no of electrons          ...   613.998917409
Old exchange energy                            =   -153.450062657 Eh
New exchange energy                            =   -153.449411910 Eh
Exchange energy change after final integration =      0.000650748 Eh
Total energy after final integration           =  -4537.252988436 Eh
Final COS-X integration done in                =   118.208 sec

----------------
TOTAL SCF ENERGY
----------------

Total Energy       :        -4537.25298844 Eh         -123464.93065 eV

Components:
Nuclear Repulsion  :        15705.84454118 Eh          427377.75743 eV
Electronic Energy  :       -20243.09752962 Eh         -550842.68808 eV
One Electron Energy:       -37509.67617962 Eh        -1020690.17973 eV
Two Electron Energy:        17266.57865000 Eh          469847.49165 eV

Virial components:
Potential Energy   :        -9037.96387881 Eh         -245935.50026 eV
Kinetic Energy     :         4500.71089038 Eh          122470.56961 eV
Virial Ratio       :            2.00811918


DFT components:
N(Alpha)           :      307.000156494915 electrons
N(Beta)            :      307.000156494915 electrons
N(Total)           :      614.000312989829 electrons
E(XC)              :     -422.927390135198 Eh       
DFET-embed. en.    :        0.000000000000 Eh       

---------------
SCF CONVERGENCE
---------------

  Last Energy change         ...   -5.0077e-09  Tolerance :   1.0000e-08
  Last MAX-Density change    ...    7.5495e-15  Tolerance :   1.0000e-07
  Last RMS-Density change    ...    3.3282e-17  Tolerance :   5.0000e-09
  Last Orbital Gradient      ...    3.9539e-07  Tolerance :   1.0000e-05
  Last Orbital Rotation      ...    3.5235e-06  Tolerance :   1.0000e-05

             **** THE GBW FILE WAS UPDATED (xtbopt.gbw) ****
             **** DENSITY FILE WAS UPDATED (xtbopt.scfp) ****
             **** ENERGY FILE WAS UPDATED (xtbopt.en.tmp) ****
             **** THE GBW FILE WAS UPDATED (xtbopt.gbw) ****
             **** DENSITY FILE WAS UPDATED (xtbopt.scfp) ****
----------------
ORBITAL ENERGIES
----------------

  NO   OCC          E(Eh)            E(eV) 
   0   2.0000     -88.990475     -2421.5539 
   1   2.0000     -24.811428      -675.1533 
   2   2.0000     -24.811173      -675.1463 
   3   2.0000     -24.806907      -675.0303 
   4   2.0000     -24.806664      -675.0237 
   5   2.0000     -24.806391      -675.0162 
   6   2.0000     -24.801523      -674.8837 
   7   2.0000     -24.800520      -674.8565 
   8   2.0000     -19.241636      -523.5915 
   9   2.0000     -19.225143      -523.1427 
  10   2.0000     -19.222237      -523.0637 
  11   2.0000     -19.216244      -522.9006 
  12   2.0000     -19.216160      -522.8983 
  13   2.0000     -19.193808      -522.2901 
  14   2.0000     -19.191738      -522.2337 
  15   2.0000     -14.457608      -393.4115 
  16   2.0000     -14.454536      -393.3279 
  17   2.0000     -14.452749      -393.2793 
  18   2.0000     -14.434696      -392.7880 
  19   2.0000     -14.429041      -392.6342 
  20   2.0000     -14.414595      -392.2411 
  21   2.0000     -14.411400      -392.1541 
  22   2.0000     -10.522318      -286.3268 
  23   2.0000     -10.396325      -282.8984 
  24   2.0000     -10.396171      -282.8942 
  25   2.0000     -10.395714      -282.8818 
  26   2.0000     -10.385596      -282.6064 
  27   2.0000     -10.384801      -282.5848 
  28   2.0000     -10.383773      -282.5568 
  29   2.0000     -10.383557      -282.5510 
  30   2.0000     -10.377746      -282.3928 
  31   2.0000     -10.374830      -282.3135 
  32   2.0000     -10.374105      -282.2937 
  33   2.0000     -10.371046      -282.2105 
  34   2.0000     -10.357488      -281.8416 
  35   2.0000     -10.353565      -281.7348 
  36   2.0000     -10.343140      -281.4511 
  37   2.0000     -10.341310      -281.4013 
  38   2.0000     -10.337124      -281.2874 
  39   2.0000     -10.336751      -281.2773 
  40   2.0000     -10.332138      -281.1518 
  41   2.0000     -10.330250      -281.1004 
  42   2.0000     -10.328220      -281.0452 
  43   2.0000     -10.326879      -281.0087 
  44   2.0000     -10.324584      -280.9462 
  45   2.0000     -10.319504      -280.8080 
  46   2.0000     -10.318509      -280.7809 
  47   2.0000     -10.316630      -280.7298 
  48   2.0000     -10.316480      -280.7257 
  49   2.0000     -10.316377      -280.7229 
  50   2.0000     -10.315499      -280.6990 
  51   2.0000     -10.315325      -280.6943 
  52   2.0000     -10.315079      -280.6876 
  53   2.0000     -10.314640      -280.6756 
  54   2.0000     -10.313379      -280.6413 
  55   2.0000     -10.311225      -280.5827 
  56   2.0000     -10.310935      -280.5748 
  57   2.0000     -10.310024      -280.5500 
  58   2.0000     -10.309564      -280.5375 
  59   2.0000     -10.309456      -280.5346 
  60   2.0000     -10.309442      -280.5342 
  61   2.0000     -10.309202      -280.5276 
  62   2.0000     -10.308845      -280.5179 
  63   2.0000     -10.306781      -280.4618 
  64   2.0000     -10.306045      -280.4417 
  65   2.0000     -10.305752      -280.4338 
  66   2.0000     -10.305495      -280.4268 
  67   2.0000     -10.304950      -280.4120 
  68   2.0000     -10.304195      -280.3914 
  69   2.0000     -10.304174      -280.3908 
  70   2.0000     -10.304132      -280.3897 
  71   2.0000     -10.303824      -280.3813 
  72   2.0000     -10.303086      -280.3612 
  73   2.0000     -10.302342      -280.3410 
  74   2.0000     -10.302205      -280.3373 
  75   2.0000     -10.302019      -280.3322 
  76   2.0000     -10.301544      -280.3193 
  77   2.0000     -10.299743      -280.2702 
  78   2.0000     -10.297575      -280.2113 
  79   2.0000     -10.296892      -280.1927 
  80   2.0000     -10.293605      -280.1032 
  81   2.0000     -10.292971      -280.0860 
  82   2.0000     -10.291047      -280.0336 
  83   2.0000     -10.262373      -279.2534 
  84   2.0000     -10.261989      -279.2429 
  85   2.0000     -10.260431      -279.2005 
[...]
  67   4.919     252.0   0.038435   0.033441  -55.838840  -46.572535     0.19 (  99-> 117)    0.14 ( 107-> 119)    0.11 ( 107-> 118)
  68   4.933     251.3   0.028687   0.024457  87.142757  78.254861     0.19 ( 115-> 122)    0.12 ( 111-> 120)    0.07 ( 111-> 121)
  69   4.942     250.9   0.017062   0.014059  -32.083124  -28.879438     0.24 ( 106-> 121)    0.11 ( 101-> 121)    0.07 ( 106-> 120)

-----------------------------------------------------------------------------
         ABSORPTION SPECTRUM VIA TRANSITION ELECTRIC DIPOLE MOMENTS
-----------------------------------------------------------------------------
State   Energy  Wavelength   fosc         T2         TX        TY        TZ  
        (cm-1)    (nm)                  (au**2)     (au)      (au)      (au) 
-----------------------------------------------------------------------------
   0   12419.4    805.2   0.156508754   4.14870  -1.19659   0.91123   1.37352
   1   14564.9    686.6   0.023969175   0.54178  -0.52754   0.41834  -0.29744
   2   17929.0    557.8   0.260042544   4.77488  -1.62140   1.46220  -0.08897
   3   21325.7    468.9   0.071658153   1.10621   0.42569  -0.93769  -0.21386
   4   22143.2    451.6   0.051621354   0.76748   0.49795  -0.70047   0.16990
   5   24108.0    414.8   0.436197933   5.95659   1.60414  -0.29997   1.81475
   6   25460.7    392.8   0.095491362   1.23472   0.80519   0.08731   0.76076
   7   25851.5    386.8   0.130221223   1.65833  -0.38767   1.22685   0.05358
   8   25881.2    386.4   0.043935445   0.55886  -0.04478  -0.40079  -0.62947
   9   26051.4    383.9   0.005091416   0.06434   0.05075   0.18688   0.16383
  10   26528.5    377.0   0.004953922   0.06148  -0.00799  -0.17227  -0.17815
  11   26963.2    370.9   0.063025636   0.76952  -0.14565  -0.60782  -0.61552
  12   27666.8    361.4   0.074442058   0.88580   0.27236  -0.05574  -0.89917
  13   27965.3    357.6   0.021423033   0.25220  -0.28556   0.27582   0.30754
  14   28517.1    350.7   0.029946989   0.34572   0.47365  -0.08741  -0.33725
  15   28836.8    346.8   0.068740492   0.78477   0.59199   0.08446   0.65359
  16   29193.9    342.5   0.044352018   0.50015  -0.46902   0.13708   0.51125
  17   29374.8    340.4   0.039514104   0.44285  -0.35048  -0.24935   0.50778
  18   29497.9    339.0   0.041419929   0.46227  -0.05420   0.41850   0.53309
  19   30033.2    333.0   0.135968647   1.49044  -1.19807  -0.03824   0.23151
  20   30168.4    331.5   0.020409371   0.22272  -0.24879  -0.08233  -0.39248
  21   30250.9    330.6   0.086524015   0.94162  -0.34024  -0.54743  -0.72538
  22   30527.3    327.6   0.036867425   0.39758   0.32254  -0.07387   0.53675
  23   30838.3    324.3   0.311168399   3.32185   1.32495  -1.21919  -0.28276
  24   31492.8    317.5   0.074721579   0.78111   0.67675   0.05730  -0.56554
  25   31553.1    316.9   0.016045428   0.16741   0.00858  -0.22563  -0.34122
  26   32055.9    312.0   0.030394565   0.31215   0.32728  -0.15663   0.42486
  27   32090.0    311.6   0.039441021   0.40463  -0.02860   0.47037  -0.42727
  28   32358.4    309.0   0.047739315   0.48570   0.56150   0.20218  -0.35991
  29   32544.9    307.3   0.048936720   0.49502  -0.54718   0.41977   0.13934
  30   32703.2    305.8   0.371947756   3.74428   0.37636   0.57833   1.80781
  31   32807.7    304.8   0.135379040   1.35847   0.44007   0.43286   0.98866
  32   33054.1    302.5   0.192580925   1.91806   0.04641  -0.27303   1.35697
  33   33332.2    300.0   0.026771066   0.26441  -0.15053  -0.33583  -0.35913
  34   33543.4    298.1   0.463722545   4.55121   1.81287  -0.15517  -1.11384
  35   33585.5    297.7   0.038129888   0.37376   0.37702   0.04532  -0.47912
  36   33718.3    296.6   0.190533691   1.86030   0.11212   0.32633   1.31956
  37   33885.6    295.1   0.121882785   1.18414  -0.42419   0.14196  -0.99199
  38   33965.0    294.4   0.633328263   6.13865  -1.52274   0.84790   1.76096
  39   34199.1    292.4   0.009993930   0.09620   0.03968   0.17580  -0.25244
  40   34420.4    290.5   0.188503557   1.80293  -0.29307  -0.37774   1.25473
  41   34564.3    289.3   0.033726907   0.32124   0.34057  -0.19514  -0.40886
  42   34911.5    286.4   0.032085340   0.30256   0.11266  -0.31603   0.43589
  43   35096.9    284.9   0.068818665   0.64553   0.63655  -0.15488  -0.46513
  44   35457.1    282.0   0.037856945   0.35149  -0.03770  -0.51861   0.28480
  45   35549.3    281.3   0.029630441   0.27440  -0.20374  -0.25662  -0.40870
  46   35786.9    279.4   0.252207294   2.32011   1.49966   0.11653   0.23991
  47   36021.2    277.6   0.021598678   0.19740  -0.15956  -0.37449   0.17803
  48   36222.9    276.1   0.076185078   0.69241   0.49447   0.52404   0.41628
  49   36543.8    273.6   0.142335741   1.28226   1.01973  -0.46387  -0.16505
  50   36570.6    273.4   0.022193034   0.19978   0.00568   0.43325   0.10974
  51   36781.0    271.9   0.161807182   1.44827  -1.14814   0.28330  -0.22315
  52   36996.3    270.3   0.018194699   0.16191   0.27296  -0.28634  -0.07356
  53   37099.4    269.5   0.078994572   0.70098  -0.65350   0.40987   0.32545
  54   37176.9    269.0   0.016806275   0.14882   0.08243   0.23643   0.29348
  55   37589.5    266.0   0.002984336   0.02614   0.00723  -0.16089   0.01411
  56   37660.4    265.5   0.037390520   0.32685   0.07711  -0.49367   0.27785
  57   37805.8    264.5   0.009764909   0.08503   0.08293  -0.27849   0.02447
  58   37989.8    263.2   0.064022410   0.55481  -0.10979   0.58066   0.45342
  59   38132.2    262.2   0.023278066   0.20097   0.20977  -0.35696   0.17190
  60   38507.8    259.7   0.149661696   1.27949  -0.74768  -0.79269   0.30347
  61   38571.2    259.3   0.012477623   0.10650  -0.23906   0.16657   0.14698
  62   38681.7    258.5   0.010320019   0.08783  -0.29302  -0.00749  -0.04376
  63   38981.8    256.5   0.010903096   0.09208  -0.14534  -0.23360   0.12801
  64   39036.2    256.2   0.008231676   0.06942   0.03169   0.11592   0.23448
  65   39182.8    255.2   0.006264787   0.05264  -0.03358  -0.02318   0.22577
  66   39397.8    253.8   0.013328589   0.11137   0.08510  -0.03644   0.32063
  67   39675.9    252.0   0.038434823   0.31891  -0.44367  -0.31896  -0.14260
  68   39786.1    251.3   0.028687061   0.23737   0.10793  -0.00472   0.47508
  69   39860.0    250.9   0.017061985   0.14092   0.05516   0.06958  -0.36474

-----------------------------------------------------------------------------
         ABSORPTION SPECTRUM VIA TRANSITION VELOCITY DIPOLE MOMENTS
-----------------------------------------------------------------------------
State   Energy  Wavelength   fosc         P2         PX        PY        PZ  
        (cm-1)    (nm)                  (au**2)     (au)      (au)      (au) 
-----------------------------------------------------------------------------
   0   12419.4    805.2   0.229533146   0.01948  -0.08020   0.06279   0.09544
   1   14564.9    686.6   0.033164821   0.00330  -0.03943   0.03607  -0.02110
   2   17929.0    557.8   0.326057013   0.03995  -0.14528   0.13709  -0.00725
   3   21325.7    468.9   0.081183035   0.01183   0.04403  -0.09676  -0.02307
   4   22143.2    451.6   0.057046297   0.00863   0.04927  -0.07692   0.01701
   5   24108.0    414.8   0.453528761   0.07473   0.17931  -0.03468   0.20340
   6   25460.7    392.8   0.091185075   0.01587   0.09176   0.00889   0.08584
   7   25851.5    386.8   0.133739499   0.02363  -0.04451   0.14706   0.00461
   8   25881.2    386.4   0.043976875   0.00778  -0.00612  -0.04622  -0.07487
   9   26051.4    383.9   0.005527514   0.00098   0.00521   0.02213   0.02162
  10   26528.5    377.0   0.005080013   0.00092   0.00241  -0.01842  -0.02400
  11   26963.2    370.9   0.064489108   0.01188  -0.01805  -0.07549  -0.07655
  12   27666.8    361.4   0.072158501   0.01364   0.03594  -0.00400  -0.11107
  13   27965.3    357.6   0.018971278   0.00363  -0.03577   0.03424   0.03426
  14   28517.1    350.7   0.029644168   0.00578   0.06119  -0.01024  -0.04391
  15   28836.8    346.8   0.067309290   0.01327   0.07539   0.01139   0.08633
  16   29193.9    342.5   0.039669790   0.00792  -0.05970   0.01674   0.06380
  17   29374.8    340.4   0.038837563   0.00780  -0.04746  -0.03445   0.06601
  18   29497.9    339.0   0.038236903   0.00771  -0.01143   0.05263   0.06934
  19   30033.2    333.0   0.130146625   0.02671  -0.15997  -0.00920   0.03221
  20   30168.4    331.5   0.018609929   0.00384  -0.03157  -0.01085  -0.05218
  21   30250.9    330.6   0.085483128   0.01767  -0.04455  -0.07491  -0.10038
  22   30527.3    327.6   0.034752460   0.00725   0.04140  -0.01207   0.07342
  23   30838.3    324.3   0.283400299   0.05973   0.17573  -0.16519  -0.03950
  24   31492.8    317.5   0.071942934   0.01548   0.09489   0.00766  -0.08014
  25   31553.1    316.9   0.014710596   0.00317  -0.00109  -0.03267  -0.04587
  26   32055.9    312.0   0.026746760   0.00586   0.04098  -0.02426   0.05994
  27   32090.0    311.6   0.038211090   0.00838  -0.00193   0.06891  -0.06024
  28   32358.4    309.0   0.047222405   0.01044   0.08400   0.02994  -0.04990
  29   32544.9    307.3   0.043606829   0.00970  -0.07550   0.06041   0.01870
  30   32703.2    305.8   0.342774395   0.07661   0.05404   0.08374   0.25823
  31   32807.7    304.8   0.124087728   0.02782   0.06160   0.06142   0.14233
  32   33054.1    302.5   0.178526052   0.04033   0.00259  -0.03881   0.19702
  33   33332.2    300.0   0.024442572   0.00557  -0.01999  -0.04746  -0.05400
  34   33543.4    298.1   0.423100074   0.09700   0.26316  -0.02313  -0.16494
  35   33585.5    297.7   0.034030059   0.00781   0.05417   0.00721  -0.06946
  36   33718.3    296.6   0.173228854   0.03992   0.01767   0.05076   0.19243
  37   33885.6    295.1   0.112589589   0.02607  -0.06395   0.02402  -0.14632
  38   33965.0    294.4   0.565074206   0.13117  -0.22087   0.12515   0.25832
  39   34199.1    292.4   0.010689888   0.00250   0.00785   0.02852  -0.04030
  40   34420.4    290.5   0.173873137   0.04090  -0.04597  -0.05334   0.18959
  41   34564.3    289.3   0.031780496   0.00751   0.05196  -0.02874  -0.06310
  42   34911.5    286.4   0.027789251   0.00663   0.01734  -0.04458   0.06590
  43   35096.9    284.9   0.061419382   0.01473   0.09528  -0.02344  -0.07145
  44   35457.1    282.0   0.035064831   0.00850  -0.00338  -0.08070   0.04443
  45   35549.3    281.3   0.024950466   0.00606  -0.03086  -0.03766  -0.06076
  46   35786.9    279.4   0.227852076   0.05573   0.23239   0.02167   0.03540
  47   36021.2    277.6   0.021276096   0.00524  -0.02588  -0.06138   0.02829
  48   36222.9    276.1   0.070905945   0.01755   0.08205   0.08345   0.06212
  49   36543.8    273.6   0.119636273   0.02988   0.15535  -0.07201  -0.02366
  50   36570.6    273.4   0.018115898   0.00453  -0.00293   0.06442   0.01922
  51   36781.0    271.9   0.137099213   0.03446  -0.17694   0.04344  -0.03564
  52   36996.3    270.3   0.017062390   0.00431   0.04455  -0.04691  -0.01136
  53   37099.4    269.5   0.067406235   0.01709  -0.10218   0.06470   0.04964
  54   37176.9    269.0   0.014495158   0.00368   0.01251   0.03692   0.04651
  55   37589.5    266.0   0.001892120   0.00049   0.00126  -0.02195   0.00160
  56   37660.4    265.5   0.033558035   0.00864   0.01198  -0.07944   0.04673
  57   37805.8    264.5   0.007953266   0.00205   0.01205  -0.04353   0.00392
  58   37989.8    263.2   0.055321838   0.01436  -0.01741   0.09339   0.07307
  59   38132.2    262.2   0.019554747   0.00510   0.03020  -0.05823   0.02817
  60   38507.8    259.7   0.125970886   0.03315  -0.12115  -0.12686   0.04880
  61   38571.2    259.3   0.010270620   0.00271  -0.03725   0.02728   0.02399
  62   38681.7    258.5   0.008717156   0.00230  -0.04706  -0.00055  -0.00946
  63   38981.8    256.5   0.009825413   0.00262  -0.02710  -0.03722   0.02232
  64   39036.2    256.2   0.006877525   0.00183   0.00419   0.01764   0.03881
  65   39182.8    255.2   0.005107370   0.00137  -0.00560  -0.00408   0.03633
  66   39397.8    253.8   0.011757276   0.00317   0.00948  -0.00781   0.05491
  67   39675.9    252.0   0.033440906   0.00907  -0.07688  -0.05216  -0.02092
  68   39786.1    251.3   0.024457383   0.00665   0.01887  -0.00187   0.07932
  69   39860.0    250.9   0.014059089   0.00383   0.00992   0.01036  -0.06020

-------------------------------------------------------------------
                             CD SPECTRUM
-------------------------------------------------------------------
State   Energy Wavelength       R         MX        MY        MZ   
        (cm-1)   (nm)       (1e40*cgs)   (au)      (au)      (au)  
-------------------------------------------------------------------
   0   12419.4    805.2    257.83849  -0.14345  -3.00369   1.07139
   1   14564.9    686.6     39.56791  -0.55866  -0.16586   1.32193
   2   17929.0    557.8    -42.61641  -1.11606  -0.97168   2.33778
   3   21325.7    468.9    -118.68298   0.52147   0.11688  -1.82880
   4   22143.2    451.6    -20.12445   0.68363  -0.08076  -1.83403
   5   24108.0    414.8    -161.12364   0.96090  -5.56058  -1.39185
   6   25460.7    392.8     -8.56756   0.45724  -1.48423  -0.26583
   7   25851.5    386.8    -249.73585  -0.75556   0.59424   0.69975
   8   25881.2    386.4     74.60182  -0.20045   1.95545  -0.72801
   9   26051.4    383.9    -17.18097   0.03901  -0.56514   1.07743
  10   26528.5    377.0      7.73512  -0.36953   0.66634  -0.44357
  11   26963.2    370.9    130.13893  -0.08771   2.06867  -1.12511
  12   27666.8    361.4     30.85502  -0.48672   1.22382  -0.07771
  13   27965.3    357.6    -34.74820  -0.15898  -0.40278   0.69294
  14   28517.1    350.7     46.06766  -0.12610   2.03360  -0.12471
  15   28836.8    346.8     -2.38863   0.27597  -1.20191  -0.07914
  16   29193.9    342.5     91.96211   0.26194  -0.75545  -0.32023
  17   29374.8    340.4    -50.68374   0.31084  -2.51996  -0.59946
  18   29497.9    339.0     28.97714   0.35674  -0.90767   0.51823
  19   30033.2    333.0     14.53165   0.28021  -2.41891   0.78422
  20   30168.4    331.5     48.79726  -0.05353   0.38258   0.48112
  21   30250.9    330.6     72.37907  -0.16622   0.44157   0.16802
  22   30527.3    327.6     81.49788   0.58825  -0.46812  -1.06204
  23   30838.3    324.3    -23.74971   0.50761   0.92820  -1.97994
  24   31492.8    317.5     36.05568  -0.33945   1.86853   0.05359
  25   31553.1    316.9     41.55596  -0.09146   1.99615  -0.80561
  26   32055.9    312.0    -15.28120   0.54666  -1.20541  -0.71291
  27   32090.0    311.6    -102.22931  -0.64309   1.57080   0.75727
  28   32358.4    309.0    -34.51920  -0.03586   1.11535   0.16374
  29   32544.9    307.3    -133.30535  -0.17017   0.92754   0.59609
  30   32703.2    305.8    189.71854   0.82135  -4.76937   0.90955
  31   32807.7    304.8    -96.86299   0.59769  -3.16917   1.53714
  32   33054.1    302.5     63.86504   1.18246  -2.16592  -0.67589
  33   33332.2    300.0     73.80140  -0.45091   2.09215  -0.89561
  34   33543.4    298.1    -264.13977  -0.07859   1.17360  -1.29743
  35   33585.5    297.7     16.81749  -0.38093   0.86240  -0.06927
  36   33718.3    296.6    -194.22000   0.47335  -3.47252   1.44294
  37   33885.6    295.1    -50.34818  -0.74871   2.71455   0.49331
  38   33965.0    294.4    -343.37616   0.34651  -4.09356   3.09791
  39   34199.1    292.4     47.33583  -0.10492   0.20470   0.92154
  40   34420.4    290.5     12.35543   0.45216  -1.95875  -0.52584
  41   34564.3    289.3    -35.16318  -0.05184   0.78116  -0.78085
  42   34911.5    286.4     44.87428   0.34095  -0.29198  -0.73655
  43   35096.9    284.9    -73.69429   0.32003   0.87676  -0.52611
  44   35457.1    282.0    -34.09907   0.20964  -0.50759  -0.38861
  45   35549.3    281.3     71.67104   0.04714   0.90548   0.15190
  46   35786.9    279.4     -5.24895   0.23133  -0.72547  -1.00082
  47   36021.2    277.6    -46.63342   0.36067  -0.95593  -0.57635
  48   36222.9    276.1     19.65641   0.41092  -1.20262   0.82552
  49   36543.8    273.6    110.79032   0.15662   1.98605  -1.76650
  50   36570.6    273.4    -45.65813  -0.21839   0.25582   0.76635
  51   36781.0    271.9     55.88723  -0.21947  -0.45617   1.61254
  52   36996.3    270.3    -17.18090   0.38482   0.35549  -0.94669
  53   37099.4    269.5     78.68197  -0.20345  -1.66591   0.66387
  54   37176.9    269.0      1.18372   0.39115  -0.61173   0.36584
  55   37589.5    266.0    -12.22149   0.11243  -0.33246  -0.17394
  56   37660.4    265.5    -60.47579   0.14133  -1.31310  -1.44889
  57   37805.8    264.5     37.85996   0.28607   0.63177  -0.34296
  58   37989.8    263.2    134.32526   0.08829  -1.17769   0.27279
  59   38132.2    262.2     19.06282  -0.05106  -0.20982  -0.84383
  60   38507.8    259.7     -1.29203  -0.90412   0.11884  -1.89907
  61   38571.2    259.3     -5.41191  -0.37556  -0.62106   0.24921
  62   38681.7    258.5    -35.23025  -0.55952   0.30937   0.27821
  63   38981.8    256.5     31.62596   0.00319   0.30582  -0.48640
  64   39036.2    256.2     20.66872   0.24950  -0.49758  -0.16167
  65   39182.8    255.2      5.75239   0.06275  -0.00775  -0.09955
  66   39397.8    253.8     -4.35208   0.52008  -1.18555  -0.21521
  67   39675.9    252.0    -55.83884  -0.09573   0.03023  -1.43097
  68   39786.1    251.3     87.14276   0.20833  -1.25577  -0.83796
  69   39860.0    250.9    -32.08312  -0.33172  -0.05092  -0.43303

sTD-DFT done

Total run time:        5.952 sec

           *** ORCA-CIS/TD-DFT FINISHED WITHOUT ERROR ***

-------------------------   --------------------
FINAL SINGLE POINT ENERGY     -4537.252988435897
-------------------------   --------------------


                            ***************************************
                            *     ORCA property calculations      *
                            ***************************************

                                    ---------------------
                                    Active property flags
                                    ---------------------
   (+) Dipole Moment


------------------------------------------------------------------------------
                       ORCA ELECTRIC PROPERTIES CALCULATION
------------------------------------------------------------------------------

Dipole Moment Calculation                       ... on
Quadrupole Moment Calculation                   ... off
Polarizability Calculation                      ... off
GBWName                                         ... xtbopt.gbw
Electron density file                           ... xtbopt.scfp
The origin for moment calculation is the CENTER OF MASS  = (-14.699790, -1.768398 -1.932728)

-------------
DIPOLE MOMENT
-------------
                                X             Y             Z
Electronic contribution:     84.66921     -20.01184      57.12103
Nuclear contribution   :    -87.33076      18.65463     -56.50837
                        -----------------------------------------
Total Dipole Moment    :     -2.66154      -1.35720       0.61266
                        -----------------------------------------
Magnitude (a.u.)       :      3.04978
Magnitude (Debye)      :      7.75193



--------------------
Rotational spectrum 
--------------------
 
Rotational constants in cm-1:     0.000797     0.000456     0.000343 
Rotational constants in MHz :    23.894505    13.656481    10.293299 

 Dipole components along the rotational axes: 
x,y,z [a.u.] :    -1.902305    -0.362879     2.355997 
x,y,z [Debye]:    -4.835274    -0.922365     5.988468 

 

Timings for individual modules:

Sum of individual times         ...     1126.658 sec (=  18.778 min)
GTO integral calculation        ...        4.106 sec (=   0.068 min)   0.4 %
SCF iterations                  ...     1115.722 sec (=  18.595 min)  99.0 %
CIS module                      ...        6.831 sec (=   0.114 min)   0.6 %
                             ****ORCA TERMINATED NORMALLY****
TOTAL RUN TIME: 0 days 0 hours 18 minutes 47 seconds 862 msec
