
                                 *****************
                                 * O   R   C   A *
                                 *****************

           --- An Ab Initio, DFT and Semiempirical electronic structure package ---

                  #######################################################
                  #                        -***-                        #
                  #          Department of theory and spectroscopy      #
                  #               Directorship: Frank Neese             #
                  #        Max Planck Institute fuer Kohlenforschung    #
                  #                Kaiser Wilhelm Platz 1               #
                  #                 D-45470 Muelheim/Ruhr               #
                  #                      Germany                        #
                  #                                                     #
                  #                  All rights reserved                #
                  #                        -***-                        #
                  #######################################################


                         Program Version 4.2.0 -  RELEASE  -


 With contributions from (in alphabetic order):
   Daniel Aravena         : Magnetic Suceptibility
   Michael Atanasov       : Ab Initio Ligand Field Theory (pilot matlab implementation)
   Alexander A. Auer      : GIAO ZORA, VPT2
   Ute Becker             : Parallelization
   Giovanni Bistoni       : ED, misc. LED, open-shell LED, HFLED
   Martin Brehm           : Molecular dynamics
   Dmytro Bykov           : SCF Hessian
   Vijay G. Chilkuri      : MRCI spin determinant printing, contributions to CSF-ICE
   Dipayan Datta          : RHF DLPNO-CCSD density
   Achintya Kumar Dutta   : EOM-CC, STEOM-CC
   Dmitry Ganyushin       : Spin-Orbit,Spin-Spin,Magnetic field MRCI
   Miquel Garcia          : C-PCM Hessian, Gaussian charge scheme
   Yang Guo               : DLPNO-NEVPT2, CIM, IAO-localization
   Andreas Hansen         : Spin unrestricted coupled pair/coupled cluster methods
   Benjamin Helmich-Paris : CASSCF linear response (MC-RPA)
   Lee Huntington         : MR-EOM, pCC
   Robert Izsak           : Overlap fitted RIJCOSX, COSX-SCS-MP3, EOM
   Christian Kollmar      : KDIIS, OOCD, Brueckner-CCSD(T), CCSD density
   Simone Kossmann        : Meta GGA functionals, TD-DFT gradient, OOMP2, MP2 Hessian
   Martin Krupicka        : AUTO-CI
   Lucas Lang             : DCDCAS
   Dagmar Lenk            : GEPOL surface, SMD
   Dimitrios Liakos       : Extrapolation schemes; Compound Job, initial MDCI parallelization
   Dimitrios Manganas     : Further ROCIS development; embedding schemes
   Dimitrios Pantazis     : SARC Basis sets
   Taras Petrenko         : DFT Hessian,TD-DFT gradient, ASA, ECA, R-Raman, ABS, FL, XAS/XES, NRVS
   Peter Pinski           : DLPNO-MP2, DLPNO-MP2 Gradient
   Christoph Reimann      : Effective Core Potentials
   Marius Retegan         : Local ZFS, SOC
   Christoph Riplinger    : Optimizer, TS searches, QM/MM, DLPNO-CCSD(T), (RO)-DLPNO pert. Triples
   Tobias Risthaus        : Range-separated hybrids, TD-DFT gradient, RPA, STAB
   Michael Roemelt        : Original ROCIS implementation
   Masaaki Saitow         : Open-shell DLPNO-CCSD energy and density
   Barbara Sandhoefer     : DKH picture change effects
   Avijit Sen             : IP-ROCIS
   Kantharuban Sivalingam : CASSCF convergence, NEVPT2, FIC-MRCI
   Bernardo de Souza      : ESD, SOC TD-DFT
   Georgi Stoychev        : AutoAux, RI-MP2 NMR
   Willem Van den Heuvel  : Paramagnetic NMR
   Boris Wezisla          : Elementary symmetry handling
   Frank Wennmohs         : Technical directorship


 We gratefully acknowledge several colleagues who have allowed us to
 interface, adapt or use parts of their codes:
   Stefan Grimme, W. Hujo, H. Kruse,             : VdW corrections, initial TS optimization,
                  C. Bannwarth                     DFT functionals, gCP, sTDA/sTD-DF
   Ed Valeev, F. Pavosevic, A. Kumar             : LibInt (2-el integral package), F12 methods
   Garnet Chan, S. Sharma, J. Yang, R. Olivares  : DMRG
   Ulf Ekstrom                                   : XCFun DFT Library
   Mihaly Kallay                                 : mrcc  (arbitrary order and MRCC methods)
   Andreas Klamt, Michael Diedenhofen            : otool_cosmo (COSMO solvation model)
   Jiri Pittner, Ondrej Demel                    : Mk-CCSD
   Frank Weinhold                                : gennbo (NPA and NBO analysis)
   Christopher J. Cramer and Donald G. Truhlar   : smd solvation model
   Lars Goerigk                                  : TD-DFT with DH, B97 family of functionals
   V. Asgeirsson, H. Jonsson                     : NEB implementation
   FAccTs GmbH                                   : IRC, NEB, NEB-TS, Multilevel, MM, QM/MM, CI optimization
   S Lehtola, MJT Oliveira, MAL Marques          : LibXC Library


 Your calculation uses the libint2 library for the computation of 2-el integrals
 For citations please refer to: http://libint.valeyev.net

 Your ORCA version has been built with support for libXC version: 4.2.3
 For citations please refer to: https://tddft.org/programs/libxc/

 This ORCA versions uses:
   CBLAS   interface :  Fast vector & matrix operations
   LAPACKE interface :  Fast linear algebra routines
   SCALAPACK package :  Parallel linear algebra routines


XCFun DFT library Copyright 2009-2010 Ulf Ekstrom and contributors.
See http://admol.org/xcfun for more information. This is free soft-
ware; see the source code for copying conditions. There is ABSOLUTELY
NO WARRANTY; not even for MERCHANTABILITY or FITNESS FOR A PARTICULAR
PURPOSE. For details see the documentation. Scientific users of this 
library should cite U. Ekstrom, L. Visscher, R. Bast, A. J. Thorvald-
sen and K. Ruud; J.Chem.Theor.Comp. 2010, DOI: 10.1021/ct100117s
XCFun Version 0.99 
----- Orbital basis set information -----
Your calculation utilizes the basis: def2-SVP
   F. Weigend and R. Ahlrichs, Phys. Chem. Chem. Phys. 7, 3297 (2005).

----- AuxJ basis set information -----
Your calculation utilizes the auxiliary basis: def2/J
   F. Weigend, Phys. Chem. Chem. Phys. 8, 1057 (2006).

================================================================================
                                        WARNINGS
                       Please study these warnings very carefully!
================================================================================

INFO   : Checking CIS options ...

WARNING: CIS/ROCIS methods need fully converged wavefunctions
  ===> : Setting SCFConvForced true
         You can overwrite this default with %scf ConvForced false 


INFO   : the flag for use of LIBINT has been found!

================================================================================
                                       INPUT FILE
================================================================================
NAME = xtbopt.inp
|  1> # ORCA input file
|  2> # SCF done       -182.014288801066          0.000709822733
|  3> ! CAM-B3LYP def2-SVP def2/J RIJCOSX Grid4 TightSCF
|  4> %maxcore 5000
|  5> %tddft
|  6>     Mode sTDDFT
|  7>     Ethresh 5.0
|  8>     maxcore 5000
|  9> end
| 10> 
| 11> %pal
| 12>   nprocs 6
| 13>   end
| 14> * xyz 0 1
| 15>    C        2.76738         0.98419        -0.32704
| 16>    N        3.26657         2.21831        -0.04222
| 17>    C        4.65137         2.60800        -0.12453
| 18>    C        5.09648         2.79679        -1.57274
| 19>    C        2.23702         3.12645         0.28326
| 20>    O        2.44386         4.29228         0.57864
| 21>    C        1.03369         2.34336         0.18272
| 22>    C        1.40766         1.01531        -0.19756
| 23>    C        0.19706         0.22020        -0.28878
| 24>    O        0.00716        -0.94349        -0.56350
| 25>    N       -0.83034         1.12298         0.04366
| 26>    C       -2.21663         0.71992         0.02562
| 27>    C       -2.92233         1.16107        -1.25365
| 28>    C       -0.35040         2.38327         0.32040
| 29>    C       -1.18050         3.47093         0.68501
| 30>    C       -0.67420         4.69870         0.98484
| 31>    C       -1.49875         5.78336         1.36198
| 32>    N       -1.01405         7.02312         1.71543
| 33>    C        0.36803         7.43955         1.69291
| 34>    C        0.84038         7.76107         0.27754
| 35>    C       -2.04054         7.91038         2.06770
| 36>    O       -1.84795         9.05702         2.43027
| 37>    C       -3.25248         7.13885         1.90871
| 38>    C       -2.88800         5.83846         1.47719
| 39>    C       -4.10009         5.07162         1.30630
| 40>    O       -4.29742         3.92122         0.95689
| 41>    N       -5.12908         5.96711         1.63331
| 42>    C       -6.51021         5.55151         1.63999
| 43>    C       -7.00888         5.25726         3.05292
| 44>    C       -4.64144         7.20167         2.00411
| 45>    C       -5.46380         8.28655         2.39063
| 46>    C       -4.96035         9.46669         2.83208
| 47>    C       -5.75355        10.56304         3.25167
| 48>    S       -7.50585        10.55533         3.14365
| 49>    C       -7.59786        12.11882         3.84236
| 50>    C       -8.92050        12.72371         4.13126
| 51>    O       -9.33830        12.92084         5.25513
| 52>    C       -6.34838        12.63005         4.14970
| 53>    C       -5.30963        11.73972         3.80330
| 54>    C       -6.18869        13.96392         4.68914
| 55>    C       -7.16627        14.93895         4.41927
| 56>    C       -7.03202        16.28246         4.89517
| 57>    N       -7.93309        17.22254         4.53593
| 58>    C       -8.95544        16.85899         3.82173
| 59>    C       -9.13774        15.52175         3.40479
| 60>    N       -8.25152        14.60879         3.67916
| 61>    C       -5.95292        16.63983         5.72142
| 62>    C       -4.99112        15.65984         6.02641
| 63>    C       -5.08210        14.34119         5.47455
| 64>    N       -4.10614        13.43923         5.73077
| 65>    C       -3.12389        13.79192         6.50475
| 66>    C       -3.08972        15.06165         7.12874
| 67>    N       -3.99658        15.96108         6.89312
| 68>    C       -5.85247        17.97786         6.27811
| 69>    C       -6.97420        18.59730         6.85840
| 70>    C       -6.86997        19.91786         7.40780
| 71>    N       -7.96927        20.53233         7.91605
| 72>    C       -9.08904        19.87696         7.90764
| 73>    C       -9.17296        18.53987         7.43883
| 74>    N       -8.14660        17.92620         6.93491
| 75>    C       -5.64792        20.58187         7.42452
| 76>    C       -4.52710        19.96717         6.87653
| 77>    C       -4.62949        18.67160         6.27022
| 78>    N       -3.55539        18.12912         5.64929
| 79>    C       -2.42935        18.77307         5.70730
| 80>    C       -2.30679        20.01264         6.38696
| 81>    N       -3.32850        20.60433         6.92525
| 82>    H        3.41848         0.17246        -0.59380
| 83>    H        5.26816         1.85044         0.36832
| 84>    H        4.73963         3.55278         0.41903
| 85>    H        4.98725         1.87008        -2.13220
| 86>    H        6.13854         3.10259        -1.60274
| 87>    H        4.49354         3.56484        -2.05128
| 88>    H       -2.72958         1.12655         0.90053
| 89>    H       -2.21263        -0.37204         0.08715
| 90>    H       -2.95666         2.24535        -1.32167
| 91>    H       -3.94095         0.78420        -1.25453
| 92>    H       -2.40170         0.76730        -2.12352
| 93>    H       -2.24781         3.30982         0.72758
| 94>    H        0.39387         4.85728         0.94534
| 95>    H        0.99508         6.66051         2.13307
| 96>    H        0.42201         8.33830         2.31383
| 97>    H        0.80713         6.87459        -0.35058
| 98>    H        1.86435         8.12186         0.30921
| 99>    H        0.21013         8.53051        -0.16256
|100>    H       -6.55348         4.63935         1.03785
|101>    H       -7.12635         6.31873         1.16244
|102>    H       -6.41170         4.46573         3.49936
|103>    H       -8.04535         4.93335         3.01791
|104>    H       -6.93847         6.14115         3.68288
|105>    H       -6.53661         8.15801         2.34089
|106>    H       -3.88827         9.60467         2.89567
|107>    H       -9.60884        12.67617         3.26207
|108>    H       -4.27048        11.95907         3.95855
|109>    H       -9.65773        17.63084         3.53852
|110>    H       -9.99979        15.21820         2.82749
|111>    H       -2.34799        13.05703         6.67222
|112>    H       -2.31559        15.32042         7.83877
|113>    H       -9.95840        20.38638         8.30179
|114>    H      -10.09588        17.97900         7.50346
|115>    H       -5.56966        21.56470         7.86019
|116>    H       -1.58552        18.33109         5.19391
|117>    H       -1.35489        20.52301         6.45175
|118> *
|119> 
|120>                          ****END OF INPUT****
================================================================================

                       ****************************
                       * Single Point Calculation *
                       ****************************

---------------------------------
CARTESIAN COORDINATES (ANGSTROEM)
---------------------------------
  C      2.767380    0.984190   -0.327040
  N      3.266570    2.218310   -0.042220
  C      4.651370    2.608000   -0.124530
  C      5.096480    2.796790   -1.572740
  C      2.237020    3.126450    0.283260
  O      2.443860    4.292280    0.578640
  C      1.033690    2.343360    0.182720
  C      1.407660    1.015310   -0.197560
  C      0.197060    0.220200   -0.288780
  O      0.007160   -0.943490   -0.563500
  N     -0.830340    1.122980    0.043660
  C     -2.216630    0.719920    0.025620
  C     -2.922330    1.161070   -1.253650
  C     -0.350400    2.383270    0.320400
  C     -1.180500    3.470930    0.685010
  C     -0.674200    4.698700    0.984840
  C     -1.498750    5.783360    1.361980
  N     -1.014050    7.023120    1.715430
  C      0.368030    7.439550    1.692910
  C      0.840380    7.761070    0.277540
  C     -2.040540    7.910380    2.067700
  O     -1.847950    9.057020    2.430270
  C     -3.252480    7.138850    1.908710
  C     -2.888000    5.838460    1.477190
  C     -4.100090    5.071620    1.306300
  O     -4.297420    3.921220    0.956890
  N     -5.129080    5.967110    1.633310
  C     -6.510210    5.551510    1.639990
  C     -7.008880    5.257260    3.052920
  C     -4.641440    7.201670    2.004110
  C     -5.463800    8.286550    2.390630
  C     -4.960350    9.466690    2.832080
  C     -5.753550   10.563040    3.251670
  S     -7.505850   10.555330    3.143650
  C     -7.597860   12.118820    3.842360
  C     -8.920500   12.723710    4.131260
  O     -9.338300   12.920840    5.255130
  C     -6.348380   12.630050    4.149700
  C     -5.309630   11.739720    3.803300
  C     -6.188690   13.963920    4.689140
  C     -7.166270   14.938950    4.419270
  C     -7.032020   16.282460    4.895170
  N     -7.933090   17.222540    4.535930
  C     -8.955440   16.858990    3.821730
  C     -9.137740   15.521750    3.404790
  N     -8.251520   14.608790    3.679160
  C     -5.952920   16.639830    5.721420
  C     -4.991120   15.659840    6.026410
  C     -5.082100   14.341190    5.474550
  N     -4.106140   13.439230    5.730770
  C     -3.123890   13.791920    6.504750
  C     -3.089720   15.061650    7.128740
  N     -3.996580   15.961080    6.893120
  C     -5.852470   17.977860    6.278110
  C     -6.974200   18.597300    6.858400
  C     -6.869970   19.917860    7.407800
  N     -7.969270   20.532330    7.916050
  C     -9.089040   19.876960    7.907640
  C     -9.172960   18.539870    7.438830
  N     -8.146600   17.926200    6.934910
  C     -5.647920   20.581870    7.424520
  C     -4.527100   19.967170    6.876530
  C     -4.629490   18.671600    6.270220
  N     -3.555390   18.129120    5.649290
  C     -2.429350   18.773070    5.707300
  C     -2.306790   20.012640    6.386960
  N     -3.328500   20.604330    6.925250
  H      3.418480    0.172460   -0.593800
  H      5.268160    1.850440    0.368320
  H      4.739630    3.552780    0.419030
  H      4.987250    1.870080   -2.132200
  H      6.138540    3.102590   -1.602740
  H      4.493540    3.564840   -2.051280
  H     -2.729580    1.126550    0.900530
  H     -2.212630   -0.372040    0.087150
  H     -2.956660    2.245350   -1.321670
  H     -3.940950    0.784200   -1.254530
  H     -2.401700    0.767300   -2.123520
  H     -2.247810    3.309820    0.727580
  H      0.393870    4.857280    0.945340
  H      0.995080    6.660510    2.133070
  H      0.422010    8.338300    2.313830
  H      0.807130    6.874590   -0.350580
  H      1.864350    8.121860    0.309210
  H      0.210130    8.530510   -0.162560
  H     -6.553480    4.639350    1.037850
  H     -7.126350    6.318730    1.162440
  H     -6.411700    4.465730    3.499360
  H     -8.045350    4.933350    3.017910
  H     -6.938470    6.141150    3.682880
  H     -6.536610    8.158010    2.340890
  H     -3.888270    9.604670    2.895670
  H     -9.608840   12.676170    3.262070
  H     -4.270480   11.959070    3.958550
  H     -9.657730   17.630840    3.538520
  H     -9.999790   15.218200    2.827490
  H     -2.347990   13.057030    6.672220
  H     -2.315590   15.320420    7.838770
  H     -9.958400   20.386380    8.301790
  H    -10.095880   17.979000    7.503460
  H     -5.569660   21.564700    7.860190
  H     -1.585520   18.331090    5.193910
  H     -1.354890   20.523010    6.451750

----------------------------
CARTESIAN COORDINATES (A.U.)
----------------------------
  NO LB      ZA    FRAG     MASS         X           Y           Z
   0 C     6.0000    0    12.011    5.229590    1.859850   -0.618016
   1 N     7.0000    0    14.007    6.172923    4.191998   -0.079784
   2 C     6.0000    0    12.011    8.789815    4.928406   -0.235328
   3 C     6.0000    0    12.011    9.630951    5.285167   -2.972048
   4 C     6.0000    0    12.011    4.227355    5.908134    0.535284
   5 O     8.0000    0    15.999    4.618226    8.111234    1.093471
   6 C     6.0000    0    12.011    1.953391    4.428309    0.345291
   7 C     6.0000    0    12.011    2.660092    1.918658   -0.373334
   8 C     6.0000    0    12.011    0.372389    0.416118   -0.545715
   9 O     8.0000    0    15.999    0.013530   -1.782938   -1.064861
  10 N     7.0000    0    14.007   -1.569115    2.122125    0.082505
  11 C     6.0000    0    12.011   -4.188824    1.360452    0.048415
  12 C     6.0000    0    12.011   -5.522403    2.194104   -2.369055
  13 C     6.0000    0    12.011   -0.662160    4.503728    0.605468
  14 C     6.0000    0    12.011   -2.230822    6.559107    1.294481
  15 C     6.0000    0    12.011   -1.274053    8.879256    1.861078
  16 C     6.0000    0    12.011   -2.832227   10.928967    2.573769
  17 N     7.0000    0    14.007   -1.916277   13.271773    3.241693
  18 C     6.0000    0    12.011    0.695476   14.058712    3.199136
  19 C     6.0000    0    12.011    1.588088   14.666297    0.524475
  20 C     6.0000    0    12.011   -3.856062   14.948452    3.907387
  21 O     8.0000    0    15.999   -3.492119   17.115287    4.592545
  22 C     6.0000    0    12.011   -6.146296   13.490471    3.606939
  23 C     6.0000    0    12.011   -5.457529   11.033090    2.791485
  24 C     6.0000    0    12.011   -7.748047    9.583973    2.468549
  25 O     8.0000    0    15.999   -8.120947    7.410032    1.808260
  26 N     7.0000    0    14.007   -9.692557   11.276204    3.086509
  27 C     6.0000    0    12.011  -12.302514   10.490834    3.099132
  28 C     6.0000    0    12.011  -13.244864    9.934782    5.769183
  29 C     6.0000    0    12.011   -8.771050   13.609184    3.787219
  30 C     6.0000    0    12.011  -10.325086   15.659310    4.517636
  31 C     6.0000    0    12.011   -9.373703   17.889451    5.351856
  32 C     6.0000    0    12.011  -10.872634   19.961253    6.144766
  33 S    16.0000    0    32.060  -14.184001   19.946683    5.940638
  34 C     6.0000    0    12.011  -14.357875   22.901251    7.261008
  35 C     6.0000    0    12.011  -16.857302   24.044327    7.806950
  36 O     8.0000    0    15.999  -17.646830   24.416849    9.930756
  37 C     6.0000    0    12.011  -11.996700   23.867336    7.841797
  38 C     6.0000    0    12.011  -10.033747   22.184856    7.187195
  39 C     6.0000    0    12.011  -11.694929   26.387985    8.861190
  40 C     6.0000    0    12.011  -13.542288   28.230524    8.351210
  41 C     6.0000    0    12.011  -13.288592   30.769390    9.250531
  42 N     7.0000    0    14.007  -14.991367   32.545884    8.571665
  43 C     6.0000    0    12.011  -16.923329   31.858874    7.222023
  44 C     6.0000    0    12.011  -17.267826   29.331857    6.434121
  45 N     7.0000    0    14.007  -15.593113   27.606612    6.952605
  46 C     6.0000    0    12.011  -11.249388   31.444722   10.811917
  47 C     6.0000    0    12.011   -9.431850   29.592809   11.388264
  48 C     6.0000    0    12.011   -9.603777   27.100922   10.345400
  49 N     7.0000    0    14.007   -7.759480   25.396464   10.829586
  50 C     6.0000    0    12.011   -5.903297   26.062952   12.292196
  51 C     6.0000    0    12.011   -5.838725   28.462394   13.471366
  52 N     7.0000    0    14.007   -7.552442   30.162070   13.026109
  53 C     6.0000    0    12.011  -11.059566   33.973232   11.863909
  54 C     6.0000    0    12.011  -13.179328   35.143804   12.960498
  55 C     6.0000    0    12.011  -12.982362   37.639301   13.998713
  56 N     7.0000    0    14.007  -15.059738   38.800481   14.959167
  57 C     6.0000    0    12.011  -17.175796   37.562011   14.943274
  58 C     6.0000    0    12.011  -17.334382   35.035277   14.057351
  59 N     7.0000    0    14.007  -15.394843   33.875609   13.105081
  60 C     6.0000    0    12.011  -10.673022   38.894098   14.030309
  61 C     6.0000    0    12.011   -8.554979   37.732483   12.994758
  62 C     6.0000    0    12.011   -8.748468   35.284210   11.848999
  63 N     7.0000    0    14.007   -6.718713   34.259072   10.675611
  64 C     6.0000    0    12.011   -4.590806   35.475961   10.785234
  65 C     6.0000    0    12.011   -4.359201   37.818409   12.069605
  66 N     7.0000    0    14.007   -6.289953   38.936541   13.086826
  67 H     1.0000    0     1.008    6.459991    0.325902   -1.122119
  68 H     1.0000    0     1.008    9.955380    3.496825    0.696024
  69 H     1.0000    0     1.008    8.956603    6.713781    0.791852
  70 H     1.0000    0     1.008    9.424537    3.533939   -4.029274
  71 H     1.0000    0     1.008   11.600159    5.863045   -3.028740
  72 H     1.0000    0     1.008    8.491560    6.736571   -3.876357
  73 H     1.0000    0     1.008   -5.158159    2.128871    1.701755
  74 H     1.0000    0     1.008   -4.181265   -0.703054    0.164690
  75 H     1.0000    0     1.008   -5.587278    4.243097   -2.497594
  76 H     1.0000    0     1.008   -7.447316    1.481923   -2.370718
  77 H     1.0000    0     1.008   -4.538555    1.449987   -4.012871
  78 H     1.0000    0     1.008   -4.247745    6.254653    1.374927
  79 H     1.0000    0     1.008    0.744306    9.178929    1.786434
  80 H     1.0000    0     1.008    1.880429   12.586540    4.030918
  81 H     1.0000    0     1.008    0.797483   15.757103    4.372505
  82 H     1.0000    0     1.008    1.525255   12.991092   -0.662500
  83 H     1.0000    0     1.008    3.523111   15.348091    0.584322
  84 H     1.0000    0     1.008    0.397088   16.120328   -0.307194
  85 H     1.0000    0     1.008  -12.384282    8.767101    1.961252
  86 H     1.0000    0     1.008  -13.466850   11.940669    2.196693
  87 H     1.0000    0     1.008  -12.116357    8.439007    6.612832
  88 H     1.0000    0     1.008  -15.203508    9.322680    5.703023
  89 H     1.0000    0     1.008  -13.111808   11.605092    6.959635
  90 H     1.0000    0     1.008  -12.352403   15.416405    4.423641
  91 H     1.0000    0     1.008   -7.347765   18.150196    5.472023
  92 H     1.0000    0     1.008  -18.158076   23.954490    6.164419
  93 H     1.0000    0     1.008   -8.070038   22.599367    7.480575
  94 H     1.0000    0     1.008  -18.250465   33.317459    6.686834
  95 H     1.0000    0     1.008  -18.896864   28.758230    5.343182
  96 H     1.0000    0     1.008   -4.437058   24.674211   12.608669
  97 H     1.0000    0     1.008   -4.375831   28.951398   14.813129
  98 H     1.0000    0     1.008  -18.818649   38.524675   15.688110
  99 H     1.0000    0     1.008  -19.078448   33.975386   14.179484
 100 H     1.0000    0     1.008  -10.525132   40.751377   14.853606
 101 H     1.0000    0     1.008   -2.996199   34.640740    9.815067
 102 H     1.0000    0     1.008   -2.560371   38.782868   12.192041

--------------------------------
INTERNAL COORDINATES (ANGSTROEM)
--------------------------------
 C      0   0   0     0.000000000000     0.00000000     0.00000000
 N      1   0   0     1.361383584042     0.00000000     0.00000000
 C      2   1   0     1.440938677460   125.84556498     0.00000000
 C      3   2   1     1.526786422621   111.57994555    75.01998964
 C      2   1   3     1.410896414518   111.35742906   176.66853449
 O      5   2   1     1.220324431821   123.16649229   179.76446694
 C      5   2   1     1.439215525417   104.10955835     0.26239213
 C      1   2   3     1.366225458407   108.93262471   182.97065677
 C      8   1   2     1.451231670168   144.27010963   180.84979307
 O      9   8   1     1.210664075828   132.20141948     0.00000000
 N      9   8   1     1.407508025554   104.04282671   179.43482705
 C     11   9   8     1.443808425415   121.25547999   177.96766236
 C     12  11   9     1.526157772119   111.94770760   260.48866461
 C     11   9   8     1.376683810938   112.34487671     0.21491458
 C     14  11   9     1.415984017459   123.40649978   180.18661978
 C     15  14  11     1.361490687372   122.09934942   178.36506114
 C     16  15  14     1.413720127076   122.25836799   180.63521298
 N     17  16  15     1.377267530330   123.63061090   177.68185834
 C     18  17  16     1.443629530628   126.34038649     3.52742425
 C     19  18  17     1.526355748114   111.80795513    77.67867927
 C     18  17  16     1.401786781433   112.11946622   181.03735603
 O     21  18  17     1.217920852355   123.70532345   179.07525941
 C     21  18  17     1.445453190041   104.38801470   359.81070797
 C     17  16  15     1.395107492848   129.28158560   358.83563414
 C     24  17  16     1.444440772687   143.59870920   357.93773921
 O     25  24  17     1.218378691951   132.15256656     1.19958166
 N     25  24  17     1.402732440738   104.42223964   181.71613879
 C     27  25  24     1.442320373322   121.30338362   182.73396997
 C     28  27  25     1.526966278704   111.87190675   100.07416981
 C     27  25  24     1.378195850814   112.02590329   359.17058666
 C     30  27  25     1.415146032888   123.68289356   180.37822556
 C     31  30  27     1.356860502999   122.68499619   175.75657574
 C     32  31  30     1.416758741141   124.17190903   181.30360686
 S     33  32  31     1.755643202504   122.49207412   355.71388417
 C     34  33  32     1.714981773752    91.40261184   178.82636387
 C     35  34  33     1.482812089140   119.94265150   183.87474082
 O     36  35  34     1.215113514780   123.57840921   111.71543767
 C     35  34  33     1.384562840358   112.24944505   359.89688521
 C     33  32  31     1.373294012839   126.94423342   174.56867800
 C     38  35  34     1.447655202940   121.49849376   176.98428524
 C     40  38  35     1.406831892658   119.37083099   334.38256559
 C     41  40  38     1.431615518427   121.43186257   181.97921504
 N     42  41  40     1.350826017258   120.14187800   174.93242273
 C     43  42  41     1.299018770072   118.45239712     4.03591967
 C     44  43  42     1.412544891747   121.92439778   359.32940408
 N     45  44  43     1.301599303511   120.92588623   357.20304344
 C     42  41  40     1.405296833199   120.40496434   355.92380933
 C     47  42  41     1.406576887411   118.38388511     2.18846011
 C     40  38  35     1.408454099039   122.77001485   154.83588451
 N     49  40  38     1.353395157225   119.57903194     1.01601461
 C     50  49  40     1.299326879196   118.49068058   182.91754942
 C     51  50  49     1.415183868584   121.63081459     3.11204492
 N     52  51  50     1.298801820487   121.63340221   355.79745992
 C     47  42  41     1.452693443057   120.83969610   183.90076248
 C     54  47  42     1.406670036149   120.56701442    45.46414705
 C     55  54  47     1.434079135369   120.37007952   179.94305091
 N     56  55  54     1.358069193156   120.07842272   177.24121640
 C     57  56  55     1.297484264991   117.88001943     1.31172048
 C     58  57  56     1.419378402893   121.93735936     2.61162576
 N     59  58  57     1.297667555617   121.80192515   356.63229165
 C     56  55  54     1.390897207201   120.53536117   357.33224931
 C     61  56  55     1.390822275670   119.49250982     1.39529085
 C     54  47  42     1.406064550474   120.82652369   224.33489466
 N     63  54  47     1.354078810594   119.66006650     4.91680495
 C     64  63  54     1.298461722270   117.95185976   182.65917203
 C     65  64  63     1.418975846905   121.97385547   359.58583745
 N     66  65  64     1.297591809584   121.93984131   356.21991269
 H      1   2   3     1.074242849871   120.97748691     3.44155388
 H      3   2   1     1.094179226727   109.19402569   312.70715791
 H      3   2   1     1.093552261943   106.42866159   194.95845310
 H      4   3   2     1.087988101314   110.68070060   299.42096844
 H      4   3   2     1.086417361606   109.91516385   179.24497171
 H      4   3   2     1.087399640289   110.06688686    59.52989862
 H     12  11   9     1.092672488672   109.68507284   137.73951597
 H     12  11   9     1.093699493691   105.93257182    20.05198318
 H     13  12  11     1.086953719208   110.81843759   296.01130382
 H     13  12  11     1.086102424130   109.51479953   176.40978048
 H     13  12  11     1.087558838270   110.14693663    56.76035715
 H     15  14  11     1.080240377462   118.34662762   358.62127989
 H     16  15  14     1.080500528135   119.46511296     0.03485417
 H     19  18  17     1.092627955756   109.72268928   315.02856358
 H     19  18  17     1.093712507609   105.98791573   197.24446180
 H     20  19  18     1.086962321012   110.76825845   296.49325243
 H     20  19  18     1.086133957622   109.55334364   176.88858514
 H     20  19  18     1.087630905271   110.17655848    57.16560824
 H     28  27  25     1.093837619622   105.99885467   340.63639028
 H     28  27  25     1.093759128190   109.58962132   223.38207960
 H     29  28  27     1.087406256603   109.92653808   300.37756260
 H     29  28  27     1.086468337827   109.82694289   180.86105918
 H     29  28  27     1.087689616481   110.98863699    60.48191424
 H     31  30  27     1.081627429062   118.21041230   356.52535428
 H     32  31  30     1.082791621181   119.82217868     0.18527214
 H     36  35  34     1.109758200375   112.53131801   310.15526365
 H     39  33  32     1.073335785064   123.10405695     1.30241692
 H     44  43  42     1.081282373249   117.09026513   180.57741866
 H     45  44  43     1.080994030973   121.76176757   178.73800684
 H     51  50  49     1.081725622790   116.74715424   181.36597010
 H     52  51  50     1.081841841814   121.41768239   174.64805161
 H     58  57  56     1.081965696545   116.95341552   180.93647101
 H     59  58  57     1.081911974331   121.26901555   175.47322508
 H     61  56  55     1.077908987531   120.26072914   181.49012645
 H     65  64  63     1.082111214894   116.90386845   180.81371164
 H     66  65  64     1.082029986183   121.11165076   178.15893492

---------------------------
INTERNAL COORDINATES (A.U.)
---------------------------
 C      0   0   0     0.000000000000     0.00000000     0.00000000
 N      1   0   0     2.572642137056     0.00000000     0.00000000
 C      2   1   0     2.722979476174   125.84556498     0.00000000
 C      3   2   1     2.885208203743   111.57994555    75.01998964
 C      2   1   3     2.666207826771   111.35742906   176.66853449
 O      5   2   1     2.306078970675   123.16649229   179.76446694
 C      5   2   1     2.719723190725   104.10955835     0.26239213
 C      1   2   3     2.581791953581   108.93262471   182.97065677
 C      8   1   2     2.742430413492   144.27010963   180.84979307
 O      9   8   1     2.287823543491   132.20141948     0.00000000
 N      9   8   1     2.659804699594   104.04282671   179.43482705
 C     11   9   8     2.728402513883   121.25547999   177.96766236
 C     12  11   9     2.884020226461   111.94770760   260.48866461
 C     11   9   8     2.601555375677   112.34487671     0.21491458
 C     14  11   9     2.675822003008   123.40649978   180.18661978
 C     15  14  11     2.572844533017   122.09934942   178.36506114
 C     16  15  14     2.671543870186   122.25836799   180.63521298
 N     17  16  15     2.602658445465   123.63061090   177.68185834
 C     18  17  16     2.728064451727   126.34038649     3.52742425
 C     19  18  17     2.884394346872   111.80795513    77.67867927
 C     18  17  16     2.648993115059   112.11946622   181.03735603
 O     21  18  17     2.301536863742   123.70532345   179.07525941
 C     21  18  17     2.731510668581   104.38801470   359.81070797
 C     17  16  15     2.636371088864   129.28158560   358.83563414
 C     24  17  16     2.729597477048   143.59870920   357.93773921
 O     25  24  17     2.302402055192   132.15256656     1.19958166
 N     25  24  17     2.650780152163   104.42223964   181.71613879
 C     27  25  24     2.725590502954   121.30338362   182.73396997
 C     28  27  25     2.885548082484   111.87190675   100.07416981
 C     27  25  24     2.604412716944   112.02590329   359.17058666
 C     30  27  25     2.674238441664   123.68289356   180.37822556
 C     31  30  27     2.564094752604   122.68499619   175.75657574
 C     32  31  30     2.677286018596   124.17190903   181.30360686
 S     33  32  31     3.317684841614   122.49207412   355.71388417
 C     34  33  32     3.240845877057    91.40261184   178.82636387
 C     35  34  33     2.802108756542   119.94265150   183.87474082
 O     36  35  34     2.296231764560   123.57840921   111.71543767
 C     35  34  33     2.616444583481   112.24944505   359.89688521
 C     33  32  31     2.595149585620   126.94423342   174.56867800
 C     38  35  34     2.735671869903   121.49849376   176.98428524
 C     40  38  35     2.658526993590   119.37083099   334.38256559
 C     41  40  38     2.705361258898   121.43186257   181.97921504
 N     42  41  40     2.552691227192   120.14187800   174.93242273
 C     43  42  41     2.454789718260   118.45239712     4.03591967
 C     44  43  42     2.669322997271   121.92439778   359.32940408
 N     45  44  43     2.459666219738   120.92588623   357.20304344
 C     42  41  40     2.655626151614   120.40496434   355.92380933
 C     47  42  41     2.658045103511   118.38388511     2.18846011
 C     40  38  35     2.661592519383   122.77001485   154.83588451
 N     49  40  38     2.557546198130   119.57903194     1.01601461
 C     50  49  40     2.455371960122   118.49068058   182.91754942
 C     51  50  49     2.674309940767   121.63081459     3.11204492
 N     52  51  50     2.454379742959   121.63340221   355.79745992
 C     47  42  41     2.745192763920   120.83969610   183.90076248
 C     54  47  42     2.658221129115   120.56701442    45.46414705
 C     55  54  47     2.710016820218   120.37007952   179.94305091
 N     56  55  54     2.566378845981   120.07842272   177.24121640
 C     57  56  55     2.451889923906   117.88001943     1.31172048
 C     58  57  56     2.682236461871   121.93735936     2.61162576
 N     59  58  57     2.452236292990   121.80192515   356.63229165
 C     56  55  54     2.628414802046   120.53536117   357.33224931
 C     61  56  55     2.628273201974   119.49250982     1.39529085
 C     54  47  42     2.657076927011   120.82652369   224.33489466
 N     63  54  47     2.558838115769   119.66006650     4.91680495
 C     64  63  54     2.453737050470   117.95185976   182.65917203
 C     65  64  63     2.681475741300   121.97385547   359.58583745
 N     66  65  64     2.452093153733   121.93984131   356.21991269
 H      1   2   3     2.030024787580   120.97748691     3.44155388
 H      3   2   1     2.067699079939   109.19402569   312.70715791
 H      3   2   1     2.066514288202   106.42866159   194.95845310
 H      4   3   2     2.055999548448   110.68070060   299.42096844
 H      4   3   2     2.053031280574   109.91516385   179.24497171
 H      4   3   2     2.054887518270   110.06688686    59.52989862
 H     12  11   9     2.064851757660   109.68507284   137.73951597
 H     12  11   9     2.066792515884   105.93257182    20.05198318
 H     13  12  11     2.054044849550   110.81843759   296.01130382
 H     13  12  11     2.052436134993   109.51479953   176.40978048
 H     13  12  11     2.055188358857   110.14693663    56.76035715
 H     15  14  11     2.041358472208   118.34662762   358.62127989
 H     16  15  14     2.041850085732   119.46511296     0.03485417
 H     19  18  17     2.064767602645   109.72268928   315.02856358
 H     19  18  17     2.066817108625   105.98791573   197.24446180
 H     20  19  18     2.054061104604   110.76825845   296.49325243
 H     20  19  18     2.052495724658   109.55334364   176.88858514
 H     20  19  18     2.055324545751   110.17655848    57.16560824
 H     28  27  25     2.067053536066   105.99885467   340.63639028
 H     28  27  25     2.066905208756   109.58962132   223.38207960
 H     29  28  27     2.054900021293   109.92653808   300.37756260
 H     29  28  27     2.053127611669   109.82694289   180.86105918
 H     29  28  27     2.055435493858   110.98863699    60.48191424
 H     31  30  27     2.043979619865   118.21041230   356.52535428
 H     32  31  30     2.046179624137   119.82217868     0.18527214
 H     36  35  34     2.097139073582   112.53131801   310.15526365
 H     39  33  32     2.028310683509   123.10405695     1.30241692
 H     44  43  42     2.043327558878   117.09026513   180.57741866
 H     45  44  43     2.042782670943   121.76176757   178.73800684
 H     51  50  49     2.044165179118   116.74715424   181.36597010
 H     52  51  50     2.044384801246   121.41768239   174.64805161
 H     58  57  56     2.044618852767   116.95341552   180.93647101
 H     59  58  57     2.044517332495   121.26901555   175.47322508
 H     61  56  55     2.036952783726   120.26072914   181.49012645
 H     65  64  63     2.044893842595   116.90386845   180.81371164
 H     66  65  64     2.044740342577   121.11165076   178.15893492

---------------------
BASIS SET INFORMATION
---------------------
There are 5 groups of distinct atoms

 Group   1 Type C   : 7s4p1d contracted to 3s2p1d pattern {511/31/1}
 Group   2 Type N   : 7s4p1d contracted to 3s2p1d pattern {511/31/1}
 Group   3 Type O   : 7s4p1d contracted to 3s2p1d pattern {511/31/1}
 Group   4 Type S   : 10s7p1d contracted to 4s3p1d pattern {5311/511/1}
 Group   5 Type H   : 4s1p contracted to 2s1p pattern {31/1}

Atom   0C    basis set group =>   1
Atom   1N    basis set group =>   2
Atom   2C    basis set group =>   1
Atom   3C    basis set group =>   1
Atom   4C    basis set group =>   1
Atom   5O    basis set group =>   3
Atom   6C    basis set group =>   1
Atom   7C    basis set group =>   1
Atom   8C    basis set group =>   1
Atom   9O    basis set group =>   3
Atom  10N    basis set group =>   2
Atom  11C    basis set group =>   1
Atom  12C    basis set group =>   1
Atom  13C    basis set group =>   1
Atom  14C    basis set group =>   1
Atom  15C    basis set group =>   1
Atom  16C    basis set group =>   1
Atom  17N    basis set group =>   2
Atom  18C    basis set group =>   1
Atom  19C    basis set group =>   1
Atom  20C    basis set group =>   1
Atom  21O    basis set group =>   3
Atom  22C    basis set group =>   1
Atom  23C    basis set group =>   1
Atom  24C    basis set group =>   1
Atom  25O    basis set group =>   3
Atom  26N    basis set group =>   2
Atom  27C    basis set group =>   1
Atom  28C    basis set group =>   1
Atom  29C    basis set group =>   1
Atom  30C    basis set group =>   1
Atom  31C    basis set group =>   1
Atom  32C    basis set group =>   1
Atom  33S    basis set group =>   4
Atom  34C    basis set group =>   1
Atom  35C    basis set group =>   1
Atom  36O    basis set group =>   3
Atom  37C    basis set group =>   1
Atom  38C    basis set group =>   1
Atom  39C    basis set group =>   1
Atom  40C    basis set group =>   1
Atom  41C    basis set group =>   1
Atom  42N    basis set group =>   2
Atom  43C    basis set group =>   1
Atom  44C    basis set group =>   1
Atom  45N    basis set group =>   2
Atom  46C    basis set group =>   1
Atom  47C    basis set group =>   1
Atom  48C    basis set group =>   1
Atom  49N    basis set group =>   2
Atom  50C    basis set group =>   1
Atom  51C    basis set group =>   1
Atom  52N    basis set group =>   2
Atom  53C    basis set group =>   1
Atom  54C    basis set group =>   1
Atom  55C    basis set group =>   1
Atom  56N    basis set group =>   2
Atom  57C    basis set group =>   1
Atom  58C    basis set group =>   1
Atom  59N    basis set group =>   2
Atom  60C    basis set group =>   1
Atom  61C    basis set group =>   1
Atom  62C    basis set group =>   1
Atom  63N    basis set group =>   2
Atom  64C    basis set group =>   1
Atom  65C    basis set group =>   1
Atom  66N    basis set group =>   2
Atom  67H    basis set group =>   5
Atom  68H    basis set group =>   5
Atom  69H    basis set group =>   5
Atom  70H    basis set group =>   5
Atom  71H    basis set group =>   5
Atom  72H    basis set group =>   5
Atom  73H    basis set group =>   5
Atom  74H    basis set group =>   5
Atom  75H    basis set group =>   5
Atom  76H    basis set group =>   5
Atom  77H    basis set group =>   5
Atom  78H    basis set group =>   5
Atom  79H    basis set group =>   5
Atom  80H    basis set group =>   5
Atom  81H    basis set group =>   5
Atom  82H    basis set group =>   5
Atom  83H    basis set group =>   5
Atom  84H    basis set group =>   5
Atom  85H    basis set group =>   5
Atom  86H    basis set group =>   5
Atom  87H    basis set group =>   5
Atom  88H    basis set group =>   5
Atom  89H    basis set group =>   5
Atom  90H    basis set group =>   5
Atom  91H    basis set group =>   5
Atom  92H    basis set group =>   5
Atom  93H    basis set group =>   5
Atom  94H    basis set group =>   5
Atom  95H    basis set group =>   5
Atom  96H    basis set group =>   5
Atom  97H    basis set group =>   5
Atom  98H    basis set group =>   5
Atom  99H    basis set group =>   5
Atom 100H    basis set group =>   5
Atom 101H    basis set group =>   5
Atom 102H    basis set group =>   5
---------------------------------
AUXILIARY/J BASIS SET INFORMATION
---------------------------------
There are 5 groups of distinct atoms

 Group   1 Type C   : 12s5p4d2f1g contracted to 6s4p3d1f1g pattern {711111/2111/211/2/1}
 Group   2 Type N   : 12s5p4d2f1g contracted to 6s4p3d1f1g pattern {711111/2111/211/2/1}
 Group   3 Type O   : 12s5p4d2f1g contracted to 6s4p3d1f1g pattern {711111/2111/211/2/1}
 Group   4 Type S   : 14s5p5d2f1g contracted to 8s4p3d1f1g pattern {71111111/2111/311/2/1}
 Group   5 Type H   : 5s2p1d contracted to 3s1p1d pattern {311/2/1}

Atom   0C    basis set group =>   1
Atom   1N    basis set group =>   2
Atom   2C    basis set group =>   1
Atom   3C    basis set group =>   1
Atom   4C    basis set group =>   1
Atom   5O    basis set group =>   3
Atom   6C    basis set group =>   1
Atom   7C    basis set group =>   1
Atom   8C    basis set group =>   1
Atom   9O    basis set group =>   3
Atom  10N    basis set group =>   2
Atom  11C    basis set group =>   1
Atom  12C    basis set group =>   1
Atom  13C    basis set group =>   1
Atom  14C    basis set group =>   1
Atom  15C    basis set group =>   1
Atom  16C    basis set group =>   1
Atom  17N    basis set group =>   2
Atom  18C    basis set group =>   1
Atom  19C    basis set group =>   1
Atom  20C    basis set group =>   1
Atom  21O    basis set group =>   3
Atom  22C    basis set group =>   1
Atom  23C    basis set group =>   1
Atom  24C    basis set group =>   1
Atom  25O    basis set group =>   3
Atom  26N    basis set group =>   2
Atom  27C    basis set group =>   1
Atom  28C    basis set group =>   1
Atom  29C    basis set group =>   1
Atom  30C    basis set group =>   1
Atom  31C    basis set group =>   1
Atom  32C    basis set group =>   1
Atom  33S    basis set group =>   4
Atom  34C    basis set group =>   1
Atom  35C    basis set group =>   1
Atom  36O    basis set group =>   3
Atom  37C    basis set group =>   1
Atom  38C    basis set group =>   1
Atom  39C    basis set group =>   1
Atom  40C    basis set group =>   1
Atom  41C    basis set group =>   1
Atom  42N    basis set group =>   2
Atom  43C    basis set group =>   1
Atom  44C    basis set group =>   1
Atom  45N    basis set group =>   2
Atom  46C    basis set group =>   1
Atom  47C    basis set group =>   1
Atom  48C    basis set group =>   1
Atom  49N    basis set group =>   2
Atom  50C    basis set group =>   1
Atom  51C    basis set group =>   1
Atom  52N    basis set group =>   2
Atom  53C    basis set group =>   1
Atom  54C    basis set group =>   1
Atom  55C    basis set group =>   1
Atom  56N    basis set group =>   2
Atom  57C    basis set group =>   1
Atom  58C    basis set group =>   1
Atom  59N    basis set group =>   2
Atom  60C    basis set group =>   1
Atom  61C    basis set group =>   1
Atom  62C    basis set group =>   1
Atom  63N    basis set group =>   2
Atom  64C    basis set group =>   1
Atom  65C    basis set group =>   1
Atom  66N    basis set group =>   2
Atom  67H    basis set group =>   5
Atom  68H    basis set group =>   5
Atom  69H    basis set group =>   5
Atom  70H    basis set group =>   5
Atom  71H    basis set group =>   5
Atom  72H    basis set group =>   5
Atom  73H    basis set group =>   5
Atom  74H    basis set group =>   5
Atom  75H    basis set group =>   5
Atom  76H    basis set group =>   5
Atom  77H    basis set group =>   5
Atom  78H    basis set group =>   5
Atom  79H    basis set group =>   5
Atom  80H    basis set group =>   5
Atom  81H    basis set group =>   5
Atom  82H    basis set group =>   5
Atom  83H    basis set group =>   5
Atom  84H    basis set group =>   5
Atom  85H    basis set group =>   5
Atom  86H    basis set group =>   5
Atom  87H    basis set group =>   5
Atom  88H    basis set group =>   5
Atom  89H    basis set group =>   5
Atom  90H    basis set group =>   5
Atom  91H    basis set group =>   5
Atom  92H    basis set group =>   5
Atom  93H    basis set group =>   5
Atom  94H    basis set group =>   5
Atom  95H    basis set group =>   5
Atom  96H    basis set group =>   5
Atom  97H    basis set group =>   5
Atom  98H    basis set group =>   5
Atom  99H    basis set group =>   5
Atom 100H    basis set group =>   5
Atom 101H    basis set group =>   5
Atom 102H    basis set group =>   5


           ************************************************************
           *        Program running with 6 parallel MPI-processes     *
           *              working on a common directory               *
           ************************************************************
------------------------------------------------------------------------------
                           ORCA GTO INTEGRAL CALCULATION
                           -- RI-GTO INTEGRALS CHOSEN --
------------------------------------------------------------------------------

                         BASIS SET STATISTICS AND STARTUP INFO

Gaussian basis set:
 # of primitive gaussian shells          ...  990
 # of primitive gaussian functions       ... 1872
 # of contracted shells                  ...  512
 # of contracted basis functions         ... 1122
 Highest angular momentum                ...    2
 Maximum contraction depth               ...    5
Auxiliary gaussian basis set:
 # of primitive gaussian shells          ... 1899
 # of primitive gaussian functions       ... 5273
 # of contracted shells                  ... 1187
 # of contracted aux-basis functions     ... 3681
 Highest angular momentum                ...    4
 Maximum contraction depth               ...    7
Ratio of auxiliary to basis functions    ...  3.28
Integral package used                  ... LIBINT
 One Electron integrals                  ... done
 Ordering auxiliary basis shells         ... done
 Integral threshhold             Thresh  ...  2.500e-11
 Primitive cut-off               TCut    ...  2.500e-12
 Pre-screening matrix                    ... done
 Shell pair data                         ... 
 Ordering of the shell pairs             ... done (   0.010 sec) 46658 of 131328 pairs
 Determination of significant pairs      ... done (   0.000 sec)
 Creation of shell pair data             ... done (   0.006 sec)
 Storage of shell pair data              ... done (   0.010 sec)
 Shell pair data done in (   0.026 sec)
 Computing two index integrals           ... done
 Cholesky decomposition of the V-matrix  ... done


Timings:
 Total evaluation time                   ...   2.139 sec (  0.036 min)
 One electron matrix time                ...   0.582 sec (  0.010 min) = 27.2%
 Schwartz matrix evaluation time         ...   0.617 sec (  0.010 min) = 28.9%
 Two index repulsion integral time       ...   0.321 sec (  0.005 min) = 15.0%
 Cholesky decomposition of V             ...   0.575 sec (  0.010 min) = 26.9%
 Three index repulsion integral time     ...   0.000 sec (  0.000 min) =  0.0%



           ************************************************************
           *        Program running with 6 parallel MPI-processes     *
           *              working on a common directory               *
           ************************************************************
-------------------------------------------------------------------------------
                                 ORCA SCF
-------------------------------------------------------------------------------

------------
SCF SETTINGS
------------
Hamiltonian:
 Density Functional     Method          .... DFT(GTOs)
 Exchange Functional    Exchange        .... WB88
 Correlation Functional Correlation     .... LYP
 LDA part of GGA corr.  LDAOpt          .... VWN-5
 Gradients option       PostSCFGGA      .... off
 Hybrid DFT is turned on
   Fraction HF Exchange ScalHFX         ....  0.190000
   Scaling of DF-GGA-X  ScalDFX         ....  0.350000
   Scaling of DF-GGA-C  ScalDFC         ....  0.810000
   Scaling of DF-LDA-C  ScalLDAC        ....  1.000000
   Perturbative correction              ....  0.000000
   Density functional embedding theory  .... OFF
 Long-range corrected/Screened/Range-Separated Hybrid DFT is turned on
   Amount of maximum screened exact exchange              ....  0.460000
   Range separation parameter mu (erf(mu*r12)/r12)        ....  0.330000
 RI-approximation to the Coulomb term is turned on
   Number of auxiliary basis functions  .... 3681
   RIJ-COSX (HFX calculated with COS-X)).... on


General Settings:
 Integral files         IntName         .... xtbopt
 Hartree-Fock type      HFTyp           .... RHF
 Total Charge           Charge          ....    0
 Multiplicity           Mult            ....    1
 Number of Electrons    NEL             ....  470
 Basis Dimension        Dim             .... 1122
 Nuclear Repulsion      ENuc            ....   9226.7160449220 Eh

Convergence Acceleration:
 DIIS                   CNVDIIS         .... on
   Start iteration      DIISMaxIt       ....    12
   Startup error        DIISStart       ....  0.200000
   # of expansion vecs  DIISMaxEq       ....     5
   Bias factor          DIISBfac        ....   1.050
   Max. coefficient     DIISMaxC        ....  10.000
 Newton-Raphson         CNVNR           .... off
 SOSCF                  CNVSOSCF        .... on
   Start iteration      SOSCFMaxIt      ....   150
   Startup grad/error   SOSCFStart      ....  0.003300
 Level Shifting         CNVShift        .... on
   Level shift para.    LevelShift      ....    0.2500
   Turn off err/grad.   ShiftErr        ....    0.0010
 Zerner damping         CNVZerner       .... off
 Static damping         CNVDamp         .... on
   Fraction old density DampFac         ....    0.7000
   Max. Damping (<1)    DampMax         ....    0.9800
   Min. Damping (>=0)   DampMin         ....    0.0000
   Turn off err/grad.   DampErr         ....    0.1000
 Fernandez-Rico         CNVRico         .... off

SCF Procedure:
 Maximum # iterations   MaxIter         ....   125
 SCF integral mode      SCFMode         .... Direct
   Integral package                     .... LIBINT
 Reset frequency        DirectResetFreq ....    20
 Integral Threshold     Thresh          ....  2.500e-11 Eh
 Primitive CutOff       TCut            ....  2.500e-12 Eh

Convergence Tolerance:
 Convergence Check Mode ConvCheckMode   .... Total+1el-Energy
 Convergence forced     ConvForced      .... 1
 Energy Change          TolE            ....  1.000e-08 Eh
 1-El. energy change                    ....  1.000e-05 Eh
 Orbital Gradient       TolG            ....  1.000e-05
 Orbital Rotation angle TolX            ....  1.000e-05
 DIIS Error             TolErr          ....  5.000e-07


Diagonalization of the overlap matrix:
Smallest eigenvalue                        ... 6.860e-05
Time for diagonalization                   ...    0.208 sec
Threshold for overlap eigenvalues          ... 1.000e-08
Number of eigenvalues below threshold      ... 0
Time for construction of square roots      ...    0.142 sec
Total time needed                          ...    0.354 sec

-------------------
DFT GRID GENERATION
-------------------

General Integration Accuracy     IntAcc      ...  4.670
Radial Grid Type                 RadialGrid  ... Gauss-Chebyshev
Angular Grid (max. acc.)         AngularGrid ... Lebedev-302
Angular grid pruning method      GridPruning ... 3 (G Style)
Weight generation scheme         WeightScheme... Becke
Basis function cutoff            BFCut       ...    1.0000e-11
Integration weight cutoff        WCut        ...    1.0000e-14
Grids for H and He will be reduced by one unit

# of grid points (after initial pruning)     ... 539022 (   0.0 sec)
# of grid points (after weights+screening)   ... 458900 (   6.1 sec)
nearest neighbour list constructed           ...    0.0 sec
Grid point re-assignment to atoms done       ...    0.1 sec
Grid point division into batches done        ...    1.6 sec
Reduced shell lists constructed in    2.5 sec

Total number of grid points                  ...   458900
Total number of batches                      ...     7228
Average number of points per batch           ...       63
Average number of grid points per atom       ...     4455
Average number of shells per batch           ...   108.93 (21.28%)
Average number of basis functions per batch  ...   218.89 (19.51%)
Average number of large shells per batch     ...    67.03 (61.54%)
Average number of large basis fcns per batch ...   138.04 (63.06%)
Maximum spatial batch extension              ...  16.93, 13.22, 20.04 au
Average spatial batch extension              ...   0.23,  0.24,  0.28 au

Time for grid setup =    9.026 sec

------------------------------
INITIAL GUESS: MODEL POTENTIAL
------------------------------
Loading Hartree-Fock densities                     ... done
Calculating cut-offs                               ... done
Setting up the integral package                    ... done
Initializing the effective Hamiltonian             ... done
Starting the Coulomb interaction                   ... done (   1.3 sec)
Reading the grid                                   ... done
Mapping shells                                     ... done
Starting the XC term evaluation                    ... done (   1.5 sec)
  promolecular density results
     # of electrons  =    469.981515873
     EX              =   -405.863168686
     EC              =    -16.107202832
     EX+EC           =   -421.970371518
Transforming the Hamiltonian                       ... done (   0.1 sec)
Diagonalizing the Hamiltonian                      ... done (   0.2 sec)
Back transforming the eigenvectors                 ... done (   0.0 sec)
Now organizing SCF variables                       ... done
                      ------------------
                      INITIAL GUESS DONE (  12.3 sec)
                      ------------------
--------------------
COSX GRID GENERATION
--------------------

General Integration Accuracy     IntAcc      ...  3.340
Radial Grid Type                 RadialGrid  ... Gauss-Chebyshev
Angular Grid (max. acc.)         AngularGrid ... Lebedev-50
Angular grid pruning method      GridPruning ... 3 (G Style)
Weight generation scheme         WeightScheme... Becke
Basis function cutoff            BFCut       ...    1.0000e-11
Integration weight cutoff        WCut        ...    1.0000e-14
Grids for H and He will be reduced by one unit

# of grid points (after initial pruning)     ...  50338 (   0.0 sec)
# of grid points (after weights+screening)   ...  44878 (   0.6 sec)
nearest neighbour list constructed           ...    0.0 sec
Grid point re-assignment to atoms done       ...    0.0 sec
Grid point division into batches done        ...    0.0 sec
Reduced shell lists constructed in    0.1 sec

Total number of grid points                  ...    44878
Total number of batches                      ...      765
Average number of points per batch           ...       58
Average number of grid points per atom       ...      436
Average number of shells per batch           ...   123.10 (24.04%)
Average number of basis functions per batch  ...   250.45 (22.32%)
Average number of large shells per batch     ...    77.18 (62.70%)
Average number of large basis fcns per batch ...   160.31 (64.01%)
Maximum spatial batch extension              ...  15.08, 13.87, 20.72 au
Average spatial batch extension              ...   0.44,  0.47,  0.66 au

Overlap Fitting                  UseSFitting ... on
Constructing numerical overlap ... done (      0.1 sec)
Inverting numerical overlap    ... done (      0.1 sec)
Obtaining analytic overlap     ... done (      0.0 sec)
Final contraction and storage  ... done (      0.1 sec)


General Integration Accuracy     IntAcc      ...  3.670
Radial Grid Type                 RadialGrid  ... Gauss-Chebyshev
Angular Grid (max. acc.)         AngularGrid ... Lebedev-50
Angular grid pruning method      GridPruning ... 3 (G Style)
Weight generation scheme         WeightScheme... Becke
Basis function cutoff            BFCut       ...    1.0000e-11
Integration weight cutoff        WCut        ...    1.0000e-14
Grids for H and He will be reduced by one unit

# of grid points (after initial pruning)     ...  63282 (   0.0 sec)
# of grid points (after weights+screening)   ...  56209 (   0.7 sec)
nearest neighbour list constructed           ...    0.0 sec
Grid point re-assignment to atoms done       ...    0.0 sec
Grid point division into batches done        ...    0.0 sec
Reduced shell lists constructed in    0.2 sec

Total number of grid points                  ...    56209
Total number of batches                      ...      927
Average number of points per batch           ...       60
Average number of grid points per atom       ...      546
Average number of shells per batch           ...   121.88 (23.80%)
Average number of basis functions per batch  ...   247.30 (22.04%)
Average number of large shells per batch     ...    75.89 (62.27%)
Average number of large basis fcns per batch ...   157.54 (63.71%)
Maximum spatial batch extension              ...  16.61, 14.68, 22.67 au
Average spatial batch extension              ...   0.42,  0.44,  0.61 au

Overlap Fitting                  UseSFitting ... on
Constructing numerical overlap ... done (      0.1 sec)
Inverting numerical overlap    ... done (      0.1 sec)
Obtaining analytic overlap     ... done (      0.0 sec)
Final contraction and storage  ... done (      0.1 sec)


General Integration Accuracy     IntAcc      ...  4.010
Radial Grid Type                 RadialGrid  ... Gauss-Chebyshev
Angular Grid (max. acc.)         AngularGrid ... Lebedev-110
Angular grid pruning method      GridPruning ... 3 (G Style)
Weight generation scheme         WeightScheme... Becke
Basis function cutoff            BFCut       ...    1.0000e-11
Integration weight cutoff        WCut        ...    1.0000e-14
Grids for H and He will be reduced by one unit

# of grid points (after initial pruning)     ... 122338 (   0.0 sec)
# of grid points (after weights+screening)   ... 107410 (   1.4 sec)
nearest neighbour list constructed           ...    0.0 sec
Grid point re-assignment to atoms done       ...    0.0 sec
Grid point division into batches done        ...    0.1 sec
Reduced shell lists constructed in    0.3 sec

Total number of grid points                  ...   107410
Total number of batches                      ...     1733
Average number of points per batch           ...       61
Average number of grid points per atom       ...     1043
Average number of shells per batch           ...   117.43 (22.94%)
Average number of basis functions per batch  ...   237.66 (21.18%)
Average number of large shells per batch     ...    73.86 (62.89%)
Average number of large basis fcns per batch ...   152.94 (64.35%)
Maximum spatial batch extension              ...  12.22, 14.29, 19.59 au
Average spatial batch extension              ...   0.35,  0.38,  0.50 au

Overlap Fitting                  UseSFitting ... on
Constructing numerical overlap ... done (      0.2 sec)
Inverting numerical overlap    ... done (      0.1 sec)
Obtaining analytic overlap     ... done (      0.0 sec)
Final contraction and storage  ... done (      0.1 sec)

Time for X-Grid setup             =    4.361 sec
--------------
SCF ITERATIONS
--------------
ITER       Energy         Delta-E        Max-DP      RMS-DP      [F,P]     Damp
               ***  Starting incremental Fock matrix formation  ***
  0  -3315.3094091338   0.000000000000 0.10869110  0.00107190  0.2541531 0.7000
  1  -3315.8144266865  -0.505017552670 0.06943301  0.00075310  0.1085480 0.7000
                               ***Turning on DIIS***
  2  -3316.0393354430  -0.224908756467 0.10329886  0.00127041  0.0431059 0.0000
  3  -3316.4150376215  -0.375702178551 0.07492531  0.00056507  0.0595677 0.0000
  4  -3316.4767192559  -0.061681634415 0.01226168  0.00012539  0.0157279 0.0000
  5  -3316.4805435322  -0.003824276260 0.00469338  0.00005866  0.0065985 0.0000
                      *** Initiating the SOSCF procedure ***
                           *** Shutting down DIIS ***
                      *** Re-Reading the Fockian *** 
                      *** Removing any level shift *** 
ITER      Energy       Delta-E        Grad      Rot      Max-DP    RMS-DP
  6  -3316.48126879  -0.0007252615  0.001935  0.001935  0.002711  0.000032
               *** Restarting incremental Fock matrix formation ***
  7  -3316.48148632  -0.0002175301  0.001449  0.008763  0.003138  0.000035
  8  -3316.48169735  -0.0002110240  0.000549  0.010006  0.002877  0.000042
  9  -3316.48171403  -0.0000166787  0.000690  0.003149  0.001493  0.000018
 10  -3316.48176805  -0.0000540229  0.000110  0.000599  0.000713  0.000007
 11  -3316.48176737   0.0000006780  0.000143  0.000346  0.000311  0.000003
 12  -3316.48177016  -0.0000027852  0.000023  0.000128  0.000182  0.000001
 13  -3316.48177005   0.0000001075  0.000029  0.000059  0.000118  0.000001
 14  -3316.48177022  -0.0000001716  0.000005  0.000043  0.000021  0.000000
 15  -3316.48177024  -0.0000000202  0.000004  0.000009  0.000010  0.000000
                  ***Gradient check signals convergence***
              ***Rediagonalizing the Fockian in SOSCF/NRSCF***

               *****************************************************
               *                     SUCCESS                       *
               *           SCF CONVERGED AFTER  16 CYCLES          *
               *****************************************************

Setting up the final grid:

General Integration Accuracy     IntAcc      ...  5.010
Radial Grid Type                 RadialGrid  ... Gauss-Chebyshev
Angular Grid (max. acc.)         AngularGrid ... Lebedev-434
Angular grid pruning method      GridPruning ... 3 (G Style)
Weight generation scheme         WeightScheme... Becke
Basis function cutoff            BFCut       ...    1.0000e-11
Integration weight cutoff        WCut        ...    1.0000e-14
Grids for H and He will be reduced by one unit

# of grid points (after initial pruning)     ... 958144 (   0.1 sec)
# of grid points (after weights+screening)   ... 813223 (  10.5 sec)
nearest neighbour list constructed           ...    0.0 sec
Grid point re-assignment to atoms done       ...    0.1 sec
Grid point division into batches done        ...    5.1 sec
Reduced shell lists constructed in    6.7 sec

Total number of grid points                  ...   813223
Total number of batches                      ...    12757
Average number of points per batch           ...       63
Average number of grid points per atom       ...     7895
Average number of shells per batch           ...   105.79 (20.66%)
Average number of basis functions per batch  ...   211.95 (18.89%)
Average number of large shells per batch     ...    64.98 (61.43%)
Average number of large basis fcns per batch ...   133.53 (63.00%)
Maximum spatial batch extension              ...  20.62, 14.61, 19.76 au
Average spatial batch extension              ...   0.19,  0.19,  0.22 au

Final grid set up in   17.8 sec
Final integration                            ... done (   3.4 sec)
Change in XC energy                          ...    -0.000028437
Integrated number of electrons               ...   469.999773868
Previous integrated no of electrons          ...   469.999473452
Old exchange energy                            =   -115.199275143 Eh
New exchange energy                            =   -115.199162026 Eh
Exchange energy change after final integration =      0.000113117 Eh
Total energy after final integration           =  -3316.481685551 Eh
Final COS-X integration done in                =    60.240 sec

----------------
TOTAL SCF ENERGY
----------------

Total Energy       :        -3316.48168555 Eh          -90246.05468 eV

Components:
Nuclear Repulsion  :         9226.71604492 Eh          251071.70782 eV
Electronic Energy  :       -12543.19773047 Eh         -341317.76251 eV
One Electron Energy:       -22893.47510004 Eh         -622963.12831 eV
Two Electron Energy:        10350.27736957 Eh          281645.36580 eV

Virial components:
Potential Energy   :        -6605.12628521 Eh         -179734.62375 eV
Kinetic Energy     :         3288.64459966 Eh           89488.56907 eV
Virial Ratio       :            2.00846461


DFT components:
N(Alpha)           :      234.999886934052 electrons
N(Beta)            :      234.999886934052 electrons
N(Total)           :      469.999773868104 electrons
E(XC)              :     -314.559240536265 Eh       
DFET-embed. en.    :        0.000000000000 Eh       

---------------
SCF CONVERGENCE
---------------

  Last Energy change         ...    9.4606e-09  Tolerance :   1.0000e-08
  Last MAX-Density change    ...    6.2172e-15  Tolerance :   1.0000e-07
  Last RMS-Density change    ...    3.3402e-17  Tolerance :   5.0000e-09
  Last Orbital Gradient      ...    6.8567e-07  Tolerance :   1.0000e-05
  Last Orbital Rotation      ...    7.0805e-06  Tolerance :   1.0000e-05

             **** THE GBW FILE WAS UPDATED (xtbopt.gbw) ****
             **** DENSITY FILE WAS UPDATED (xtbopt.scfp) ****
             **** ENERGY FILE WAS UPDATED (xtbopt.en.tmp) ****
             **** THE GBW FILE WAS UPDATED (xtbopt.gbw) ****
             **** DENSITY FILE WAS UPDATED (xtbopt.scfp) ****
----------------
ORBITAL ENERGIES
----------------

  NO   OCC          E(Eh)            E(eV) 
   0   2.0000     -88.960111     -2420.7277 
   1   2.0000     -19.190981      -522.2131 
   2   2.0000     -19.183967      -522.0223 
   3   2.0000     -19.178804      -521.8818 
   4   2.0000     -19.177088      -521.8351 
   5   2.0000     -19.174419      -521.7625 
   6   2.0000     -14.449796      -393.1990 
   7   2.0000     -14.449539      -393.1919 
   8   2.0000     -14.446702      -393.1148 
   9   2.0000     -14.442835      -393.0095 
  10   2.0000     -14.440584      -392.9483 
  11   2.0000     -14.431654      -392.7053 
  12   2.0000     -14.427323      -392.5874 
  13   2.0000     -14.426040      -392.5525 
  14   2.0000     -14.422055      -392.4441 
  15   2.0000     -14.421150      -392.4194 
  16   2.0000     -14.420928      -392.4134 
  17   2.0000     -14.420481      -392.4012 
  18   2.0000     -10.371768      -282.2302 
  19   2.0000     -10.364987      -282.0456 
  20   2.0000     -10.363276      -281.9991 
  21   2.0000     -10.362748      -281.9847 
  22   2.0000     -10.355859      -281.7973 
  23   2.0000     -10.336699      -281.2759 
  24   2.0000     -10.334843      -281.2254 
  25   2.0000     -10.331398      -281.1316 
  26   2.0000     -10.327569      -281.0274 
  27   2.0000     -10.327027      -281.0127 
  28   2.0000     -10.326095      -280.9873 
  29   2.0000     -10.325267      -280.9648 
  30   2.0000     -10.324512      -280.9443 
  31   2.0000     -10.324093      -280.9329 
  32   2.0000     -10.322700      -280.8949 
  33   2.0000     -10.322348      -280.8854 
  34   2.0000     -10.320827      -280.8440 
  35   2.0000     -10.318396      -280.7778 
  36   2.0000     -10.317967      -280.7662 
  37   2.0000     -10.317803      -280.7617 
  38   2.0000     -10.317518      -280.7539 
  39   2.0000     -10.317131      -280.7434 
  40   2.0000     -10.317028      -280.7406 
  41   2.0000     -10.314525      -280.6725 
  42   2.0000     -10.314435      -280.6701 
  43   2.0000     -10.305597      -280.4295 
  44   2.0000     -10.304331      -280.3951 
  45   2.0000     -10.301791      -280.3260 
  46   2.0000     -10.301165      -280.3090 
  47   2.0000     -10.299540      -280.2647 
  48   2.0000     -10.295762      -280.1619 
  49   2.0000     -10.293451      -280.0990 
  50   2.0000     -10.292643      -280.0770 
  51   2.0000     -10.291814      -280.0545 
  52   2.0000     -10.291257      -280.0393 
  53   2.0000     -10.285530      -279.8835 
  54   2.0000     -10.284444      -279.8539 
  55   2.0000     -10.281536      -279.7748 
  56   2.0000     -10.280160      -279.7374 
  57   2.0000     -10.279624      -279.7228 
  58   2.0000     -10.275751      -279.6174 
  59   2.0000     -10.261239      -279.2225 
  60   2.0000     -10.260690      -279.2076 
  61   2.0000     -10.256800      -279.1017 
  62   2.0000     -10.251686      -278.9626 
  63   2.0000     -10.251479      -278.9569 
  64   2.0000     -10.250471      -278.9295 
  65   2.0000     -10.248286      -278.8700 
  66   2.0000     -10.246331      -278.8169 
  67   2.0000      -8.055782      -219.2090 
  68   2.0000      -6.024877      -163.9452 
  69   2.0000      -6.020854      -163.8358 
  70   2.0000      -6.018179      -163.7630 
  71   2.0000      -1.128981       -30.7211 
  72   2.0000      -1.122941       -30.5568 
  73   2.0000      -1.117440       -30.4071 
  74   2.0000      -1.115593       -30.3568 
  75   2.0000      -1.105063       -30.0703 
  76   2.0000      -1.089630       -29.6503 
  77   2.0000      -1.083260       -29.4770 
  78   2.0000      -1.079800       -29.3829 
  79   2.0000      -1.073358       -29.2076 
  80   2.0000      -1.057952       -28.7883 
  81   2.0000      -1.053556       -28.6687 
  82   2.0000      -1.046900       -28.4876 
  83   2.0000      -1.044289       -28.4166 
  84   2.0000      -1.021005       -27.7830 
  85   2.0000      -1.009251       -27.4631 
  86   2.0000      -1.001503       -27.2523 
  87   2.0000      -0.997326       -27.1386 
  88   2.0000      -0.987614       -26.8743 
  89   2.0000      -0.958730       -26.0884 
  90   2.0000      -0.939907       -25.5762 
  91   2.0000      -0.921996       -25.0888 
  92   2.0000      -0.917912       -24.9776 
  93   2.0000      -0.907154       -24.6849 
  94   2.0000      -0.900700       -24.5093 
  95   2.0000      -0.885507       -24.0959 
  96   2.0000      -0.872310       -23.7368 
  97   2.0000      -0.865855       -23.5611 
  98   2.0000      -0.861548       -23.4439 
  99   2.0000      -0.859211       -23.3803 
 100   2.0000      -0.848294       -23.0833 
 101   2.0000      -0.842690       -22.9308 
 102   2.0000      -0.824350       -22.4317 
 103   2.0000      -0.813557       -22.1380 
 104   2.0000      -0.811965       -22.0947 
 105   2.0000      -0.810159       -22.0455 
 106   2.0000      -0.797610       -21.7041 
 107   2.0000      -0.789315       -21.4784 
 108   2.0000      -0.785759       -21.3816 
 109   2.0000      -0.780232       -21.2312 
 110   2.0000      -0.770918       -20.9778 
 111   2.0000      -0.754297       -20.5255 
 112   2.0000      -0.752633       -20.4802 
 113   2.0000      -0.751054       -20.4372 
 114   2.0000      -0.742415       -20.2021 
 115   2.0000      -0.734241       -19.9797 
 116   2.0000      -0.730709       -19.8836 
 117   2.0000      -0.722055       -19.6481 
 118   2.0000      -0.720649       -19.6099 
 119   2.0000      -0.703489       -19.1429 
 120   2.0000      -0.700810       -19.0700 
 121   2.0000      -0.699443       -19.0328 
 122   2.0000      -0.693983       -18.8842 
 123   2.0000      -0.682540       -18.5729 
 124   2.0000      -0.679628       -18.4936 
 125   2.0000      -0.669222       -18.2105 
 126   2.0000      -0.664479       -18.0814 
 127   2.0000      -0.649464       -17.6728 
 128   2.0000      -0.647762       -17.6265 
 129   2.0000      -0.641821       -17.4648 
 130   2.0000      -0.641088       -17.4449 
 131   2.0000      -0.637704       -17.3528 
 132   2.0000      -0.628894       -17.1131 
 133   2.0000      -0.625493       -17.0205 
 134   2.0000      -0.617507       -16.8032 
 135   2.0000      -0.605670       -16.4811 
 136   2.0000      -0.602118       -16.3845 
 137   2.0000      -0.597861       -16.2686 
 138   2.0000      -0.590744       -16.0750 
 139   2.0000      -0.587948       -15.9989 
 140   2.0000      -0.585685       -15.9373 
 141   2.0000      -0.583989       -15.8911 
 142   2.0000      -0.583454       -15.8766 
 143   2.0000      -0.578146       -15.7322 
 144   2.0000      -0.573569       -15.6076 
 145   2.0000      -0.571732       -15.5576 
 146   2.0000      -0.569852       -15.5065 
 147   2.0000      -0.567926       -15.4541 
 148   2.0000      -0.565436       -15.3863 
 149   2.0000      -0.558529       -15.1983 
 150   2.0000      -0.557165       -15.1612 
 151   2.0000      -0.550207       -14.9719 
 152   2.0000      -0.543332       -14.7848 
 153   2.0000      -0.538620       -14.6566 
 154   2.0000      -0.536306       -14.5936 
 155   2.0000      -0.535939       -14.5836 
 156   2.0000      -0.529950       -14.4207 
 157   2.0000      -0.527560       -14.3556 
 158   2.0000      -0.526170       -14.3178 
 159   2.0000      -0.525142       -14.2898 
 160   2.0000      -0.521191       -14.1823 
 161   2.0000      -0.520475       -14.1628 
 162   2.0000      -0.519270       -14.1300 
 163   2.0000      -0.516902       -14.0656 
 164   2.0000      -0.515679       -14.0323 
 165   2.0000      -0.511616       -13.9218 
 166   2.0000      -0.510678       -13.8963 
 167   2.0000      -0.509076       -13.8527 
 168   2.0000      -0.506001       -13.7690 
 169   2.0000      -0.503905       -13.7120 
 170   2.0000      -0.503533       -13.7018 
 171   2.0000      -0.497911       -13.5489 
 172   2.0000      -0.496498       -13.5104 
 173   2.0000      -0.493919       -13.4402 
 174   2.0000      -0.493637       -13.4325 
 175   2.0000      -0.491163       -13.3652 
 176   2.0000      -0.485497       -13.2110 
 177   2.0000      -0.483491       -13.1565 
 178   2.0000      -0.481066       -13.0905 
 179   2.0000      -0.476157       -12.9569 
 180   2.0000      -0.474403       -12.9092 
 181   2.0000      -0.469856       -12.7854 
 182   2.0000      -0.467989       -12.7346 
 183   2.0000      -0.465289       -12.6612 
 184   2.0000      -0.462484       -12.5848 
 185   2.0000      -0.460776       -12.5384 
 186   2.0000      -0.456787       -12.4298 
 187   2.0000      -0.453078       -12.3289 
 188   2.0000      -0.451702       -12.2914 
 189   2.0000      -0.450917       -12.2701 
 190   2.0000      -0.448861       -12.2141 
 191   2.0000      -0.445367       -12.1190 
 192   2.0000      -0.442616       -12.0442 
 193   2.0000      -0.442083       -12.0297 
 194   2.0000      -0.439368       -11.9558 
 195   2.0000      -0.437544       -11.9062 
 196   2.0000      -0.434484       -11.8229 
 197   2.0000      -0.430836       -11.7236 
 198   2.0000      -0.429269       -11.6810 
 199   2.0000      -0.426866       -11.6156 
 200   2.0000      -0.423380       -11.5208 
 201   2.0000      -0.419524       -11.4158 
 202   2.0000      -0.417134       -11.3508 
 203   2.0000      -0.415760       -11.3134 
 204   2.0000      -0.414480       -11.2786 
 205   2.0000      -0.411611       -11.2005 
 206   2.0000      -0.410797       -11.1783 
 207   2.0000      -0.406955       -11.0738 
 208   2.0000      -0.399654       -10.8751 
 209   2.0000      -0.396982       -10.8024 
 210   2.0000      -0.389301       -10.5934 
 211   2.0000      -0.387419       -10.5422 
 212   2.0000      -0.372423       -10.1342 
 213   2.0000      -0.369990       -10.0679 
 214   2.0000      -0.360228        -9.8023 
 215   2.0000      -0.344038        -9.3618 
 216   2.0000      -0.339621        -9.2416 
 217   2.0000      -0.337992        -9.1972 
 218   2.0000      -0.335684        -9.1344 
 219   2.0000      -0.334749        -9.1090 
 220   2.0000      -0.330105        -8.9826 
 221   2.0000      -0.328215        -8.9312 
 222   2.0000      -0.325148        -8.8477 
 223   2.0000      -0.320561        -8.7229 
 224   2.0000      -0.319422        -8.6919 
 225   2.0000      -0.313753        -8.5376 
 226   2.0000      -0.311469        -8.4755 
 227   2.0000      -0.308775        -8.4022 
 228   2.0000      -0.307916        -8.3788 
 229   2.0000      -0.305063        -8.3012 
 230   2.0000      -0.304372        -8.2824 
 231   2.0000      -0.292345        -7.9551 
 232   2.0000      -0.265945        -7.2367 
 233   2.0000      -0.253383        -6.8949 
 234   2.0000      -0.223127        -6.0716 
 235   0.0000      -0.087833        -2.3900 
 236   0.0000      -0.086150        -2.3443 
 237   0.0000      -0.070452        -1.9171 
 238   0.0000      -0.039829        -1.0838 
 239   0.0000      -0.015691        -0.4270 
 240   0.0000      -0.011932        -0.3247 
 241   0.0000      -0.001731        -0.0471 
 242   0.0000      -0.000590        -0.0161 
 243   0.0000       0.006816         0.1855 
 244   0.0000       0.019354         0.5266 
 245   0.0000       0.040800         1.1102 
 246   0.0000       0.050082         1.3628 
 247   0.0000       0.064650         1.7592 
 248   0.0000       0.066541         1.8107 
 249   0.0000       0.071609         1.9486 
 250   0.0000       0.082237         2.2378 
[...]
  32   4.180     296.6   0.012882   0.010148  -3.806816  -3.273349     0.60 (  85->  89)    0.21 (  81->  89)    0.05 (  84->  89)
  33   4.226     293.4   0.009424   0.009291   2.385381   3.705974     0.27 (  73->  88)    0.19 (  76->  89)    0.16 (  73->  87)
  34   4.341     285.6   0.102951   0.087948  54.949766  51.220653     0.62 (  86->  92)    0.06 (  70->  88)    0.05 (  86->  91)
  35   4.363     284.2   0.024566   0.022418  10.698202  20.584630     0.53 (  73->  89)    0.05 (  77->  89)    0.04 (  84->  94)
  36   4.374     283.5   0.005748   0.005276   5.591506   8.683172     0.37 (  84->  91)    0.35 (  86->  91)    0.05 (  83->  91)
  37   4.483     276.6   0.009946   0.008783  19.930409  17.886896     0.51 (  72->  89)    0.09 (  84->  90)    0.07 (  66->  89)
  38   4.495     275.8   0.039936   0.038140   0.232222   3.362608     0.29 (  84->  90)    0.11 (  71->  87)    0.06 (  86->  96)
  39   4.516     274.5   0.019423   0.016035  14.822036  16.278984     0.24 (  71->  87)    0.18 (  84->  90)    0.10 (  71->  88)
  40   4.520     274.3   0.002616   0.002607  -6.971555  -8.061209     0.19 (  80->  89)    0.14 (  81->  89)    0.13 (  79->  89)
  41   4.567     271.5   0.010446   0.011019   7.644512  13.603506     0.22 (  68->  87)    0.17 (  68->  88)    0.07 (  66->  88)
  42   4.616     268.6   0.014875   0.014405  13.170899  15.161309     0.23 (  66->  88)    0.13 (  81->  87)    0.12 (  66->  87)
  43   4.641     267.1   0.004761   0.003415   2.183867   0.361115     0.24 (  68->  88)    0.19 (  81->  87)    0.10 (  66->  88)
  44   4.677     265.1   0.000372   0.000395   0.047396   0.029571     0.34 (  80->  88)    0.29 (  79->  88)    0.17 (  80->  87)
  45   4.730     262.1   0.003526   0.003684  -0.671154  -5.508203     0.24 (  70->  89)    0.20 (  83->  89)    0.08 (  79->  89)
  46   4.745     261.3   0.063142   0.054766   9.119238   9.773478     0.36 (  86->  96)    0.10 (  71->  87)    0.06 (  83->  89)
  47   4.782     259.3   0.005448   0.005262  -8.779110  -7.054897     0.15 (  78->  87)    0.11 (  77->  87)    0.09 (  78->  88)
  48   4.808     257.9   0.017304   0.016819  58.764124  57.410305     0.22 (  70->  89)    0.08 (  84->  95)    0.06 (  86->  96)
  49   4.826     256.9   0.185885   0.167276  31.114952  29.031863     0.23 (  84->  95)    0.12 (  84->  92)    0.10 (  84->  94)
  50   4.889     253.6   0.288719   0.249147  -275.288138  -226.263992     0.11 (  84->  92)    0.08 (  84->  95)    0.08 (  64->  88)
  51   4.920     252.0   0.004371   0.004552  14.072281  15.112482     0.11 (  70->  89)    0.09 (  79->  89)    0.09 (  80->  89)
  52   4.934     251.3   0.088660   0.076237  -5.888516  -16.586162     0.12 (  74->  88)    0.06 (  86->  94)    0.05 (  74->  87)
  53   4.940     251.0   0.163663   0.140932  -3.246442  -0.972321     0.34 (  86->  94)    0.07 (  86->  93)    0.04 (  78->  87)
  54   4.951     250.4   0.081947   0.069794  -58.572694  -55.907535     0.15 (  74->  88)    0.08 (  86->  94)    0.07 (  77->  87)
  55   4.956     250.2   0.127135   0.105748  32.376485  27.845587     0.20 (  74->  88)    0.10 (  80->  90)    0.10 (  74->  87)
  56   4.986     248.7   0.313987   0.269244  -45.871926  -73.706131     0.16 (  84->  92)    0.08 (  70->  88)    0.08 (  77->  87)

-----------------------------------------------------------------------------
         ABSORPTION SPECTRUM VIA TRANSITION ELECTRIC DIPOLE MOMENTS
-----------------------------------------------------------------------------
State   Energy  Wavelength   fosc         T2         TX        TY        TZ  
        (cm-1)    (nm)                  (au**2)     (au)      (au)      (au) 
-----------------------------------------------------------------------------
   0   14407.3    694.1   0.960760953  21.95368   3.38128  -2.99403  -1.24757
   1   17617.0    567.6   0.065898137   1.23145  -0.70580  -0.79774  -0.31131
   2   20081.5    498.0   0.030913793   0.50679   0.45292   0.53157   0.13817
   3   21329.2    468.8   0.225904169   3.48679   0.28445   1.70538   0.70538
   4   23609.3    423.6   0.134145314   1.87054   0.15064   1.25179   0.52997
   5   24261.4    412.2   0.003339151   0.04531   0.00702   0.19838   0.07685
   6   25256.7    395.9   0.019827590   0.25845  -0.42579  -0.26592   0.08023
   7   25593.0    390.7   0.009584162   0.12328   0.00939   0.29157   0.19541
   8   25918.1    385.8   0.051877504   0.65895   0.21203  -0.73796  -0.26345
   9   26154.0    382.4   0.077274275   0.97268  -0.45945   0.82541   0.28335
  10   26206.6    381.6   0.037889788   0.47598  -0.12950   0.60487   0.30551
  11   26449.8    378.1   0.014698030   0.18294  -0.22387   0.02801  -0.36337
  12   26889.9    371.9   0.003461954   0.04238  -0.18684   0.07285   0.04655
  13   26984.8    370.6   0.014535633   0.17733  -0.00845   0.40189   0.12548
  14   27250.7    367.0   0.002378667   0.02874  -0.11515  -0.12430  -0.00519
  15   27501.3    363.6   0.017847431   0.21365   0.04132  -0.43302  -0.15631
  16   28703.1    348.4   0.021321661   0.24455  -0.13360  -0.42935  -0.20580
  17   28761.0    347.7   0.000526671   0.00603   0.07096  -0.00477  -0.03116
  18   29628.9    337.5   0.001443695   0.01604   0.00675  -0.03228  -0.12229
  19   29717.5    336.5   0.030729977   0.34043  -0.43537   0.22336  -0.31779
  20   30424.7    328.7   0.289494136   3.13248  -0.05490   1.66179   0.60657
  21   30897.4    323.7   0.007412172   0.07898   0.27091   0.06828   0.03034
  22   31413.5    318.3   0.108099900   1.13288  -1.01704   0.12023   0.28992
  23   31770.2    314.8   0.044413448   0.46023  -0.63728   0.00083   0.23260
  24   31967.9    312.8   0.014291410   0.14718  -0.14769  -0.08583  -0.34351
  25   32199.6    310.6   0.008357119   0.08544   0.20653  -0.10541  -0.17798
  26   32488.1    307.8   0.017391437   0.17623   0.15609   0.37004  -0.12223
  27   32522.4    307.5   0.002772058   0.02806   0.05163  -0.13233  -0.08879
  28   32733.5    305.5   0.030130886   0.30304   0.08588   0.50990   0.18885
  29   33058.3    302.5   0.006151912   0.06126   0.22536   0.02971   0.09796
  30   33417.7    299.2   0.015915992   0.15679  -0.06420   0.36239   0.14611
  31   33653.8    297.1   0.365068731   3.57122  -0.20785   1.78149   0.59525
  32   33710.2    296.6   0.012882490   0.12581  -0.01078   0.31800   0.15674
  33   34084.6    293.4   0.009424284   0.09103  -0.26367  -0.09025   0.11559
  34   35010.5    285.6   0.102951438   0.96808   0.85549  -0.35457   0.33240
  35   35191.2    284.2   0.024566087   0.22981   0.30755   0.29222  -0.22324
  36   35277.1    283.5   0.005748187   0.05364   0.22904  -0.02693   0.02140
  37   36156.0    276.6   0.009945655   0.09056  -0.04664   0.25473   0.15329
  38   36255.0    275.8   0.039935847   0.36264  -0.43334   0.37339   0.18825
  39   36423.4    274.5   0.019423183   0.17556  -0.26989   0.31943   0.02602
  40   36458.1    274.3   0.002615822   0.02362  -0.08631   0.03326   0.12274
  41   36831.9    271.5   0.010445520   0.09336   0.30405   0.00684   0.02956
  42   37227.3    268.6   0.014874608   0.13154   0.16880   0.29119   0.13512
  43   37436.0    267.1   0.004761140   0.04187  -0.06317  -0.14172  -0.13340
  44   37724.9    265.1   0.000372362   0.00325  -0.00383   0.05611   0.00932
  45   38153.0    262.1   0.003526125   0.03043  -0.05541   0.15608  -0.05471
  46   38274.1    261.3   0.063141775   0.54311   0.08404  -0.68651  -0.25446
  47   38569.0    259.3   0.005448403   0.04651   0.09885  -0.06706   0.17955
  48   38778.2    257.9   0.017303699   0.14690   0.10230   0.27256   0.24929
  49   38924.5    256.9   0.185885358   1.57217   1.08256  -0.00845   0.63259
  50   39434.0    253.6   0.288719054   2.41035  -1.16448   0.98046  -0.30503
  51   39678.7    252.0   0.004371467   0.03627   0.18880  -0.02027   0.01463
  52   39792.7    251.3   0.088659663   0.73350   0.22000  -0.79669   0.22446
  53   39841.6    251.0   0.163663079   1.35235   1.08606   0.41262   0.05067
  54   39930.9    250.4   0.081947100   0.67562   0.51479  -0.60384  -0.21445
  55   39973.1    250.2   0.127135142   1.04706  -0.65167   0.75121   0.24098
  56   40214.8    248.7   0.313986551   2.57040   1.31972  -0.29358   0.86171

-----------------------------------------------------------------------------
         ABSORPTION SPECTRUM VIA TRANSITION VELOCITY DIPOLE MOMENTS
-----------------------------------------------------------------------------
State   Energy  Wavelength   fosc         P2         PX        PY        PZ  
        (cm-1)    (nm)                  (au**2)     (au)      (au)      (au) 
-----------------------------------------------------------------------------
   0   14407.3    694.1   1.384151351   0.13629   0.27789  -0.22386  -0.09462
   1   17617.0    567.6   0.082715930   0.00996  -0.06750  -0.06886  -0.02570
   2   20081.5    498.0   0.040283466   0.00553   0.04985   0.05348   0.01352
   3   21329.2    468.8   0.249977121   0.03644   0.03249   0.17406   0.07132
   4   23609.3    423.6   0.134720910   0.02174   0.01814   0.13460   0.05738
   5   24261.4    412.2   0.003989323   0.00066   0.00137   0.02421   0.00858
   6   25256.7    395.9   0.026196587   0.00452  -0.05650  -0.03267   0.01620
   7   25593.0    390.7   0.009940132   0.00174   0.00189   0.03438   0.02352
   8   25918.1    385.8   0.049202417   0.00872   0.02690  -0.08426  -0.02987
   9   26154.0    382.4   0.069774367   0.01247  -0.05249   0.09288   0.03301
  10   26206.6    381.6   0.035696277   0.00639  -0.01053   0.07013   0.03693
  11   26449.8    378.1   0.021954678   0.00397  -0.02818   0.00917  -0.05560
  12   26889.9    371.9   0.003063747   0.00056  -0.02175   0.00755   0.00572
  13   26984.8    370.6   0.014293939   0.00264  -0.00344   0.04885   0.01543
  14   27250.7    367.0   0.002541374   0.00047  -0.01651  -0.01416  -0.00048
  15   27501.3    363.6   0.016202405   0.00305   0.00232  -0.05241  -0.01711
  16   28703.1    348.4   0.020938279   0.00411  -0.01741  -0.05603  -0.02579
  17   28761.0    347.7   0.000623871   0.00012   0.00897  -0.00004  -0.00650
  18   29628.9    337.5   0.001774697   0.00036   0.00167  -0.00319  -0.01861
  19   29717.5    336.5   0.024887755   0.00505  -0.05325   0.02937  -0.03684
  20   30424.7    328.7   0.260095170   0.05408  -0.00630   0.21850   0.07937
  21   30897.4    323.7   0.007608681   0.00161   0.03742   0.01360   0.00462
  22   31413.5    318.3   0.089623902   0.01924  -0.13248   0.01701   0.03743
  23   31770.2    314.8   0.052505797   0.01140  -0.10171  -0.00096   0.03246
  24   31967.9    312.8   0.013675391   0.00299  -0.01941  -0.01785  -0.04788
  25   32199.6    310.6   0.008533753   0.00188   0.03080  -0.01499  -0.02655
  26   32488.1    307.8   0.017891006   0.00397   0.02638   0.05526  -0.01492
  27   32522.4    307.5   0.002197996   0.00049   0.00865  -0.01609  -0.01244
  28   32733.5    305.5   0.025141047   0.00562   0.01217   0.06940   0.02570
  29   33058.3    302.5   0.005680206   0.00128   0.03301  -0.00148   0.01384
  30   33417.7    299.2   0.013584679   0.00310  -0.00817   0.05032   0.02244
  31   33653.8    297.1   0.311900034   0.07174  -0.02336   0.25344   0.08344
  32   33710.2    296.6   0.010148462   0.00234  -0.00053   0.04327   0.02158
  33   34084.6    293.4   0.009290981   0.00216  -0.04030  -0.01464   0.01805
  34   35010.5    285.6   0.087948130   0.02104   0.12642  -0.05037   0.05026
  35   35191.2    284.2   0.022418209   0.00539   0.04317   0.04796  -0.03505
  36   35277.1    283.5   0.005275999   0.00127   0.03548  -0.00290   0.00217
  37   36156.0    276.6   0.008782978   0.00217  -0.00466   0.03863   0.02562
  38   36255.0    275.8   0.038140407   0.00945  -0.06651   0.06333   0.03189
  39   36423.4    274.5   0.016035243   0.00399  -0.04567   0.04355   0.00309
  40   36458.1    274.3   0.002607106   0.00065  -0.01516   0.00376   0.02014
  41   36831.9    271.5   0.011019194   0.00277   0.05240   0.00395   0.00348
  42   37227.3    268.6   0.014404859   0.00367   0.02604   0.05068   0.02045
  43   37436.0    267.1   0.003415344   0.00087  -0.00790  -0.01938  -0.02087
  44   37724.9    265.1   0.000395181   0.00010  -0.00041   0.00995   0.00164
  45   38153.0    262.1   0.003683796   0.00096  -0.00594   0.02899  -0.00920
  46   38274.1    261.3   0.054765731   0.01433   0.01259  -0.11153  -0.04158
  47   38569.0    259.3   0.005262106   0.00139   0.01711  -0.00929   0.03175
  48   38778.2    257.9   0.016819094   0.00446   0.01736   0.04844   0.04254
  49   38924.5    256.9   0.167276236   0.04450   0.18270  -0.00398   0.10538
  50   39434.0    253.6   0.249147173   0.06715  -0.19916   0.15719  -0.05267
  51   39678.7    252.0   0.004552310   0.00123   0.03501   0.00191   0.00227
  52   39792.7    251.3   0.076236797   0.02073   0.03419  -0.13419   0.03947
  53   39841.6    251.0   0.140931908   0.03838   0.18372   0.06756   0.00762
  54   39930.9    250.4   0.069794118   0.01905   0.08900  -0.09943  -0.03521
  55   39973.1    250.2   0.105747689   0.02889  -0.10908   0.12428   0.03931
  56   40214.8    248.7   0.269244246   0.07400   0.22255  -0.05208   0.14751

-------------------------------------------------------------------
                             CD SPECTRUM
-------------------------------------------------------------------
State   Energy Wavelength       R         MX        MY        MZ   
        (cm-1)   (nm)       (1e40*cgs)   (au)      (au)      (au)  
-------------------------------------------------------------------
   0   14407.3    694.1     -6.13477   0.40962  -0.04313   1.19283
   1   17617.0    567.6    -14.65227   0.07616   0.57423  -1.84379
   2   20081.5    498.0     14.14357  -0.12088  -0.00917  -0.00275
   3   21329.2    468.8    -78.73469  -0.35041  -0.94144   2.89095
   4   23609.3    423.6    -30.85685  -0.36835  -0.66829   1.93022
   5   24261.4    412.2      5.96237  -0.11699   0.03028  -0.39665
   6   25256.7    395.9    -33.56931  -0.93741   0.37453  -1.95865
   7   25593.0    390.7     -9.25547  -0.45107  -0.17896   0.48963
   8   25918.1    385.8     -4.76678   0.01224  -0.00634  -0.04916
   9   26154.0    382.4     48.86913  -0.14721  -0.05115  -0.82136
  10   26206.6    381.6    -13.19467  -0.50309  -0.20555   0.37693
  11   26449.8    378.1      2.37128   1.95771   1.19278  -1.08649
  12   26889.9    371.9     -2.41731   0.00273  -0.25166   0.62513
  13   26984.8    370.6     48.46818   0.04071  -0.52619   0.04939
  14   27250.7    367.0      2.75946  -0.08798   0.21108  -0.84746
  15   27501.3    363.6      1.15897   0.03744   0.19404  -0.49618
  16   28703.1    348.4     -0.94806   0.14544   0.48533  -1.12645
  17   28761.0    347.7      1.01326   0.05898  -0.09989   0.28756
  18   29628.9    337.5      0.65789   0.21430   0.15666  -0.00669
  19   29717.5    336.5      3.11730   0.89660   0.79718  -0.62640
  20   30424.7    328.7     25.94710  -0.41494  -0.71222   1.73220
  21   30897.4    323.7     -2.51452  -0.02040  -0.83070   2.40281
  22   31413.5    318.3    -62.79123  -1.41212   1.36052  -4.59919
  23   31770.2    314.8    -141.47004  -0.50755  -0.62629   1.19185
  24   31967.9    312.8    108.38830   1.64826   0.37527   0.53618
  25   32199.6    310.6     -1.36698   0.24246   0.16115   0.15333
  26   32488.1    307.8      7.62340   1.24875  -0.21243   1.21607
  27   32522.4    307.5     11.92031   0.45543   0.43612   0.18440
  28   32733.5    305.5     -4.80826  -0.01812  -0.36927   1.11332
  29   33058.3    302.5     26.47023  -0.58135  -0.02028   0.19722
  30   33417.7    299.2     17.24003  -0.15631  -0.32301   0.23189
  31   33653.8    297.1    -11.45104  -0.20639  -0.38724   1.16850
  32   33710.2    296.6     -3.80682  -0.20833  -0.21094   0.51665
  33   34084.6    293.4      2.38538  -0.80571   0.31112  -1.68254
  34   35010.5    285.6     54.94977  -2.13121  -1.75214   2.91481
  35   35191.2    284.2     10.69820   1.29741  -0.11689   1.83772
  36   35277.1    283.5      5.59151  -0.29347  -0.52920   1.36685
  37   36156.0    276.6     19.93041  -0.02887  -0.43618   0.16445
  38   36255.0    275.8      0.23222  -0.31700  -0.04601  -0.64369
  39   36423.4    274.5     14.82204   0.32775   0.08388  -0.04680
  40   36458.1    274.3     -6.97155  -0.66284  -0.09831  -0.19847
  41   36831.9    271.5      7.64451  -0.24363  -0.57995   1.54295
  42   37227.3    268.6     13.17090  -0.75180  -0.31477   1.20396
  43   37436.0    267.1      2.18387   0.00609   0.42075  -0.38042
  44   37724.9    265.1      0.04740   0.05046   0.00653  -0.04014
  45   38153.0    262.1     -0.67115   0.87448   0.23005  -0.28148
  46   38274.1    261.3      9.11924   0.68225  -0.19096   0.89257
  47   38569.0    259.3     -8.77911  -1.05479  -0.66839   0.53850
  48   38778.2    257.9     58.76412  -1.07680  -0.31044  -0.21871
  49   38924.5    256.9     31.11495  -2.94432  -2.74648   4.79331
  50   39434.0    253.6    -275.28814   2.66457   2.83109  -4.90090
  51   39678.7    252.0     14.07228  -0.33482  -0.08189   0.12686
  52   39792.7    251.3     -5.88852  -2.92383  -0.81164   0.09616
  53   39841.6    251.0     -3.24644   0.56993  -2.34485   7.15019
  54   39930.9    250.4    -58.57269   0.48179  -0.70803   1.99145
  55   39973.1    250.2     32.37649   0.20343   0.83648  -2.62734
  56   40214.8    248.7    -45.87193  -4.91887  -4.09149   6.36516

sTD-DFT done

Total run time:        3.225 sec

           *** ORCA-CIS/TD-DFT FINISHED WITHOUT ERROR ***

-------------------------   --------------------
FINAL SINGLE POINT ENERGY     -3316.481685551003
-------------------------   --------------------


                            ***************************************
                            *     ORCA property calculations      *
                            ***************************************

                                    ---------------------
                                    Active property flags
                                    ---------------------
   (+) Dipole Moment


------------------------------------------------------------------------------
                       ORCA ELECTRIC PROPERTIES CALCULATION
------------------------------------------------------------------------------

Dipole Moment Calculation                       ... on
Quadrupole Moment Calculation                   ... off
Polarizability Calculation                      ... off
GBWName                                         ... xtbopt.gbw
Electron density file                           ... xtbopt.scfp
The origin for moment calculation is the CENTER OF MASS  = (-7.225740, 19.720951  6.199597)

-------------
DIPOLE MOMENT
-------------
                                X             Y             Z
Electronic contribution:    -40.09146      78.43756      37.74468
Nuclear contribution   :     40.16942     -76.57317     -37.99029
                        -----------------------------------------
Total Dipole Moment    :      0.07796       1.86439      -0.24561
                        -----------------------------------------
Magnitude (a.u.)       :      1.88212
Magnitude (Debye)      :      4.78396



--------------------
Rotational spectrum 
--------------------
 
Rotational constants in cm-1:     0.002588     0.000327     0.000296 
Rotational constants in MHz :    77.582599     9.805149     8.868968 

 Dipole components along the rotational axes: 
x,y,z [a.u.] :    -1.489897     0.724639    -0.893013 
x,y,z [Debye]:    -3.787016     1.841885    -2.269858 

 

Timings for individual modules:

Sum of individual times         ...      597.011 sec (=   9.950 min)
GTO integral calculation        ...        2.849 sec (=   0.047 min)   0.5 %
SCF iterations                  ...      590.214 sec (=   9.837 min)  98.9 %
CIS module                      ...        3.948 sec (=   0.066 min)   0.7 %
                             ****ORCA TERMINATED NORMALLY****
TOTAL RUN TIME: 0 days 0 hours 9 minutes 58 seconds 31 msec
