
                                 *****************
                                 * O   R   C   A *
                                 *****************

           --- An Ab Initio, DFT and Semiempirical electronic structure package ---

                  #######################################################
                  #                        -***-                        #
                  #          Department of theory and spectroscopy      #
                  #               Directorship: Frank Neese             #
                  #        Max Planck Institute fuer Kohlenforschung    #
                  #                Kaiser Wilhelm Platz 1               #
                  #                 D-45470 Muelheim/Ruhr               #
                  #                      Germany                        #
                  #                                                     #
                  #                  All rights reserved                #
                  #                        -***-                        #
                  #######################################################


                         Program Version 4.2.0 -  RELEASE  -


 With contributions from (in alphabetic order):
   Daniel Aravena         : Magnetic Suceptibility
   Michael Atanasov       : Ab Initio Ligand Field Theory (pilot matlab implementation)
   Alexander A. Auer      : GIAO ZORA, VPT2
   Ute Becker             : Parallelization
   Giovanni Bistoni       : ED, misc. LED, open-shell LED, HFLED
   Martin Brehm           : Molecular dynamics
   Dmytro Bykov           : SCF Hessian
   Vijay G. Chilkuri      : MRCI spin determinant printing, contributions to CSF-ICE
   Dipayan Datta          : RHF DLPNO-CCSD density
   Achintya Kumar Dutta   : EOM-CC, STEOM-CC
   Dmitry Ganyushin       : Spin-Orbit,Spin-Spin,Magnetic field MRCI
   Miquel Garcia          : C-PCM Hessian, Gaussian charge scheme
   Yang Guo               : DLPNO-NEVPT2, CIM, IAO-localization
   Andreas Hansen         : Spin unrestricted coupled pair/coupled cluster methods
   Benjamin Helmich-Paris : CASSCF linear response (MC-RPA)
   Lee Huntington         : MR-EOM, pCC
   Robert Izsak           : Overlap fitted RIJCOSX, COSX-SCS-MP3, EOM
   Christian Kollmar      : KDIIS, OOCD, Brueckner-CCSD(T), CCSD density
   Simone Kossmann        : Meta GGA functionals, TD-DFT gradient, OOMP2, MP2 Hessian
   Martin Krupicka        : AUTO-CI
   Lucas Lang             : DCDCAS
   Dagmar Lenk            : GEPOL surface, SMD
   Dimitrios Liakos       : Extrapolation schemes; Compound Job, initial MDCI parallelization
   Dimitrios Manganas     : Further ROCIS development; embedding schemes
   Dimitrios Pantazis     : SARC Basis sets
   Taras Petrenko         : DFT Hessian,TD-DFT gradient, ASA, ECA, R-Raman, ABS, FL, XAS/XES, NRVS
   Peter Pinski           : DLPNO-MP2, DLPNO-MP2 Gradient
   Christoph Reimann      : Effective Core Potentials
   Marius Retegan         : Local ZFS, SOC
   Christoph Riplinger    : Optimizer, TS searches, QM/MM, DLPNO-CCSD(T), (RO)-DLPNO pert. Triples
   Tobias Risthaus        : Range-separated hybrids, TD-DFT gradient, RPA, STAB
   Michael Roemelt        : Original ROCIS implementation
   Masaaki Saitow         : Open-shell DLPNO-CCSD energy and density
   Barbara Sandhoefer     : DKH picture change effects
   Avijit Sen             : IP-ROCIS
   Kantharuban Sivalingam : CASSCF convergence, NEVPT2, FIC-MRCI
   Bernardo de Souza      : ESD, SOC TD-DFT
   Georgi Stoychev        : AutoAux, RI-MP2 NMR
   Willem Van den Heuvel  : Paramagnetic NMR
   Boris Wezisla          : Elementary symmetry handling
   Frank Wennmohs         : Technical directorship


 We gratefully acknowledge several colleagues who have allowed us to
 interface, adapt or use parts of their codes:
   Stefan Grimme, W. Hujo, H. Kruse,             : VdW corrections, initial TS optimization,
                  C. Bannwarth                     DFT functionals, gCP, sTDA/sTD-DF
   Ed Valeev, F. Pavosevic, A. Kumar             : LibInt (2-el integral package), F12 methods
   Garnet Chan, S. Sharma, J. Yang, R. Olivares  : DMRG
   Ulf Ekstrom                                   : XCFun DFT Library
   Mihaly Kallay                                 : mrcc  (arbitrary order and MRCC methods)
   Andreas Klamt, Michael Diedenhofen            : otool_cosmo (COSMO solvation model)
   Jiri Pittner, Ondrej Demel                    : Mk-CCSD
   Frank Weinhold                                : gennbo (NPA and NBO analysis)
   Christopher J. Cramer and Donald G. Truhlar   : smd solvation model
   Lars Goerigk                                  : TD-DFT with DH, B97 family of functionals
   V. Asgeirsson, H. Jonsson                     : NEB implementation
   FAccTs GmbH                                   : IRC, NEB, NEB-TS, Multilevel, MM, QM/MM, CI optimization
   S Lehtola, MJT Oliveira, MAL Marques          : LibXC Library


 Your calculation uses the libint2 library for the computation of 2-el integrals
 For citations please refer to: http://libint.valeyev.net

 Your ORCA version has been built with support for libXC version: 4.2.3
 For citations please refer to: https://tddft.org/programs/libxc/

 This ORCA versions uses:
   CBLAS   interface :  Fast vector & matrix operations
   LAPACKE interface :  Fast linear algebra routines
   SCALAPACK package :  Parallel linear algebra routines


XCFun DFT library Copyright 2009-2010 Ulf Ekstrom and contributors.
See http://admol.org/xcfun for more information. This is free soft-
ware; see the source code for copying conditions. There is ABSOLUTELY
NO WARRANTY; not even for MERCHANTABILITY or FITNESS FOR A PARTICULAR
PURPOSE. For details see the documentation. Scientific users of this 
library should cite U. Ekstrom, L. Visscher, R. Bast, A. J. Thorvald-
sen and K. Ruud; J.Chem.Theor.Comp. 2010, DOI: 10.1021/ct100117s
XCFun Version 0.99 
----- Orbital basis set information -----
Your calculation utilizes the basis: def2-SVP
   F. Weigend and R. Ahlrichs, Phys. Chem. Chem. Phys. 7, 3297 (2005).

----- AuxJ basis set information -----
Your calculation utilizes the auxiliary basis: def2/J
   F. Weigend, Phys. Chem. Chem. Phys. 8, 1057 (2006).

================================================================================
                                        WARNINGS
                       Please study these warnings very carefully!
================================================================================

INFO   : Checking CIS options ...

WARNING: CIS/ROCIS methods need fully converged wavefunctions
  ===> : Setting SCFConvForced true
         You can overwrite this default with %scf ConvForced false 


INFO   : the flag for use of LIBINT has been found!

================================================================================
                                       INPUT FILE
================================================================================
NAME = xtbopt.inp
|  1> # ORCA input file
|  2> # SCF done       -159.439255208189          0.000520923275
|  3> ! CAM-B3LYP def2-SVP def2/J RIJCOSX Grid4 TightSCF
|  4> %maxcore 5000
|  5> %tddft
|  6>     Mode sTDDFT
|  7>     Ethresh 5.0
|  8>     maxcore 5000
|  9> end
| 10> 
| 11> %pal
| 12>   nprocs 6
| 13>   end
| 14> * xyz 0 1
| 15>    C       -0.06580         5.65919        12.32294
| 16>    N        0.51411         5.05078        11.25516
| 17>    C        1.44433         3.95132        11.31230
| 18>    C        2.83829         4.41730        11.72480
| 19>    C        0.15049         5.68138        10.03959
| 20>    O        0.54198         5.31604         8.94977
| 21>    C       -0.72912         6.74415        10.45805
| 22>    C       -0.83909         6.69746        11.88152
| 23>    C       -1.72307         7.77073        12.28201
| 24>    O       -2.12732         8.13525        13.36298
| 25>    N       -2.07750         8.40834        11.06854
| 26>    C       -3.03725         9.48501        11.09631
| 27>    C       -4.40835         9.04417        10.58933
| 28>    C       -1.49126         7.79892         9.97857
| 29>    C       -1.55694         8.11829         8.59453
| 30>    C       -2.12965         9.17774         7.97444
| 31>    C       -2.09763         9.38275         6.56734
| 32>    S       -2.80817        10.83922         5.91287
| 33>    C       -2.40633        10.38232         4.28927
| 34>    C       -1.75397         9.14656         4.28405
| 35>    C       -1.58106         8.59376         5.56189
| 36>    C       -1.31932         8.53288         3.09648
| 37>    N       -0.96941         8.03863         2.12244
| 38>    C       -2.71130        11.17625         3.15862
| 39>    C       -3.30947        12.39046         3.21664
| 40>    C       -3.62088        13.19326         2.09184
| 41>    S       -3.30859        12.68638         0.45336
| 42>    C       -3.95863        14.16184        -0.19911
| 43>    C       -4.39089        14.99867         0.83494
| 44>    C       -4.19830        14.44565         2.11055
| 45>    C       -4.97937        16.26489         0.67708
| 46>    N       -5.46719        17.30203         0.62096
| 47>    C       -3.98909        14.32938        -1.60433
| 48>    C       -4.42538        15.43578        -2.26099
| 49>    C       -4.47984        15.56410        -3.67263
| 50>    C       -4.91426        16.67919        -4.35762
| 51>    C       -4.87948        16.41796        -5.75826
| 52>    C       -4.36369        15.04365        -5.89931
| 53>    C       -4.12269        14.55187        -4.65603
| 54>    C       -4.10945        14.36200        -7.09400
| 55>    N       -3.87944        13.77883        -8.05722
| 56>    C       -5.26694        17.24710        -6.78153
| 57>    C       -5.37270        16.92822        -8.17045
| 58>    C       -5.83895        18.01669        -8.85492
| 59>    C       -6.03779        19.09465        -7.89197
| 60>    C       -5.69313        18.65535        -6.65415
| 61>    C       -5.71012        19.42909        -5.49050
| 62>    N       -5.73419        20.09881        -4.55693
| 63>    C       -6.20798        18.15221       -10.25429
| 64>    C       -5.41166        17.72042       -11.33028
| 65>    C       -4.00221        17.27334       -11.03569
| 66>    C       -3.15562        18.44899       -10.53998
| 67>    C       -5.90631        17.81841       -12.63375
| 68>    C       -5.09564        17.31617       -13.80466
| 69>    C       -4.12048        18.37455       -14.32512
| 70>    C       -7.16684        18.39306       -12.87400
| 71>    C       -7.70109        18.50748       -14.28064
| 72>    C       -8.98860        19.30878       -14.43963
| 73>    C       -7.91381        18.85706       -11.79956
| 74>    C       -7.44444        18.74179       -10.51089
| 75>    H        0.10833         5.30522        13.32240
| 76>    H        1.47786         3.52091        10.30780
| 77>    H        1.06956         3.20024        12.01386
| 78>    H        3.21405         5.14648        11.01120
| 79>    H        3.51871         3.57086        11.74888
| 80>    H        2.81423         4.87549        12.71125
| 81>    H       -2.65654        10.34147        10.53359
| 82>    H       -3.11663         9.77549        12.14878
| 83>    H       -4.35097         8.66821         9.57028
| 84>    H       -5.09855         9.88305        10.61639
| 85>    H       -4.79848         8.25360        11.22561
| 86>    H       -1.02975         7.39041         7.99160
| 87>    H       -2.64027         9.94783         8.53104
| 88>    H       -1.09719         7.64884         5.73030
| 89>    H       -2.42910        10.75914         2.19926
| 90>    H       -3.57786        12.80625         4.18022
| 91>    H       -4.47633        14.95209         3.01826
| 92>    H       -3.62537        13.48184        -2.16977
| 93>    H       -4.76935        16.29227        -1.69815
| 94>    H       -5.25176        17.59490        -3.91255
| 95>    H       -3.73137        13.57619        -4.43562
| 96>    H       -5.17957        15.95384        -8.57238
| 97>    H       -6.36742        20.08535        -8.14740
| 98>    H       -3.52724        16.86002       -11.92137
| 99>    H       -4.00390        16.49312       -10.27633
|100>    H       -3.54241        18.83813        -9.60086
|101>    H       -3.15861        19.25806       -11.26778
|102>    H       -2.12845        18.12891       -10.38090
|103>    H       -5.76294        17.02206       -14.61379
|104>    H       -4.54115        16.42092       -13.52094
|105>    H       -4.64954        19.28476       -14.59880
|106>    H       -3.59640        18.00349       -15.20324
|107>    H       -3.38436        18.62880       -13.56775
|108>    H       -7.87732        17.49735       -14.66554
|109>    H       -6.93679        18.96598       -14.91236
|110>    H       -9.81811        18.83405       -13.92101
|111>    H       -9.24537        19.36881       -15.49534
|112>    H       -8.86682        20.32204       -14.06346
|113>    H       -8.87859        19.30898       -11.95870
|114>    H       -8.05557        19.07713        -9.68553
|115> *
|116> 
|117>                          ****END OF INPUT****
================================================================================

                       ****************************
                       * Single Point Calculation *
                       ****************************

---------------------------------
CARTESIAN COORDINATES (ANGSTROEM)
---------------------------------
  C     -0.065800    5.659190   12.322940
  N      0.514110    5.050780   11.255160
  C      1.444330    3.951320   11.312300
  C      2.838290    4.417300   11.724800
  C      0.150490    5.681380   10.039590
  O      0.541980    5.316040    8.949770
  C     -0.729120    6.744150   10.458050
  C     -0.839090    6.697460   11.881520
  C     -1.723070    7.770730   12.282010
  O     -2.127320    8.135250   13.362980
  N     -2.077500    8.408340   11.068540
  C     -3.037250    9.485010   11.096310
  C     -4.408350    9.044170   10.589330
  C     -1.491260    7.798920    9.978570
  C     -1.556940    8.118290    8.594530
  C     -2.129650    9.177740    7.974440
  C     -2.097630    9.382750    6.567340
  S     -2.808170   10.839220    5.912870
  C     -2.406330   10.382320    4.289270
  C     -1.753970    9.146560    4.284050
  C     -1.581060    8.593760    5.561890
  C     -1.319320    8.532880    3.096480
  N     -0.969410    8.038630    2.122440
  C     -2.711300   11.176250    3.158620
  C     -3.309470   12.390460    3.216640
  C     -3.620880   13.193260    2.091840
  S     -3.308590   12.686380    0.453360
  C     -3.958630   14.161840   -0.199110
  C     -4.390890   14.998670    0.834940
  C     -4.198300   14.445650    2.110550
  C     -4.979370   16.264890    0.677080
  N     -5.467190   17.302030    0.620960
  C     -3.989090   14.329380   -1.604330
  C     -4.425380   15.435780   -2.260990
  C     -4.479840   15.564100   -3.672630
  C     -4.914260   16.679190   -4.357620
  C     -4.879480   16.417960   -5.758260
  C     -4.363690   15.043650   -5.899310
  C     -4.122690   14.551870   -4.656030
  C     -4.109450   14.362000   -7.094000
  N     -3.879440   13.778830   -8.057220
  C     -5.266940   17.247100   -6.781530
  C     -5.372700   16.928220   -8.170450
  C     -5.838950   18.016690   -8.854920
  C     -6.037790   19.094650   -7.891970
  C     -5.693130   18.655350   -6.654150
  C     -5.710120   19.429090   -5.490500
  N     -5.734190   20.098810   -4.556930
  C     -6.207980   18.152210  -10.254290
  C     -5.411660   17.720420  -11.330280
  C     -4.002210   17.273340  -11.035690
  C     -3.155620   18.448990  -10.539980
  C     -5.906310   17.818410  -12.633750
  C     -5.095640   17.316170  -13.804660
  C     -4.120480   18.374550  -14.325120
  C     -7.166840   18.393060  -12.874000
  C     -7.701090   18.507480  -14.280640
  C     -8.988600   19.308780  -14.439630
  C     -7.913810   18.857060  -11.799560
  C     -7.444440   18.741790  -10.510890
  H      0.108330    5.305220   13.322400
  H      1.477860    3.520910   10.307800
  H      1.069560    3.200240   12.013860
  H      3.214050    5.146480   11.011200
  H      3.518710    3.570860   11.748880
  H      2.814230    4.875490   12.711250
  H     -2.656540   10.341470   10.533590
  H     -3.116630    9.775490   12.148780
  H     -4.350970    8.668210    9.570280
  H     -5.098550    9.883050   10.616390
  H     -4.798480    8.253600   11.225610
  H     -1.029750    7.390410    7.991600
  H     -2.640270    9.947830    8.531040
  H     -1.097190    7.648840    5.730300
  H     -2.429100   10.759140    2.199260
  H     -3.577860   12.806250    4.180220
  H     -4.476330   14.952090    3.018260
  H     -3.625370   13.481840   -2.169770
  H     -4.769350   16.292270   -1.698150
  H     -5.251760   17.594900   -3.912550
  H     -3.731370   13.576190   -4.435620
  H     -5.179570   15.953840   -8.572380
  H     -6.367420   20.085350   -8.147400
  H     -3.527240   16.860020  -11.921370
  H     -4.003900   16.493120  -10.276330
  H     -3.542410   18.838130   -9.600860
  H     -3.158610   19.258060  -11.267780
  H     -2.128450   18.128910  -10.380900
  H     -5.762940   17.022060  -14.613790
  H     -4.541150   16.420920  -13.520940
  H     -4.649540   19.284760  -14.598800
  H     -3.596400   18.003490  -15.203240
  H     -3.384360   18.628800  -13.567750
  H     -7.877320   17.497350  -14.665540
  H     -6.936790   18.965980  -14.912360
  H     -9.818110   18.834050  -13.921010
  H     -9.245370   19.368810  -15.495340
  H     -8.866820   20.322040  -14.063460
  H     -8.878590   19.308980  -11.958700
  H     -8.055570   19.077130   -9.685530

----------------------------
CARTESIAN COORDINATES (A.U.)
----------------------------
  NO LB      ZA    FRAG     MASS         X           Y           Z
   0 C     6.0000    0    12.011   -0.124344   10.694319   23.286982
   1 N     7.0000    0    14.007    0.971527    9.544591   21.269170
   2 C     6.0000    0    12.011    2.729388    7.466913   21.377149
   3 C     6.0000    0    12.011    5.363591    8.347487   22.156661
   4 C     6.0000    0    12.011    0.284385   10.736252   18.972076
   5 O     8.0000    0    15.999    1.024194   10.045860   16.912614
   6 C     6.0000    0    12.011   -1.377837   12.744597   19.762850
   7 C     6.0000    0    12.011   -1.585650   12.656365   22.452819
   8 C     6.0000    0    12.011   -3.256130   14.684552   23.209635
   9 O     8.0000    0    15.999   -4.020052   15.373395   25.252373
  10 N     7.0000    0    14.007   -3.925906   15.889460   20.916509
  11 C     6.0000    0    12.011   -5.739571   17.924071   20.968987
  12 C     6.0000    0    12.011   -8.330574   17.091004   20.010934
  13 C     6.0000    0    12.011   -2.818073   14.737823   18.856765
  14 C     6.0000    0    12.011   -2.942190   15.341345   16.241308
  15 C     6.0000    0    12.011   -4.024455   17.343415   15.069508
  16 C     6.0000    0    12.011   -3.963946   17.730828   12.410474
  17 S    16.0000    0    32.060   -5.306672   20.483157   11.173705
  18 C     6.0000    0    12.011   -4.547305   19.619741    8.105546
  19 C     6.0000    0    12.011   -3.314523   17.284493    8.095681
  20 C     6.0000    0    12.011   -2.987770   16.239853   10.510449
  21 C     6.0000    0    12.011   -2.493153   16.124806    5.851499
  22 N     7.0000    0    14.007   -1.831919   15.190809    4.010830
  23 C     6.0000    0    12.011   -5.123614   21.120052    5.968927
  24 C     6.0000    0    12.011   -6.253992   23.414576    6.078569
  25 C     6.0000    0    12.011   -6.842472   24.931648    3.953005
  26 S    16.0000    0    32.060   -6.252329   23.973784    0.856726
  27 C     6.0000    0    12.011   -7.480727   26.761999   -0.376263
  28 C     6.0000    0    12.011   -8.297580   28.343379    1.577808
  29 C     6.0000    0    12.011   -7.933637   27.298322    3.988361
  30 C     6.0000    0    12.011   -9.409646   30.736188    1.279496
  31 N     7.0000    0    14.007  -10.331492   32.696098    1.173444
  32 C     6.0000    0    12.011   -7.538288   27.078604   -3.031744
  33 C     6.0000    0    12.011   -8.362756   29.169397   -4.272652
  34 C     6.0000    0    12.011   -8.465671   29.411887   -6.940265
  35 C     6.0000    0    12.011   -9.286606   31.519101   -8.234708
  36 C     6.0000    0    12.011   -9.220881   31.025448  -10.881534
  37 C     6.0000    0    12.011   -8.246179   28.428379  -11.148080
  38 C     6.0000    0    12.011   -7.790755   27.499049   -8.798622
  39 C     6.0000    0    12.011   -7.765735   27.140247  -13.405717
  40 N     7.0000    0    14.007   -7.331079   26.038215  -15.225939
  41 C     6.0000    0    12.011   -9.953074   32.592296  -12.815234
  42 C     6.0000    0    12.011  -10.152932   31.989700  -15.439913
  43 C     6.0000    0    12.011  -11.034016   34.046610  -16.733374
  44 C     6.0000    0    12.011  -11.409770   36.083659  -14.913662
  45 C     6.0000    0    12.011  -10.758457   35.253502  -12.574521
  46 C     6.0000    0    12.011  -10.790563   36.715659  -10.375541
  47 N     7.0000    0    14.007  -10.836049   37.981247   -8.611350
  48 C     6.0000    0    12.011  -11.731382   34.302706  -19.377800
  49 C     6.0000    0    12.011  -10.226555   33.486741  -21.411126
  50 C     6.0000    0    12.011   -7.563081   32.641882  -20.854432
  51 C     6.0000    0    12.011   -5.963258   34.863539  -19.917676
  52 C     6.0000    0    12.011  -11.161308   33.671915  -23.874328
  53 C     6.0000    0    12.011   -9.629364   32.722819  -26.087027
  54 C     6.0000    0    12.011   -7.786579   34.722867  -27.070554
  55 C     6.0000    0    12.011  -13.543365   34.757846  -24.328334
  56 C     6.0000    0    12.011  -14.552951   34.974069  -26.986499
  57 C     6.0000    0    12.011  -16.985992   36.488306  -27.286946
  58 C     6.0000    0    12.011  -14.954934   35.634679  -22.297937
  59 C     6.0000    0    12.011  -14.067953   35.416850  -19.862704
  60 H     1.0000    0     1.008    0.204714   10.025413   25.175687
  61 H     1.0000    0     1.008    2.792751    6.653556   19.478919
  62 H     1.0000    0     1.008    2.021175    6.047577   22.702905
  63 H     1.0000    0     1.008    6.073674    9.725438   20.808152
  64 H     1.0000    0     1.008    6.649398    6.747947   22.202166
  65 H     1.0000    0     1.008    5.318124    9.213341   24.020781
  66 H     1.0000    0     1.008   -5.020133   19.542546   19.905600
  67 H     1.0000    0     1.008   -5.889577   18.472999   22.957867
  68 H     1.0000    0     1.008   -8.222142   16.380543   18.085208
  69 H     1.0000    0     1.008   -9.634863   18.676258   20.062070
  70 H     1.0000    0     1.008   -9.067813   15.597044   21.213329
  71 H     1.0000    0     1.008   -1.945945   13.965851   15.101935
  72 H     1.0000    0     1.008   -4.989387   18.798674   16.121329
  73 H     1.0000    0     1.008   -2.073389   14.454213   10.828698
  74 H     1.0000    0     1.008   -4.590334   20.331828    4.155999
  75 H     1.0000    0     1.008   -6.761176   24.200305    7.899471
  76 H     1.0000    0     1.008   -8.459038   28.255355    5.703685
  77 H     1.0000    0     1.008   -6.850956   25.476985   -4.100271
  78 H     1.0000    0     1.008   -9.012765   30.787928   -3.209038
  79 H     1.0000    0     1.008   -9.924388   33.249542   -7.393648
  80 H     1.0000    0     1.008   -7.051267   25.655281   -8.382107
  81 H     1.0000    0     1.008   -9.787969   30.148388  -16.199451
  82 H     1.0000    0     1.008  -12.032680   37.955811  -15.396355
  83 H     1.0000    0     1.008   -6.665518   31.860820  -22.528124
  84 H     1.0000    0     1.008   -7.566274   31.167480  -19.419449
  85 H     1.0000    0     1.008   -6.694185   35.598907  -18.142996
  86 H     1.0000    0     1.008   -5.968908   36.392459  -21.293018
  87 H     1.0000    0     1.008   -4.022188   34.258675  -19.617058
  88 H     1.0000    0     1.008  -10.890378   32.167032  -27.616061
  89 H     1.0000    0     1.008   -8.581530   31.031042  -25.550874
  90 H     1.0000    0     1.008   -8.786357   36.442915  -27.587734
  91 H     1.0000    0     1.008   -6.796211   34.021666  -28.729960
  92 H     1.0000    0     1.008   -6.395514   35.203330  -25.639332
  93 H     1.0000    0     1.008  -14.885977   33.065200  -27.713854
  94 H     1.0000    0     1.008  -13.108633   35.840508  -28.180276
  95 H     1.0000    0     1.008  -18.553539   35.591196  -26.306896
  96 H     1.0000    0     1.008  -17.471217   36.601746  -29.281949
  97 H     1.0000    0     1.008  -16.755861   38.403090  -26.576088
  98 H     1.0000    0     1.008  -16.778104   36.488684  -22.598668
  99 H     1.0000    0     1.008  -15.222821   36.050551  -18.302999

--------------------------------
INTERNAL COORDINATES (ANGSTROEM)
--------------------------------
 C      0   0   0     0.000000000000     0.00000000     0.00000000
 N      1   0   0     1.358901197512     0.00000000     0.00000000
 C      2   1   0     1.441314164088   125.85965041     0.00000000
 C      3   2   1     1.526570696692   111.54289602   283.37787169
 C      2   1   3     1.416857893121   111.42903520   183.30377898
 O      5   2   1     1.214267420340   123.59744588   180.11640396
 C      5   2   1     1.441631921331   103.63061562   359.53110981
 C      1   2   3     1.367784205714   109.11952424   177.22389728
 C      8   1   2     1.446969720969   144.99566744   179.85193065
 O      9   8   1     1.210284691219   132.42774463   359.46278337
 N      9   8   1     1.415866016931   104.46235739   179.10349229
 C     11   9   8     1.442605117244   119.08729993   175.82218609
 C     12  11   9     1.526854228799   112.05805304   255.93859437
 C     11   9   8     1.379530599479   111.82924520     0.60290880
 C     14  11   9     1.421927487919   130.55668040   181.11041581
 C     15  14  11     1.354600551713   129.84873219     5.99072744
 C     16  15  14     1.422316698383   123.78531754   178.84267100
 S     17  16  15     1.747713630261   118.77895418   183.14728111
 C     18  17  16     1.733871378044    92.11080606   180.13650579
 C     19  18  17     1.397391711583   110.16513411     0.20544987
 C     17  16  15     1.378506252253   130.35425898     3.38186196
 C     20  19  18     1.405647989292   122.24866027   179.71564646
 N     22  20  19     1.146941145918   179.52624880   350.39960771
 C     19  18  17     1.414814817670   123.40110416   180.28295869
 C     24  19  18     1.354798728004   124.32390755     2.08181477
 C     25  24  19     1.416558882680   124.81806530   180.07375837
 S     26  25  24     1.743292599910   122.82907144     1.89752594
 C     27  26  25     1.739324959316    92.23364516   179.75960275
 C     28  27  26     1.398711034846   110.22416628     0.13829043
 C     26  25  24     1.379218848697   126.57504924   181.69668970
 C     29  28  27     1.405183823704   125.83772404   180.56681798
 N     31  29  28     1.147509122578   176.34351028   177.86080524
 C     28  27  26     1.415500163052   118.74100805   180.84728587
 C     33  28  27     1.358555217759   125.67201730   182.15918450
 C     34  33  28     1.418506046374   124.54218449   181.82673530
 C     35  34  33     1.378897292985   125.42325950   180.25458046
 C     36  35  34     1.425216885565   109.40766723   182.45516161
 C     37  36  35     1.474673659730   105.86378297   359.14028245
 C     38  37  36     1.358555750347   108.17167058     0.13031551
 C     38  37  36     1.398774069033   126.82833849   182.39996376
 N     40  38  37     1.149253939476   178.19037244   161.31735922
 C     37  36  35     1.372836437490   127.94665236   177.89270864
 C     42  37  36     1.428974596835   127.63209573   187.73356544
 C     43  42  37     1.367718971244   109.51521861   177.81042165
 C     44  43  42     1.459043457098   107.70630622     0.49253331
 C     45  44  43     1.357929805991   109.14802135     0.10117277
 C     46  45  44     1.397513352423   125.22658655   177.67465180
 N     47  46  45     1.149198498172   177.90506875   355.30229147
 C     44  43  42     1.453542296667   129.98159333   185.35122369
 C     49  44  43     1.406528572977   124.34159633   311.22459466
 C     50  49  44     1.507717843962   118.08748882   350.61154970
 C     51  50  49     1.531207351961   110.63649138   294.03515064
 C     50  49  44     1.397610354677   119.44355644   175.64884594
 C     53  50  49     1.510119563015   120.65274293   182.27203204
 C     54  53  50     1.530354162147   112.07118549   273.69856635
 C     53  50  49     1.406015137152   120.35276599     2.55330777
 C     56  53  50     1.509023223314   120.50896094   179.66484131
 C     57  56  53     1.524808679868   115.84769719   187.75519508
 C     56  53  50     1.388409699800   119.12331457   359.79438017
 C     59  56  53     1.376323268240   120.87141124   358.99749601
 H      1   2   3     1.074493512963   120.94700138   356.81615116
 H      3   2   1     1.093342251539   106.47900232   163.48088420
 H      3   2   1     1.093965334414   109.15041926    45.68126336
 H      4   3   2     1.087255264416   110.05666547   300.27477140
 H      4   3   2     1.086283524868   109.88308430   180.60268082
 H      4   3   2     1.087934079896   110.69356001    60.43382382
 H     12  11   9     1.093214358715   110.06649939   131.13634422
 H     12  11   9     1.094702204118   105.35450090    14.71055278
 H     13  12  11     1.087704596157   111.31581345   301.22696690
 H     13  12  11     1.086659071650   109.82858244   180.56083292
 H     13  12  11     1.087223335014   109.74591021    61.24915500
 H     15  14  11     1.082249128159   111.63568097   183.94945667
 H     16  15  14     1.078691314742   121.48593791   359.76896520
 H     21  17  16     1.074879486919   123.88745609   359.88799112
 H     24  19  18     1.083507822630   115.81198029   181.68923617
 H     25  24  19     1.083236323523   119.43907915     0.32769306
 H     30  26  25     1.075973790852   123.16300661     0.11348480
 H     33  28  27     1.081821927861   114.76607645     2.13912994
 H     34  33  28     1.081054738022   119.71932049     1.29712015
 H     36  35  34     1.072622188378   125.68897922     0.97305730
 H     39  38  37     1.074087227789   125.53827196   180.68322593
 H     43  42  37     1.071570485876   123.65187213     2.00899865
 H     45  44  43     1.074889255598   124.46505941   177.82222902
 H     51  50  49     1.086673357408   111.23138189   173.60168901
 H     51  50  49     1.088748691894   110.32362678    54.70853079
 H     52  51  50     1.087650135889   110.95352641    63.06629692
 H     52  51  50     1.088253667579   110.65825412   303.08687669
 H     52  51  50     1.087582576957   110.09435416   183.00737439
 H     54  53  50     1.089257241885   109.68820597   152.57000700
 H     54  53  50     1.090609353068   110.13474012    35.73606080
 H     55  54  53     1.087790177424   110.75293029   303.43221621
 H     55  54  53     1.087860333131   110.21867643   183.40634289
 H     55  54  53     1.086335599067   110.88811979    63.32956642
 H     57  56  53     1.095247752703   108.33780140    66.02026512
 H     57  56  53     1.092449952355   108.85403360   309.71290079
 H     58  57  56     1.087392347499   111.40580284   295.95647613
 H     58  57  56     1.088144309317   109.23232245   176.89355599
 H     58  57  56     1.087671855341   111.03607693    57.77742839
 H     59  56  53     1.077198994801   120.51312257   179.46768484
 H     60  59  56     1.080348055999   119.76276408   182.15659155

---------------------------
INTERNAL COORDINATES (A.U.)
---------------------------
 C      0   0   0     0.000000000000     0.00000000     0.00000000
 N      1   0   0     2.567951106356     0.00000000     0.00000000
 C      2   1   0     2.723689043068   125.85965041     0.00000000
 C      3   2   1     2.884800540818   111.54289602   283.37787169
 C      2   1   3     2.677473388684   111.42903520   183.30377898
 O      5   2   1     2.294632877786   123.59744588   180.11640396
 C      5   2   1     2.724289517234   103.63061562   359.53110981
 C      1   2   3     2.584737559102   109.11952424   177.22389728
 C      8   1   2     2.734376496707   144.99566744   179.85193065
 O      9   8   1     2.287106610482   132.42774463   359.46278337
 N      9   8   1     2.675599014325   104.46235739   179.10349229
 C     11   9   8     2.726128590985   119.08729993   175.82218609
 C     12  11   9     2.885336338849   112.05805304   255.93859437
 C     11   9   8     2.606935026380   111.82924520     0.60290880
 C     14  11   9     2.687053534462   130.55668040   181.11041581
 C     15  14  11     2.559824063595   129.84873219     5.99072744
 C     16  15  14     2.687789035648   123.78531754   178.84267100
 S     17  16  15     3.302700121715   118.77895418   183.14728111
 C     18  17  16     3.276542055948    92.11080606   180.13650579
 C     19  18  17     2.640687636703   110.16513411     0.20544987
 C     17  16  15     2.604999290656   130.35425898     3.38186196
 C     20  19  18     2.656289740459   122.24866027   179.71564646
 N     22  20  19     2.167404657511   179.52624880   350.39960771
 C     19  18  17     2.673612535611   123.40110416   180.28295869
 C     24  19  18     2.560198562512   124.32390755     2.08181477
 C     25  24  19     2.676908340839   124.81806530   180.07375837
 S     26  25  24     3.294345585121   122.82907144     1.89752594
 C     27  26  25     3.286847831001    92.23364516   179.75960275
 C     28  27  26     2.643180796353   110.22416628     0.13829043
 C     26  25  24     2.606345902779   126.57504924   181.69668970
 C     29  28  27     2.655412594617   125.83772404   180.56681798
 N     31  29  28     2.168477977849   176.34351028   177.86080524
 C     28  27  26     2.674907650689   118.74100805   180.84728587
 C     33  28  27     2.567297299374   125.67201730   182.15918450
 C     34  33  28     2.680587946959   124.54218449   181.82673530
 C     35  34  33     2.605738250546   125.42325950   180.25458046
 C     36  35  34     2.693269595158   109.40766723   182.45516161
 C     37  36  35     2.786729353796   105.86378297   359.14028245
 C     38  37  36     2.567298305819   108.17167058     0.13031551
 C     38  37  36     2.643299913704   126.82833849   182.39996376
 N     40  38  37     2.171775203939   178.19037244   161.31735922
 C     37  36  35     2.594284893524   127.94665236   177.89270864
 C     42  37  36     2.700370640349   127.63209573   187.73356544
 C     43  42  37     2.584614283819   109.51521861   177.81042165
 C     44  43  42     2.757192551405   107.70630622     0.49253331
 C     45  44  43     2.566115442413   109.14802135     0.10117277
 C     46  45  44     2.640917504577   125.22658655   177.67465180
 N     47  46  45     2.171670435058   177.90506875   355.30229147
 C     44  43  42     2.746796864772   129.98159333   185.35122369
 C     49  44  43     2.657953802461   124.34159633   311.22459466
 C     50  49  44     2.849173812314   118.08748882   350.61154970
 C     51  50  49     2.893562549453   110.63649138   294.03515064
 C     50  49  44     2.641100812272   119.44355644   175.64884594
 C     53  50  49     2.853712403575   120.65274293   182.27203204
 C     54  53  50     2.891950254364   112.07118549   273.69856635
 C     53  50  49     2.656983549365   120.35276599     2.55330777
 C     56  53  50     2.851640621790   120.50896094   179.66484131
 C     57  56  53     2.881470811576   115.84769719   187.75519508
 C     56  53  50     2.623714094303   119.12331457   359.79438017
 C     59  56  53     2.600874048718   120.87141124   358.99749601
 H      1   2   3     2.030498472175   120.94700138   356.81615116
 H      3   2   1     2.066117426053   106.47900232   163.48088420
 H      3   2   1     2.067294882046   109.15041926    45.68126336
 H      4   3   2     2.054614687410   110.05666547   300.27477140
 H      4   3   2     2.052778365791   109.88308430   180.60268082
 H      4   3   2     2.055897462764   110.69356001    60.43382382
 H     12  11   9     2.065875743641   110.06649939   131.13634422
 H     12  11   9     2.068687363982   105.35450090    14.71055278
 H     13  12  11     2.055463801343   111.31581345   301.22696690
 H     13  12  11     2.053488046360   109.82858244   180.56083292
 H     13  12  11     2.054554349586   109.74591021    61.24915500
 H     15  14  11     2.045154460895   111.63568097   183.94945667
 H     16  15  14     2.038431167902   121.48593791   359.76896520
 H     21  17  16     2.031227857247   123.88745609   359.88799112
 H     24  19  18     2.047533048732   115.81198029   181.68923617
 H     25  24  19     2.047019989775   119.43907915     0.32769306
 H     30  26  25     2.033295791987   123.16300661     0.11348480
 H     33  28  27     2.044347169327   114.76607645     2.13912994
 H     34  33  28     2.042897390640   119.71932049     1.29712015
 H     36  35  34     2.026962181201   125.68897922     0.97305730
 H     39  38  37     2.029730704464   125.53827196   180.68322593
 H     43  42  37     2.024974751498   123.65187213     2.00899865
 H     45  44  43     2.031246317375   124.46505941   177.82222902
 H     51  50  49     2.053515042530   111.23138189   173.60168901
 H     51  50  49     2.057436856344   110.32362678    54.70853079
 H     52  51  50     2.055360886353   110.95352641    63.06629692
 H     52  51  50     2.056501395960   110.65825412   303.08687669
 H     52  51  50     2.055233218473   110.09435416   183.00737439
 H     54  53  50     2.058397876554   109.68820597   152.57000700
 H     54  53  50     2.060952996392   110.13474012    35.73606080
 H     55  54  53     2.055625526501   110.75293029   303.43221621
 H     55  54  53     2.055758101574   110.21867643   183.40634289
 H     55  54  53     2.052876771766   110.88811979    63.32956642
 H     57  56  53     2.069718301401   108.33780140    66.02026512
 H     57  56  53     2.064431224966   108.85403360   309.71290079
 H     58  57  56     2.054873736895   111.40580284   295.95647613
 H     58  57  56     2.056294738795   109.23232245   176.89355599
 H     58  57  56     2.055401930168   111.03607693    57.77742839
 H     59  56  53     2.035611091909   120.51312257   179.46768484
 H     60  59  56     2.041561955152   119.76276408   182.15659155

---------------------
BASIS SET INFORMATION
---------------------
There are 5 groups of distinct atoms

 Group   1 Type C   : 7s4p1d contracted to 3s2p1d pattern {511/31/1}
 Group   2 Type N   : 7s4p1d contracted to 3s2p1d pattern {511/31/1}
 Group   3 Type O   : 7s4p1d contracted to 3s2p1d pattern {511/31/1}
 Group   4 Type S   : 10s7p1d contracted to 4s3p1d pattern {5311/511/1}
 Group   5 Type H   : 4s1p contracted to 2s1p pattern {31/1}

Atom   0C    basis set group =>   1
Atom   1N    basis set group =>   2
Atom   2C    basis set group =>   1
Atom   3C    basis set group =>   1
Atom   4C    basis set group =>   1
Atom   5O    basis set group =>   3
Atom   6C    basis set group =>   1
Atom   7C    basis set group =>   1
Atom   8C    basis set group =>   1
Atom   9O    basis set group =>   3
Atom  10N    basis set group =>   2
Atom  11C    basis set group =>   1
Atom  12C    basis set group =>   1
Atom  13C    basis set group =>   1
Atom  14C    basis set group =>   1
Atom  15C    basis set group =>   1
Atom  16C    basis set group =>   1
Atom  17S    basis set group =>   4
Atom  18C    basis set group =>   1
Atom  19C    basis set group =>   1
Atom  20C    basis set group =>   1
Atom  21C    basis set group =>   1
Atom  22N    basis set group =>   2
Atom  23C    basis set group =>   1
Atom  24C    basis set group =>   1
Atom  25C    basis set group =>   1
Atom  26S    basis set group =>   4
Atom  27C    basis set group =>   1
Atom  28C    basis set group =>   1
Atom  29C    basis set group =>   1
Atom  30C    basis set group =>   1
Atom  31N    basis set group =>   2
Atom  32C    basis set group =>   1
Atom  33C    basis set group =>   1
Atom  34C    basis set group =>   1
Atom  35C    basis set group =>   1
Atom  36C    basis set group =>   1
Atom  37C    basis set group =>   1
Atom  38C    basis set group =>   1
Atom  39C    basis set group =>   1
Atom  40N    basis set group =>   2
Atom  41C    basis set group =>   1
Atom  42C    basis set group =>   1
Atom  43C    basis set group =>   1
Atom  44C    basis set group =>   1
Atom  45C    basis set group =>   1
Atom  46C    basis set group =>   1
Atom  47N    basis set group =>   2
Atom  48C    basis set group =>   1
Atom  49C    basis set group =>   1
Atom  50C    basis set group =>   1
Atom  51C    basis set group =>   1
Atom  52C    basis set group =>   1
Atom  53C    basis set group =>   1
Atom  54C    basis set group =>   1
Atom  55C    basis set group =>   1
Atom  56C    basis set group =>   1
Atom  57C    basis set group =>   1
Atom  58C    basis set group =>   1
Atom  59C    basis set group =>   1
Atom  60H    basis set group =>   5
Atom  61H    basis set group =>   5
Atom  62H    basis set group =>   5
Atom  63H    basis set group =>   5
Atom  64H    basis set group =>   5
Atom  65H    basis set group =>   5
Atom  66H    basis set group =>   5
Atom  67H    basis set group =>   5
Atom  68H    basis set group =>   5
Atom  69H    basis set group =>   5
Atom  70H    basis set group =>   5
Atom  71H    basis set group =>   5
Atom  72H    basis set group =>   5
Atom  73H    basis set group =>   5
Atom  74H    basis set group =>   5
Atom  75H    basis set group =>   5
Atom  76H    basis set group =>   5
Atom  77H    basis set group =>   5
Atom  78H    basis set group =>   5
Atom  79H    basis set group =>   5
Atom  80H    basis set group =>   5
Atom  81H    basis set group =>   5
Atom  82H    basis set group =>   5
Atom  83H    basis set group =>   5
Atom  84H    basis set group =>   5
Atom  85H    basis set group =>   5
Atom  86H    basis set group =>   5
Atom  87H    basis set group =>   5
Atom  88H    basis set group =>   5
Atom  89H    basis set group =>   5
Atom  90H    basis set group =>   5
Atom  91H    basis set group =>   5
Atom  92H    basis set group =>   5
Atom  93H    basis set group =>   5
Atom  94H    basis set group =>   5
Atom  95H    basis set group =>   5
Atom  96H    basis set group =>   5
Atom  97H    basis set group =>   5
Atom  98H    basis set group =>   5
Atom  99H    basis set group =>   5
---------------------------------
AUXILIARY/J BASIS SET INFORMATION
---------------------------------
There are 5 groups of distinct atoms

 Group   1 Type C   : 12s5p4d2f1g contracted to 6s4p3d1f1g pattern {711111/2111/211/2/1}
 Group   2 Type N   : 12s5p4d2f1g contracted to 6s4p3d1f1g pattern {711111/2111/211/2/1}
 Group   3 Type O   : 12s5p4d2f1g contracted to 6s4p3d1f1g pattern {711111/2111/211/2/1}
 Group   4 Type S   : 14s5p5d2f1g contracted to 8s4p3d1f1g pattern {71111111/2111/311/2/1}
 Group   5 Type H   : 5s2p1d contracted to 3s1p1d pattern {311/2/1}

Atom   0C    basis set group =>   1
Atom   1N    basis set group =>   2
Atom   2C    basis set group =>   1
Atom   3C    basis set group =>   1
Atom   4C    basis set group =>   1
Atom   5O    basis set group =>   3
Atom   6C    basis set group =>   1
Atom   7C    basis set group =>   1
Atom   8C    basis set group =>   1
Atom   9O    basis set group =>   3
Atom  10N    basis set group =>   2
Atom  11C    basis set group =>   1
Atom  12C    basis set group =>   1
Atom  13C    basis set group =>   1
Atom  14C    basis set group =>   1
Atom  15C    basis set group =>   1
Atom  16C    basis set group =>   1
Atom  17S    basis set group =>   4
Atom  18C    basis set group =>   1
Atom  19C    basis set group =>   1
Atom  20C    basis set group =>   1
Atom  21C    basis set group =>   1
Atom  22N    basis set group =>   2
Atom  23C    basis set group =>   1
Atom  24C    basis set group =>   1
Atom  25C    basis set group =>   1
Atom  26S    basis set group =>   4
Atom  27C    basis set group =>   1
Atom  28C    basis set group =>   1
Atom  29C    basis set group =>   1
Atom  30C    basis set group =>   1
Atom  31N    basis set group =>   2
Atom  32C    basis set group =>   1
Atom  33C    basis set group =>   1
Atom  34C    basis set group =>   1
Atom  35C    basis set group =>   1
Atom  36C    basis set group =>   1
Atom  37C    basis set group =>   1
Atom  38C    basis set group =>   1
Atom  39C    basis set group =>   1
Atom  40N    basis set group =>   2
Atom  41C    basis set group =>   1
Atom  42C    basis set group =>   1
Atom  43C    basis set group =>   1
Atom  44C    basis set group =>   1
Atom  45C    basis set group =>   1
Atom  46C    basis set group =>   1
Atom  47N    basis set group =>   2
Atom  48C    basis set group =>   1
Atom  49C    basis set group =>   1
Atom  50C    basis set group =>   1
Atom  51C    basis set group =>   1
Atom  52C    basis set group =>   1
Atom  53C    basis set group =>   1
Atom  54C    basis set group =>   1
Atom  55C    basis set group =>   1
Atom  56C    basis set group =>   1
Atom  57C    basis set group =>   1
Atom  58C    basis set group =>   1
Atom  59C    basis set group =>   1
Atom  60H    basis set group =>   5
Atom  61H    basis set group =>   5
Atom  62H    basis set group =>   5
Atom  63H    basis set group =>   5
Atom  64H    basis set group =>   5
Atom  65H    basis set group =>   5
Atom  66H    basis set group =>   5
Atom  67H    basis set group =>   5
Atom  68H    basis set group =>   5
Atom  69H    basis set group =>   5
Atom  70H    basis set group =>   5
Atom  71H    basis set group =>   5
Atom  72H    basis set group =>   5
Atom  73H    basis set group =>   5
Atom  74H    basis set group =>   5
Atom  75H    basis set group =>   5
Atom  76H    basis set group =>   5
Atom  77H    basis set group =>   5
Atom  78H    basis set group =>   5
Atom  79H    basis set group =>   5
Atom  80H    basis set group =>   5
Atom  81H    basis set group =>   5
Atom  82H    basis set group =>   5
Atom  83H    basis set group =>   5
Atom  84H    basis set group =>   5
Atom  85H    basis set group =>   5
Atom  86H    basis set group =>   5
Atom  87H    basis set group =>   5
Atom  88H    basis set group =>   5
Atom  89H    basis set group =>   5
Atom  90H    basis set group =>   5
Atom  91H    basis set group =>   5
Atom  92H    basis set group =>   5
Atom  93H    basis set group =>   5
Atom  94H    basis set group =>   5
Atom  95H    basis set group =>   5
Atom  96H    basis set group =>   5
Atom  97H    basis set group =>   5
Atom  98H    basis set group =>   5
Atom  99H    basis set group =>   5


           ************************************************************
           *        Program running with 6 parallel MPI-processes     *
           *              working on a common directory               *
           ************************************************************
------------------------------------------------------------------------------
                           ORCA GTO INTEGRAL CALCULATION
                           -- RI-GTO INTEGRALS CHOSEN --
------------------------------------------------------------------------------

                         BASIS SET STATISTICS AND STARTUP INFO

Gaussian basis set:
 # of primitive gaussian shells          ...  932
 # of primitive gaussian functions       ... 1744
 # of contracted shells                  ...  484
 # of contracted basis functions         ... 1048
 Highest angular momentum                ...    2
 Maximum contraction depth               ...    5
Auxiliary gaussian basis set:
 # of primitive gaussian shells          ... 1766
 # of primitive gaussian functions       ... 4854
 # of contracted shells                  ... 1104
 # of contracted aux-basis functions     ... 3384
 Highest angular momentum                ...    4
 Maximum contraction depth               ...    7
Ratio of auxiliary to basis functions    ...  3.23
Integral package used                  ... LIBINT
 One Electron integrals                  ... done
 Ordering auxiliary basis shells         ... done
 Integral threshhold             Thresh  ...  2.500e-11
 Primitive cut-off               TCut    ...  2.500e-12
 Pre-screening matrix                    ... done
 Shell pair data                         ... 
 Ordering of the shell pairs             ... done (   0.008 sec) 36789 of 117370 pairs
 Determination of significant pairs      ... done (   0.000 sec)
 Creation of shell pair data             ... done (   0.004 sec)
 Storage of shell pair data              ... done (   0.132 sec)
 Shell pair data done in (   0.144 sec)
 Computing two index integrals           ... done
 Cholesky decomposition of the V-matrix  ... done


Timings:
 Total evaluation time                   ...   3.941 sec (  0.066 min)
 One electron matrix time                ...   0.704 sec (  0.012 min) = 17.9%
 Schwartz matrix evaluation time         ...   0.685 sec (  0.011 min) = 17.4%
 Two index repulsion integral time       ...   0.417 sec (  0.007 min) = 10.6%
 Cholesky decomposition of V             ...   1.975 sec (  0.033 min) = 50.1%
 Three index repulsion integral time     ...   0.000 sec (  0.000 min) =  0.0%



           ************************************************************
           *        Program running with 6 parallel MPI-processes     *
           *              working on a common directory               *
           ************************************************************
-------------------------------------------------------------------------------
                                 ORCA SCF
-------------------------------------------------------------------------------

------------
SCF SETTINGS
------------
Hamiltonian:
 Density Functional     Method          .... DFT(GTOs)
 Exchange Functional    Exchange        .... WB88
 Correlation Functional Correlation     .... LYP
 LDA part of GGA corr.  LDAOpt          .... VWN-5
 Gradients option       PostSCFGGA      .... off
 Hybrid DFT is turned on
   Fraction HF Exchange ScalHFX         ....  0.190000
   Scaling of DF-GGA-X  ScalDFX         ....  0.350000
   Scaling of DF-GGA-C  ScalDFC         ....  0.810000
   Scaling of DF-LDA-C  ScalLDAC        ....  1.000000
   Perturbative correction              ....  0.000000
   Density functional embedding theory  .... OFF
 Long-range corrected/Screened/Range-Separated Hybrid DFT is turned on
   Amount of maximum screened exact exchange              ....  0.460000
   Range separation parameter mu (erf(mu*r12)/r12)        ....  0.330000
 RI-approximation to the Coulomb term is turned on
   Number of auxiliary basis functions  .... 3384
   RIJ-COSX (HFX calculated with COS-X)).... on


General Settings:
 Integral files         IntName         .... xtbopt
 Hartree-Fock type      HFTyp           .... RHF
 Total Charge           Charge          ....    0
 Multiplicity           Mult            ....    1
 Number of Electrons    NEL             ....  430
 Basis Dimension        Dim             .... 1048
 Nuclear Repulsion      ENuc            ....   6972.2399381898 Eh

Convergence Acceleration:
 DIIS                   CNVDIIS         .... on
   Start iteration      DIISMaxIt       ....    12
   Startup error        DIISStart       ....  0.200000
   # of expansion vecs  DIISMaxEq       ....     5
   Bias factor          DIISBfac        ....   1.050
   Max. coefficient     DIISMaxC        ....  10.000
 Newton-Raphson         CNVNR           .... off
 SOSCF                  CNVSOSCF        .... on
   Start iteration      SOSCFMaxIt      ....   150
   Startup grad/error   SOSCFStart      ....  0.003300
 Level Shifting         CNVShift        .... on
   Level shift para.    LevelShift      ....    0.2500
   Turn off err/grad.   ShiftErr        ....    0.0010
 Zerner damping         CNVZerner       .... off
 Static damping         CNVDamp         .... on
   Fraction old density DampFac         ....    0.7000
   Max. Damping (<1)    DampMax         ....    0.9800
   Min. Damping (>=0)   DampMin         ....    0.0000
   Turn off err/grad.   DampErr         ....    0.1000
 Fernandez-Rico         CNVRico         .... off

SCF Procedure:
 Maximum # iterations   MaxIter         ....   125
 SCF integral mode      SCFMode         .... Direct
   Integral package                     .... LIBINT
 Reset frequency        DirectResetFreq ....    20
 Integral Threshold     Thresh          ....  2.500e-11 Eh
 Primitive CutOff       TCut            ....  2.500e-12 Eh

Convergence Tolerance:
 Convergence Check Mode ConvCheckMode   .... Total+1el-Energy
 Convergence forced     ConvForced      .... 1
 Energy Change          TolE            ....  1.000e-08 Eh
 1-El. energy change                    ....  1.000e-05 Eh
 Orbital Gradient       TolG            ....  1.000e-05
 Orbital Rotation angle TolX            ....  1.000e-05
 DIIS Error             TolErr          ....  5.000e-07


Diagonalization of the overlap matrix:
Smallest eigenvalue                        ... 1.660e-04
Time for diagonalization                   ...    2.258 sec
Threshold for overlap eigenvalues          ... 1.000e-08
Number of eigenvalues below threshold      ... 0
Time for construction of square roots      ...    0.762 sec
Total time needed                          ...    3.021 sec

-------------------
DFT GRID GENERATION
-------------------

General Integration Accuracy     IntAcc      ...  4.670
Radial Grid Type                 RadialGrid  ... Gauss-Chebyshev
Angular Grid (max. acc.)         AngularGrid ... Lebedev-302
Angular grid pruning method      GridPruning ... 3 (G Style)
Weight generation scheme         WeightScheme... Becke
Basis function cutoff            BFCut       ...    1.0000e-11
Integration weight cutoff        WCut        ...    1.0000e-14
Grids for H and He will be reduced by one unit

# of grid points (after initial pruning)     ... 509748 (   0.0 sec)
# of grid points (after weights+screening)   ... 439920 (   6.9 sec)
nearest neighbour list constructed           ...    0.0 sec
Grid point re-assignment to atoms done       ...    0.1 sec
Grid point division into batches done        ...    2.3 sec
Reduced shell lists constructed in    3.4 sec

Total number of grid points                  ...   439920
Total number of batches                      ...     6926
Average number of points per batch           ...       63
Average number of grid points per atom       ...     4399
Average number of shells per batch           ...    91.71 (18.95%)
Average number of basis functions per batch  ...   188.38 (17.98%)
Average number of large shells per batch     ...    60.34 (65.80%)
Average number of large basis fcns per batch ...   124.99 (66.35%)
Maximum spatial batch extension              ...  20.06, 22.91, 20.25 au
Average spatial batch extension              ...   0.30,  0.29,  0.26 au

Time for grid setup =   11.488 sec

------------------------------
INITIAL GUESS: MODEL POTENTIAL
------------------------------
Loading Hartree-Fock densities                     ... done
Calculating cut-offs                               ... done
Setting up the integral package                    ... done
Initializing the effective Hamiltonian             ... done
Starting the Coulomb interaction                   ... done (   1.3 sec)
Reading the grid                                   ... done
Mapping shells                                     ... done
Starting the XC term evaluation                    ... done (   1.6 sec)
  promolecular density results
     # of electrons  =    429.980152981
     EX              =   -372.996520853
     EC              =    -14.615576645
     EX+EC           =   -387.612097498
Transforming the Hamiltonian                       ... done (   0.4 sec)
Diagonalizing the Hamiltonian                      ... done (   1.4 sec)
Back transforming the eigenvectors                 ... done (   0.5 sec)
Now organizing SCF variables                       ... done
                      ------------------
                      INITIAL GUESS DONE (  16.9 sec)
                      ------------------
--------------------
COSX GRID GENERATION
--------------------

General Integration Accuracy     IntAcc      ...  3.340
Radial Grid Type                 RadialGrid  ... Gauss-Chebyshev
Angular Grid (max. acc.)         AngularGrid ... Lebedev-50
Angular grid pruning method      GridPruning ... 3 (G Style)
Weight generation scheme         WeightScheme... Becke
Basis function cutoff            BFCut       ...    1.0000e-11
Integration weight cutoff        WCut        ...    1.0000e-14
Grids for H and He will be reduced by one unit

# of grid points (after initial pruning)     ...  47768 (   0.0 sec)
# of grid points (after weights+screening)   ...  42896 (   0.7 sec)
nearest neighbour list constructed           ...    0.0 sec
Grid point re-assignment to atoms done       ...    0.0 sec
Grid point division into batches done        ...    0.0 sec
Reduced shell lists constructed in    0.2 sec

Total number of grid points                  ...    42896
Total number of batches                      ...      728
Average number of points per batch           ...       58
Average number of grid points per atom       ...      429
Average number of shells per batch           ...   105.07 (21.71%)
Average number of basis functions per batch  ...   218.49 (20.85%)
Average number of large shells per batch     ...    69.54 (66.18%)
Average number of large basis fcns per batch ...   145.70 (66.69%)
Maximum spatial batch extension              ...  17.29, 14.41, 14.42 au
Average spatial batch extension              ...   0.60,  0.56,  0.45 au

Overlap Fitting                  UseSFitting ... on
Constructing numerical overlap ... done (      0.3 sec)
Inverting numerical overlap    ... done (      0.4 sec)
Obtaining analytic overlap     ... done (      0.0 sec)
Final contraction and storage  ... done (      0.4 sec)


General Integration Accuracy     IntAcc      ...  3.670
Radial Grid Type                 RadialGrid  ... Gauss-Chebyshev
Angular Grid (max. acc.)         AngularGrid ... Lebedev-50
Angular grid pruning method      GridPruning ... 3 (G Style)
Weight generation scheme         WeightScheme... Becke
Basis function cutoff            BFCut       ...    1.0000e-11
Integration weight cutoff        WCut        ...    1.0000e-14
Grids for H and He will be reduced by one unit

# of grid points (after initial pruning)     ...  60176 (   0.0 sec)
# of grid points (after weights+screening)   ...  53793 (   0.9 sec)
nearest neighbour list constructed           ...    0.0 sec
Grid point re-assignment to atoms done       ...    0.0 sec
Grid point division into batches done        ...    0.0 sec
Reduced shell lists constructed in    0.1 sec

Total number of grid points                  ...    53793
Total number of batches                      ...      888
Average number of points per batch           ...       60
Average number of grid points per atom       ...      538
Average number of shells per batch           ...   103.89 (21.46%)
Average number of basis functions per batch  ...   215.85 (20.60%)
Average number of large shells per batch     ...    68.44 (65.88%)
Average number of large basis fcns per batch ...   143.36 (66.42%)
Maximum spatial batch extension              ...  18.27, 15.46, 17.55 au
Average spatial batch extension              ...   0.53,  0.50,  0.43 au

Overlap Fitting                  UseSFitting ... on
Constructing numerical overlap ... done (      0.3 sec)
Inverting numerical overlap    ... done (      0.3 sec)
Obtaining analytic overlap     ... done (      0.0 sec)
Final contraction and storage  ... done (      0.4 sec)


General Integration Accuracy     IntAcc      ...  4.010
Radial Grid Type                 RadialGrid  ... Gauss-Chebyshev
Angular Grid (max. acc.)         AngularGrid ... Lebedev-110
Angular grid pruning method      GridPruning ... 3 (G Style)
Weight generation scheme         WeightScheme... Becke
Basis function cutoff            BFCut       ...    1.0000e-11
Integration weight cutoff        WCut        ...    1.0000e-14
Grids for H and He will be reduced by one unit

# of grid points (after initial pruning)     ... 115036 (   0.0 sec)
# of grid points (after weights+screening)   ... 102078 (   1.8 sec)
nearest neighbour list constructed           ...    0.0 sec
Grid point re-assignment to atoms done       ...    0.0 sec
Grid point division into batches done        ...    0.1 sec
Reduced shell lists constructed in    0.4 sec

Total number of grid points                  ...   102078
Total number of batches                      ...     1647
Average number of points per batch           ...       61
Average number of grid points per atom       ...     1021
Average number of shells per batch           ...   100.55 (20.77%)
Average number of basis functions per batch  ...   208.47 (19.89%)
Average number of large shells per batch     ...    67.09 (66.72%)
Average number of large basis fcns per batch ...   139.96 (67.14%)
Maximum spatial batch extension              ...  18.06, 17.20, 17.63 au
Average spatial batch extension              ...   0.50,  0.47,  0.38 au

Overlap Fitting                  UseSFitting ... on
Constructing numerical overlap ... done (      0.4 sec)
Inverting numerical overlap    ... done (      0.5 sec)
Obtaining analytic overlap     ... done (      0.0 sec)
Final contraction and storage  ... done (      0.4 sec)

Time for X-Grid setup             =    8.259 sec
--------------
SCF ITERATIONS
--------------
ITER       Energy         Delta-E        Max-DP      RMS-DP      [F,P]     Damp
               ***  Starting incremental Fock matrix formation  ***
  0  -3200.0321522928   0.000000000000 0.07880062  0.00096787  0.2404123 0.7000
  1  -3200.5779745332  -0.545822240447 0.04550080  0.00069412  0.1044478 0.7000
                               ***Turning on DIIS***
  2  -3200.8276417928  -0.249667259584 0.10565805  0.00130928  0.0419398 0.0000
  3  -3201.2258952457  -0.398253452846 0.06170365  0.00049812  0.0579957 0.0000
  4  -3201.3000970439  -0.074201798247 0.01623555  0.00016295  0.0177303 0.0000
  5  -3201.3051305468  -0.005033502941 0.00597144  0.00006300  0.0079476 0.0000
  6  -3201.3063436505  -0.001213103671 0.00259984  0.00003764  0.0019396 0.0000
                      *** Initiating the SOSCF procedure ***
                           *** Shutting down DIIS ***
                      *** Re-Reading the Fockian *** 
                      *** Removing any level shift *** 
ITER      Energy       Delta-E        Grad      Rot      Max-DP    RMS-DP
  7  -3201.30685153  -0.0005078824  0.002863  0.002863  0.002032  0.000026
               *** Restarting incremental Fock matrix formation ***
  8  -3201.30708178  -0.0002302453  0.002019  0.016504  0.002546  0.000036
  9  -3201.30733195  -0.0002501740  0.000604  0.012856  0.003114  0.000040
 10  -3201.30738147  -0.0000495153  0.000403  0.001527  0.000945  0.000012
 11  -3201.30740744  -0.0000259759  0.000214  0.001824  0.000696  0.000007
 12  -3201.30740938  -0.0000019381  0.000152  0.000301  0.000412  0.000003
 13  -3201.30741137  -0.0000019911  0.000035  0.000350  0.000268  0.000002
 14  -3201.30741143  -0.0000000583  0.000031  0.000107  0.000105  0.000001
 15  -3201.30741162  -0.0000001916  0.000009  0.000093  0.000073  0.000000
 16  -3201.30741168  -0.0000000586  0.000008  0.000040  0.000051  0.000000
                  ***Gradient check signals convergence***
              ***Rediagonalizing the Fockian in SOSCF/NRSCF***

               *****************************************************
               *                     SUCCESS                       *
               *           SCF CONVERGED AFTER  17 CYCLES          *
               *****************************************************

Setting up the final grid:

General Integration Accuracy     IntAcc      ...  5.010
Radial Grid Type                 RadialGrid  ... Gauss-Chebyshev
Angular Grid (max. acc.)         AngularGrid ... Lebedev-434
Angular grid pruning method      GridPruning ... 3 (G Style)
Weight generation scheme         WeightScheme... Becke
Basis function cutoff            BFCut       ...    1.0000e-11
Integration weight cutoff        WCut        ...    1.0000e-14
Grids for H and He will be reduced by one unit

# of grid points (after initial pruning)     ... 911284 (   0.1 sec)
# of grid points (after weights+screening)   ... 784091 (  12.8 sec)
nearest neighbour list constructed           ...    0.0 sec
Grid point re-assignment to atoms done       ...    0.2 sec
Grid point division into batches done        ...    7.2 sec
Reduced shell lists constructed in    9.2 sec

Total number of grid points                  ...   784091
Total number of batches                      ...    12306
Average number of points per batch           ...       63
Average number of grid points per atom       ...     7841
Average number of shells per batch           ...    89.47 (18.49%)
Average number of basis functions per batch  ...   183.41 (17.50%)
Average number of large shells per batch     ...    58.67 (65.57%)
Average number of large basis fcns per batch ...   121.30 (66.14%)
Maximum spatial batch extension              ...  26.01, 18.38, 14.51 au
Average spatial batch extension              ...   0.24,  0.23,  0.21 au

Final grid set up in   23.5 sec
Final integration                            ... done (   4.0 sec)
Change in XC energy                          ...    -0.000014144
Integrated number of electrons               ...   430.000115234
Previous integrated no of electrons          ...   429.999758827
Old exchange energy                            =   -105.715244920 Eh
New exchange energy                            =   -105.716043237 Eh
Exchange energy change after final integration =     -0.000798317 Eh
Total energy after final integration           =  -3201.308224132 Eh
Final COS-X integration done in                =    64.352 sec

----------------
TOTAL SCF ENERGY
----------------

Total Energy       :        -3201.30822413 Eh          -87112.02547 eV

Components:
Nuclear Repulsion  :         6972.23993819 Eh          189724.29411 eV
Electronic Energy  :       -10173.54816232 Eh         -276836.31958 eV
One Electron Energy:       -18232.89391791 Eh         -496142.26689 eV
Two Electron Energy:         8059.34575559 Eh          219305.94731 eV

Virial components:
Potential Energy   :        -6377.41294782 Eh         -173538.22882 eV
Kinetic Energy     :         3176.10472368 Eh           86426.20335 eV
Virial Ratio       :            2.00793535


DFT components:
N(Alpha)           :      215.000057617160 electrons
N(Beta)            :      215.000057617160 electrons
N(Total)           :      430.000115234321 electrons
E(XC)              :     -289.212531241765 Eh       
DFET-embed. en.    :        0.000000000000 Eh       

---------------
SCF CONVERGENCE
---------------

  Last Energy change         ...    1.0676e-08  Tolerance :   1.0000e-08
  Last MAX-Density change    ...    7.5495e-15  Tolerance :   1.0000e-07
  Last RMS-Density change    ...    3.4186e-17  Tolerance :   5.0000e-09
  Last Orbital Gradient      ...    2.3062e-06  Tolerance :   1.0000e-05
  Last Orbital Rotation      ...    2.3672e-05  Tolerance :   1.0000e-05

             **** THE GBW FILE WAS UPDATED (xtbopt.gbw) ****
             **** DENSITY FILE WAS UPDATED (xtbopt.scfp) ****
             **** ENERGY FILE WAS UPDATED (xtbopt.en.tmp) ****
             **** THE GBW FILE WAS UPDATED (xtbopt.gbw) ****
             **** DENSITY FILE WAS UPDATED (xtbopt.scfp) ****
----------------
ORBITAL ENERGIES
----------------

  NO   OCC          E(Eh)            E(eV) 
   0   2.0000     -88.982576     -2421.3390 
   1   2.0000     -88.982106     -2421.3262 
   2   2.0000     -19.192162      -522.2453 
   3   2.0000     -19.187755      -522.1254 
   4   2.0000     -14.455776      -393.3617 
   5   2.0000     -14.453416      -393.2975 
   6   2.0000     -14.413152      -392.2018 
   7   2.0000     -14.411443      -392.1553 
   8   2.0000     -14.408927      -392.0868 
   9   2.0000     -14.403572      -391.9411 
  10   2.0000     -10.374736      -282.3109 
  11   2.0000     -10.374169      -282.2955 
  12   2.0000     -10.343355      -281.4570 
  13   2.0000     -10.339060      -281.3401 
  14   2.0000     -10.336927      -281.2821 
  15   2.0000     -10.335253      -281.2365 
  16   2.0000     -10.327157      -281.0162 
  17   2.0000     -10.327027      -281.0127 
  18   2.0000     -10.323501      -280.9167 
  19   2.0000     -10.323418      -280.9145 
  20   2.0000     -10.321078      -280.8508 
  21   2.0000     -10.318978      -280.7937 
  22   2.0000     -10.315499      -280.6990 
  23   2.0000     -10.313841      -280.6539 
  24   2.0000     -10.311638      -280.5939 
  25   2.0000     -10.310978      -280.5760 
  26   2.0000     -10.310877      -280.5732 
  27   2.0000     -10.310872      -280.5731 
  28   2.0000     -10.310772      -280.5704 
  29   2.0000     -10.310529      -280.5638 
  30   2.0000     -10.309260      -280.5292 
  31   2.0000     -10.308871      -280.5186 
  32   2.0000     -10.306592      -280.4566 
  33   2.0000     -10.306523      -280.4547 
  34   2.0000     -10.306050      -280.4419 
  35   2.0000     -10.305606      -280.4298 
  36   2.0000     -10.303892      -280.3832 
  37   2.0000     -10.303172      -280.3636 
  38   2.0000     -10.300930      -280.3026 
  39   2.0000     -10.300233      -280.2836 
  40   2.0000     -10.300174      -280.2820 
  41   2.0000     -10.297135      -280.1993 
  42   2.0000     -10.285400      -279.8800 
  43   2.0000     -10.275266      -279.6042 
  44   2.0000     -10.274379      -279.5801 
  45   2.0000     -10.273492      -279.5559 
  46   2.0000     -10.271750      -279.5085 
  47   2.0000     -10.268184      -279.4115 
  48   2.0000     -10.267154      -279.3835 
  49   2.0000     -10.267013      -279.3796 
  50   2.0000     -10.266353      -279.3617 
  51   2.0000     -10.266281      -279.3597 
  52   2.0000     -10.262664      -279.2613 
  53   2.0000     -10.261866      -279.2396 
  54   2.0000     -10.261241      -279.2226 
  55   2.0000     -10.259865      -279.1851 
  56   2.0000     -10.259507      -279.1754 
  57   2.0000     -10.256496      -279.0934 
  58   2.0000     -10.255929      -279.0780 
  59   2.0000     -10.252070      -278.9730 
  60   2.0000      -8.078103      -219.8164 
  61   2.0000      -8.077592      -219.8025 
  62   2.0000      -6.047196      -164.5526 
  63   2.0000      -6.046700      -164.5391 
  64   2.0000      -6.043314      -164.4469 
  65   2.0000      -6.042783      -164.4325 
  66   2.0000      -6.040370      -164.3668 
  67   2.0000      -6.039830      -164.3521 
  68   2.0000      -1.132910       -30.8280 
  69   2.0000      -1.126134       -30.6437 
  70   2.0000      -1.063694       -28.9446 
  71   2.0000      -1.054231       -28.6871 
  72   2.0000      -1.020910       -27.7804 
  73   2.0000      -1.017800       -27.6958 
  74   2.0000      -1.013511       -27.5790 
  75   2.0000      -0.997782       -27.1510 
  76   2.0000      -0.992740       -27.0138 
  77   2.0000      -0.990425       -26.9508 
  78   2.0000      -0.983886       -26.7729 
  79   2.0000      -0.979025       -26.6406 
  80   2.0000      -0.955908       -26.0116 
  81   2.0000      -0.937936       -25.5225 
  82   2.0000      -0.929630       -25.2965 
  83   2.0000      -0.921748       -25.0820 
  84   2.0000      -0.906131       -24.6571 
  85   2.0000      -0.894959       -24.3531 
  86   2.0000      -0.881021       -23.9738 
  87   2.0000      -0.880228       -23.9522 
  88   2.0000      -0.873842       -23.7785 
  89   2.0000      -0.871450       -23.7134 
  90   2.0000      -0.869054       -23.6482 
  91   2.0000      -0.856453       -23.3053 
  92   2.0000      -0.847290       -23.0559 
  93   2.0000      -0.843576       -22.9549 
  94   2.0000      -0.838716       -22.8226 
  95   2.0000      -0.823726       -22.4147 
  96   2.0000      -0.822116       -22.3709 
  97   2.0000      -0.807783       -21.9809 
  98   2.0000      -0.800459       -21.7816 
  99   2.0000      -0.797079       -21.6896 
 100   2.0000      -0.782474       -21.2922 
 101   2.0000      -0.770293       -20.9607 
 102   2.0000      -0.762807       -20.7570 
 103   2.0000      -0.749963       -20.4075 
 104   2.0000      -0.739077       -20.1113 
 105   2.0000      -0.731301       -19.8997 
 106   2.0000      -0.723994       -19.7009 
 107   2.0000      -0.719875       -19.5888 
 108   2.0000      -0.711206       -19.3529 
 109   2.0000      -0.709920       -19.3179 
 110   2.0000      -0.698782       -19.0148 
 111   2.0000      -0.694490       -18.8980 
 112   2.0000      -0.684623       -18.6295 
 113   2.0000      -0.683015       -18.5858 
 114   2.0000      -0.679342       -18.4858 
 115   2.0000      -0.668717       -18.1967 
 116   2.0000      -0.663341       -18.0504 
 117   2.0000      -0.655327       -17.8324 
 118   2.0000      -0.649016       -17.6606 
 119   2.0000      -0.643629       -17.5140 
 120   2.0000      -0.634271       -17.2594 
 121   2.0000      -0.632598       -17.2139 
 122   2.0000      -0.625792       -17.0287 
 123   2.0000      -0.617332       -16.7985 
 124   2.0000      -0.612195       -16.6587 
 125   2.0000      -0.605359       -16.4727 
 126   2.0000      -0.588345       -16.0097 
 127   2.0000      -0.585639       -15.9361 
 128   2.0000      -0.581755       -15.8304 
 129   2.0000      -0.575692       -15.6654 
 130   2.0000      -0.573703       -15.6112 
 131   2.0000      -0.565598       -15.3907 
 132   2.0000      -0.558363       -15.1938 
 133   2.0000      -0.554605       -15.0916 
 134   2.0000      -0.553223       -15.0540 
 135   2.0000      -0.547637       -14.9020 
 136   2.0000      -0.540893       -14.7184 
 137   2.0000      -0.536721       -14.6049 
 138   2.0000      -0.533478       -14.5167 
 139   2.0000      -0.532463       -14.4891 
 140   2.0000      -0.529976       -14.4214 
 141   2.0000      -0.523838       -14.2543 
 142   2.0000      -0.523341       -14.2408 
 143   2.0000      -0.522207       -14.2100 
 144   2.0000      -0.519242       -14.1293 
 145   2.0000      -0.519134       -14.1264 
 146   2.0000      -0.516060       -14.0427 
 147   2.0000      -0.515455       -14.0262 
 148   2.0000      -0.513952       -13.9853 
 149   2.0000      -0.509758       -13.8712 
 150   2.0000      -0.506935       -13.7944 
 151   2.0000      -0.505607       -13.7583 
 152   2.0000      -0.503301       -13.6955 
 153   2.0000      -0.502358       -13.6699 
 154   2.0000      -0.501544       -13.6477 
 155   2.0000      -0.499590       -13.5945 
 156   2.0000      -0.498113       -13.5543 
 157   2.0000      -0.486028       -13.2255 
 158   2.0000      -0.484690       -13.1891 
 159   2.0000      -0.480707       -13.0807 
 160   2.0000      -0.478090       -13.0095 
 161   2.0000      -0.474259       -12.9053 
 162   2.0000      -0.473236       -12.8774 
 163   2.0000      -0.471142       -12.8204 
 164   2.0000      -0.470910       -12.8141 
 165   2.0000      -0.468628       -12.7520 
 166   2.0000      -0.462913       -12.5965 
 167   2.0000      -0.460846       -12.5402 
 168   2.0000      -0.458917       -12.4878 
 169   2.0000      -0.456176       -12.4132 
 170   2.0000      -0.455328       -12.3901 
 171   2.0000      -0.454027       -12.3547 
 172   2.0000      -0.450640       -12.2625 
 173   2.0000      -0.450559       -12.2603 
 174   2.0000      -0.447446       -12.1756 
 175   2.0000      -0.443711       -12.0740 
 176   2.0000      -0.443105       -12.0575 
 177   2.0000      -0.442511       -12.0413 
 178   2.0000      -0.439478       -11.9588 
 179   2.0000      -0.438696       -11.9375 
 180   2.0000      -0.436480       -11.8772 
 181   2.0000      -0.435727       -11.8567 
 182   2.0000      -0.434511       -11.8236 
 183   2.0000      -0.433633       -11.7997 
 184   2.0000      -0.433373       -11.7927 
 185   2.0000      -0.433020       -11.7831 
 186   2.0000      -0.431836       -11.7509 
 187   2.0000      -0.427314       -11.6278 
 188   2.0000      -0.425418       -11.5762 
 189   2.0000      -0.421348       -11.4655 
 190   2.0000      -0.419399       -11.4124 
 191   2.0000      -0.415082       -11.2950 
 192   2.0000      -0.414007       -11.2657 
 193   2.0000      -0.411230       -11.1901 
 194   2.0000      -0.408454       -11.1146 
 195   2.0000      -0.406730       -11.0677 
 196   2.0000      -0.403685       -10.9848 
 197   2.0000      -0.398130       -10.8337 
 198   2.0000      -0.396255       -10.7826 
 199   2.0000      -0.390771       -10.6334 
 200   2.0000      -0.384898       -10.4736 
 201   2.0000      -0.368095       -10.0164 
 202   2.0000      -0.347697        -9.4613 
 203   2.0000      -0.345152        -9.3921 
 204   2.0000      -0.342985        -9.3331 
 205   2.0000      -0.338206        -9.2031 
 206   2.0000      -0.331017        -9.0074 
 207   2.0000      -0.324989        -8.8434 
 208   2.0000      -0.316520        -8.6129 
 209   2.0000      -0.316012        -8.5991 
 210   2.0000      -0.302782        -8.2391 
 211   2.0000      -0.298785        -8.1303 
 212   2.0000      -0.281637        -7.6637 
 213   2.0000      -0.262054        -7.1309 
 214   2.0000      -0.242981        -6.6118 
 215   0.0000      -0.119999        -3.2653 
 216   0.0000      -0.088846        -2.4176 
 217   0.0000      -0.059885        -1.6296 
 218   0.0000      -0.031907        -0.8682 
 219   0.0000       0.001892         0.0515 
 220   0.0000       0.005271         0.1434 
 221   0.0000       0.018857         0.5131 
 222   0.0000       0.029927         0.8144 
 223   0.0000       0.032767         0.8916 
 224   0.0000       0.033874         0.9217 
 225   0.0000       0.041683         1.1343 
 226   0.0000       0.045415         1.2358 
 227   0.0000       0.052848         1.4381 
 228   0.0000       0.069261         1.8847 
 229   0.0000       0.078920         2.1475 
 230   0.0000       0.079721         2.1693 
 231   0.0000       0.080223         2.1830 
 232   0.0000       0.082500         2.2449 
 233   0.0000       0.092589         2.5195 
 234   0.0000       0.093842         2.5536 
 235   0.0000       0.096103         2.6151 
 236   0.0000       0.099544         2.7087 
 237   0.0000       0.104096         2.8326 
 238   0.0000       0.106069         2.8863 
 239   0.0000       0.107178         2.9165 
 240   0.0000       0.107648         2.9292 
 241   0.0000       0.113441         3.0869 
 242   0.0000       0.114594         3.1183 
 243   0.0000       0.117819         3.2060 
 244   0.0000       0.128674         3.5014 
 245   0.0000       0.130184         3.5425 
 246   0.0000       0.131985         3.5915 
 247   0.0000       0.134630         3.6635 
 248   0.0000       0.136684         3.7194 
 249   0.0000       0.140576         3.8253 
 250   0.0000       0.141264         3.8440 
 251   0.0000       0.142919         3.8890 
 252   0.0000       0.144753         3.9389 
 253   0.0000       0.145419         3.9571 
 254   0.0000       0.150456         4.0941 
 255   0.0000       0.156958         4.2710 
 256   0.0000       0.158180         4.3043 
 257   0.0000       0.160277         4.3614 
 258   0.0000       0.163825         4.4579 
 259   0.0000       0.163953         4.4614 
 260   0.0000       0.165281         4.4975 
 261   0.0000       0.169822         4.6211 
 262   0.0000       0.170491         4.6393 
 263   0.0000       0.172752         4.7008 
 264   0.0000       0.174351         4.7443 
 265   0.0000       0.176159         4.7935 
 266   0.0000       0.181529         4.9396 
 267   0.0000       0.183863         5.0032 
 268   0.0000       0.185167         5.0387 
 269   0.0000       0.185971         5.0605 
 270   0.0000       0.188718         5.1353 
 271   0.0000       0.189469         5.1557 
 272   0.0000       0.191432         5.2091 
 273   0.0000       0.192997         5.2517 
[...]

                       ORCA sTD-DFT CALCULATION

                       please cite in your paper           
 orginal sTDA method:  S. Grimme, J. Chem. Phys. 138, 244104 (2013)           
 range-separated sTDA: T. Risthaus, A. Hansen, S. Grimme, Phys. Chem. Chem. Phys.
                       16, 14408-14419 (2014) 
 sTD-DFT approach:     C. Bannwarth, S. Grimme, Comp. Theor. Chem. 
                       1040-1041, 45-53 (2014)

---------------------------------------------------------------------------------


spectral range up to (eV)      ...    5.000000
occ. MO cut-off (eV)           ...   -16.305333
virt. MO cut-off (eV)          ...    6.428155
perturbation threshold         ...   1.000e-04 
MOs in sTD-DFT                 ...         164 
occ. MOs in sTD-DFT            ...          89 
virt. in sTD-DFT               ...          75 
calculate triplets           ...   no  

Calculating the dipole lengths integrals ... 
Transforming integrals ... 
Calculating the dipole velocity integrals ... 
Transforming integrals ... 
Calculating magnetic dipole integrals ... 
Transforming integrals ... 































SCF atom population (using active MOs):

   1.994   2.541   2.477   3.019   1.895   4.656   2.378   2.382   1.918   4.714
   2.578   2.480   3.018   1.945   2.358   2.168   2.235   3.710   2.107   1.884
   2.253   2.256   3.899   2.165   2.164   2.244   3.707   2.079   1.890   2.260
   2.238   3.895   2.159   2.154   2.243   2.393   2.079   2.009   2.259   2.249
   3.913   2.072   2.455   2.247   2.301   2.034   2.263   3.913   2.230   2.267
   2.694   2.980   2.329   2.704   2.986   2.375   2.773   2.991   2.548   2.544
   0.465   0.651   0.631   0.666   0.681   0.672   0.614   0.661   0.670   0.681
   0.663   0.601   0.472   0.505   0.506   0.496   0.502   0.515   0.483   0.529
   0.492   0.534   0.503   0.640   0.627   0.658   0.661   0.679   0.625   0.655
   0.664   0.680   0.656   0.660   0.658   0.668   0.668   0.668   0.624   0.647

Number of electrons in sTDA:  178.000

ax(DF)   :  0.3800
s^k      :  2.0000
beta  (J):  1.8600
alpha (K):  0.9000

hardness table read
setting up gammas ...
computing q(ij,n)
memory needed for q data:             7.7 MB 
memory available for q data:       2484.9 MB 





















CSF included by energy:           26 
CSF considered in PT2:          6649 

ordered frontier orbitals
           eV         # centers 
  78      -9.333       4.5
  79      -9.203      16.4
  80      -9.007       3.8
  81      -8.843      16.3
  82      -8.613      11.1
  83      -8.599       6.1
  84      -8.239       5.4
  85      -8.130      19.9
  86      -7.664      15.3
  87      -7.131      29.4
  88      -6.612      20.7

  89      -3.265      15.5
  90      -2.418      21.1
  91      -1.630      23.1
  92      -0.868      21.8
  93       0.051      13.2
  94       0.143      13.1
  95       0.513      10.1
  96       0.814       9.6
  97       0.892      15.2
  98       0.922       6.6
  99       1.134      10.9

           eV        nm       excitation i->a                     eV 
   0      2.30     540.2    88 ->  89      gap,J,K:    3.347     1.216     0.082
   1      2.53     490.6    87 ->  89      gap,J,K:    3.866     1.830     0.246
   2      2.60     476.2    86 ->  89      gap,J,K:    4.398     2.206     0.205
   3      2.77     447.7    88 ->  90      gap,J,K:    4.194     2.226     0.401
   4      3.05     406.9    84 ->  89      gap,J,K:    4.974     1.986     0.029
   5      3.29     376.8    85 ->  89      gap,J,K:    4.865     2.019     0.222
   6      3.34     371.7    82 ->  89      gap,J,K:    5.348     2.516     0.252
   7      3.36     369.3    87 ->  90      gap,J,K:    4.713     1.819     0.232
   8      3.63     341.6    88 ->  91      gap,J,K:    4.982     1.996     0.322
   9      3.75     330.4    81 ->  89      gap,J,K:    5.578     2.295     0.235
  10      4.12     301.0    87 ->  91      gap,J,K:    5.501     1.882     0.250
  11      4.16     298.0    86 ->  90      gap,J,K:    5.246     1.274     0.094
  12      4.17     297.1    83 ->  90      gap,J,K:    6.182     2.189     0.090
  13      4.29     288.8    85 ->  90      gap,J,K:    5.713     1.825     0.203
  14      4.33     286.1    88 ->  92      gap,J,K:    5.744     1.852     0.221
  15      4.41     281.1    80 ->  90      gap,J,K:    6.590     2.181     0.000
  16      4.48     276.9    83 ->  89      gap,J,K:    5.334     0.889     0.016
  17      4.55     272.8    79 ->  89      gap,J,K:    5.938     2.076     0.342
  18      4.63     267.6    77 ->  89      gap,J,K:    6.127     1.871     0.189
  19      4.77     259.8    87 ->  92      gap,J,K:    6.263     1.906     0.207
  20      4.81     257.6    86 ->  91      gap,J,K:    6.034     1.388     0.083
  21      4.84     256.4    76 ->  90      gap,J,K:    7.044     2.213     0.002
  22      4.84     256.1    78 ->  89      gap,J,K:    6.068     1.300     0.037
  23      4.92     251.7    85 ->  91      gap,J,K:    6.501     1.891     0.158
  24      4.94     250.8    80 ->  89      gap,J,K:    5.742     0.800     0.001

average / max PT2 energy lowering (eV):       0.043       0.088

CSF included by PT:                   163 
total number of CSF included:         189 
 
sTD-DFT procedure...
setting up A+B and A-B matrices...  done
estimated time (min):    0.000
calculating (A-B)^0.5 ... done
calculating (A+B)*(A-B)^0.5 ... done
calculating (A-B)^0.5 *(A+B)*(A-B)^0.5 ... done
diagonalizing ...using LAPACKE_ssyevr ...done

   29 roots found, lowest/highest eigenvalue :     1.794     4.987

excitation energies, transition moments and amplitudes

molecular weight:  821.030
state   eV        nm        fL         fV        Rl        RV
   0   1.794     691.2   1.231926   1.574798  36.990235  42.264691     0.44 (  87->  89)    0.41 (  88->  89)    0.07 (  86->  89)
   1   2.149     576.9   0.143660   0.168716  -42.979359  -41.177986     0.61 (  86->  89)    0.16 (  88->  89)    0.08 (  85->  89)
   2   2.349     527.8   0.648325   0.775885  -63.643135  -21.522635     0.59 (  88->  90)    0.13 (  87->  89)    0.11 (  85->  89)
   3   2.641     469.5   0.213731   0.265557  -14.287657  -14.680523     0.31 (  88->  89)    0.29 (  88->  90)    0.15 (  87->  89)
   4   2.863     433.0   0.664043   0.667614  -7.941074  -75.943922     0.41 (  87->  90)    0.14 (  85->  89)    0.12 (  82->  89)
   5   2.923     424.1   0.004415   0.002173  -7.110368  -1.359273     0.92 (  84->  89)    0.03 (  82->  89)    0.03 (  84->  90)
   6   3.069     404.0   0.044507   0.045636  92.498496  94.968544     0.67 (  82->  89)    0.12 (  87->  90)    0.06 (  86->  89)
   7   3.127     396.4   0.026563   0.027469  -25.967382  -48.075204     0.22 (  87->  90)    0.20 (  81->  89)    0.16 (  85->  89)
   8   3.328     372.5   0.018850   0.022410   6.886958   5.254309     0.70 (  88->  91)    0.06 (  87->  90)    0.03 (  87->  92)
   9   3.534     350.8   0.004886   0.004435  -3.450468  -3.093599     0.63 (  83->  90)    0.18 (  83->  91)    0.06 (  83->  89)
  10   3.649     339.7   0.024758   0.023026  -9.932865  -6.953118     0.36 (  81->  89)    0.19 (  85->  89)    0.12 (  85->  90)
  11   3.707     334.4   0.000541   0.000570  -4.767143  -4.771296     0.60 (  80->  90)    0.20 (  80->  91)    0.06 (  76->  90)
  12   3.732     332.2   0.004185   0.004228  169.255588  172.133514     0.47 (  87->  91)    0.17 (  88->  92)    0.08 (  81->  89)
  13   3.939     314.8   0.252018   0.244110  -10.629764  -11.292038     0.28 (  88->  92)    0.19 (  79->  89)    0.16 (  85->  90)
  14   4.134     299.9   0.017194   0.018380  -10.299998  -11.545200     0.46 (  86->  90)    0.15 (  86->  91)    0.08 (  87->  91)
  15   4.209     294.5   0.000148   0.000107   4.086275   3.423340     0.58 (  76->  90)    0.20 (  76->  91)    0.05 (  80->  90)
  16   4.235     292.8   0.087996   0.075179   1.529771   1.977533     0.36 (  79->  89)    0.22 (  77->  89)    0.11 (  85->  90)
  17   4.264     290.8   0.150655   0.141257  -19.859039  -20.763877     0.25 (  85->  90)    0.20 (  87->  91)    0.19 (  88->  92)
  18   4.424     280.3   0.051533   0.040538   6.804450   5.507066     0.50 (  77->  89)    0.17 (  79->  89)    0.07 (  75->  89)
  19   4.479     276.8   0.353187   0.330110  -89.683669  -122.129863     0.24 (  87->  92)    0.23 (  85->  91)    0.13 (  86->  91)
  20   4.546     272.7   0.005458   0.003949  10.699491  10.486732     0.38 (  83->  89)    0.19 (  88->  94)    0.08 (  78->  89)
  21   4.580     270.7   0.002633   0.001868  23.052665  21.383670     0.46 (  83->  89)    0.13 (  88->  94)    0.12 (  78->  89)
  22   4.664     265.8   0.108147   0.094285   4.805401   9.388683     0.24 (  78->  89)    0.19 (  87->  92)    0.13 (  78->  90)
  23   4.820     257.2   0.032272   0.026352   6.456241   3.480280     0.37 (  86->  91)    0.16 (  81->  90)    0.10 (  86->  90)
  24   4.910     252.5   0.075499   0.062012  30.818186  21.398046     0.23 (  88->  94)    0.19 (  87->  92)    0.13 (  78->  89)
  25   4.946     250.7   0.003030   0.002458   4.832169   4.696668     0.64 (  84->  90)    0.08 (  84->  91)    0.06 (  85->  91)
  26   4.963     249.8   0.002396   0.002175   5.030836   4.784886     0.17 (  85->  91)    0.17 (  84->  90)    0.08 (  82->  90)
  27   4.970     249.5   0.001675   0.001454  -2.063947  -2.042892     0.83 (  80->  89)    0.06 (  80->  91)    0.02 (  80->  92)
  28   4.987     248.6   0.025681   0.021310   7.739862   8.523749     0.23 (  87->  93)    0.14 (  88->  93)    0.13 (  79->  90)

-----------------------------------------------------------------------------
         ABSORPTION SPECTRUM VIA TRANSITION ELECTRIC DIPOLE MOMENTS
-----------------------------------------------------------------------------
State   Energy  Wavelength   fosc         T2         TX        TY        TZ  
        (cm-1)    (nm)                  (au**2)     (au)      (au)      (au) 
-----------------------------------------------------------------------------
   0   14467.5    691.2   1.231925676  28.03282  -1.32229   2.83273  -4.27318
   1   17334.4    576.9   0.143660296   2.72837   0.41715  -1.00486   1.24282
   2   18947.2    527.8   0.648325204  11.26479  -1.18949   2.15220  -2.28428
   3   21300.7    469.5   0.213730866   3.30331  -0.67342   1.25268  -1.13164
   4   23093.9    433.0   0.664042704   9.46618  -0.31933   1.06823  -2.86759
   5   23577.2    424.1   0.004414709   0.06164  -0.20568   0.10229   0.09420
   6   24749.5    404.0   0.044507092   0.59202  -0.38661   0.06886  -0.66167
   7   25224.8    396.4   0.026562985   0.34668  -0.09350  -0.00027   0.58132
   8   26843.3    372.5   0.018849619   0.23118   0.14469   0.06430  -0.45399
   9   28505.3    350.8   0.004886476   0.05643   0.12370  -0.13233  -0.15369
  10   29435.2    339.7   0.024758216   0.27690  -0.16564   0.35228  -0.35406
  11   29902.7    334.4   0.000540897   0.00595   0.04540   0.02674   0.05638
  12   30103.3    332.2   0.004185279   0.04577   0.16143   0.13354  -0.04335
  13   31769.4    314.8   0.252017986   2.61155  -0.40171   0.90462  -1.27743
  14   33343.4    299.9   0.017194451   0.16977  -0.18389   0.36787  -0.02497
  15   33951.5    294.5   0.000147514   0.00143  -0.01222  -0.01591  -0.03206
  16   34154.8    292.8   0.087996054   0.84818   0.34598  -0.84353  -0.13013
  17   34389.0    290.8   0.150654742   1.44224  -0.52767   1.07547  -0.08473
  18   35681.0    280.3   0.051532658   0.47547   0.18051  -0.48948   0.45088
  19   36124.1    276.8   0.353187161   3.21872  -0.29433   0.31205   1.74204
  20   36664.4    272.7   0.005458320   0.04901   0.00826   0.10038   0.19715
  21   36941.6    270.7   0.002633146   0.02347  -0.00460   0.15296   0.00693
  22   37620.2    265.8   0.108146620   0.94638  -0.44454   0.60113   0.62242
  23   38879.5    257.2   0.032271819   0.27326   0.14507  -0.38404   0.32362
  24   39598.5    252.5   0.075499228   0.62768   0.03922   0.16847  -0.77315
  25   39894.8    250.7   0.003030456   0.02501  -0.09427   0.06985   0.10602
  26   40027.4    249.8   0.002395959   0.01971  -0.03863   0.02354   0.13289
  27   40086.2    249.5   0.001675262   0.01376   0.05251  -0.02945  -0.10067
  28   40225.0    248.6   0.025681041   0.21018   0.03730   0.00674  -0.45689

-----------------------------------------------------------------------------
         ABSORPTION SPECTRUM VIA TRANSITION VELOCITY DIPOLE MOMENTS
-----------------------------------------------------------------------------
State   Energy  Wavelength   fosc         P2         PX        PY        PZ  
        (cm-1)    (nm)                  (au**2)     (au)      (au)      (au) 
-----------------------------------------------------------------------------
   0   14467.5    691.2   1.574797590   0.15571  -0.09791   0.20779  -0.32086
   1   17334.4    576.9   0.168716006   0.01999   0.03723  -0.08945   0.10296
   2   18947.2    527.8   0.775884807   0.10047  -0.11516   0.20539  -0.21219
   3   21300.7    469.5   0.265557378   0.03866  -0.07266   0.13400  -0.12420
   4   23093.9    433.0   0.667613986   0.10537  -0.02847   0.10652  -0.30531
   5   23577.2    424.1   0.002172781   0.00035  -0.01444   0.00857   0.00826
   6   24749.5    404.0   0.045635800   0.00772  -0.04497   0.01161  -0.07458
   7   25224.8    396.4   0.027468737   0.00474  -0.01690   0.00954   0.06602
   8   26843.3    372.5   0.022410302   0.00411   0.01987   0.00529  -0.06073
   9   28505.3    350.8   0.004435349   0.00086   0.01528  -0.01685  -0.01862
  10   29435.2    339.7   0.023026339   0.00463  -0.02286   0.04629  -0.04435
  11   29902.7    334.4   0.000570398   0.00012   0.00617   0.00437   0.00771
  12   30103.3    332.2   0.004227741   0.00087   0.02417   0.01652  -0.00354
  13   31769.4    314.8   0.244110320   0.05300  -0.05610   0.12453  -0.18533
  14   33343.4    299.9   0.018379697   0.00419  -0.02892   0.05734  -0.00800
  15   33951.5    294.5   0.000106855   0.00002  -0.00193  -0.00226  -0.00399
  16   34154.8    292.8   0.075179215   0.01755   0.04960  -0.12131  -0.01930
  17   34389.0    290.8   0.141256734   0.03320  -0.07958   0.16336  -0.01342
  18   35681.0    280.3   0.040537770   0.00989   0.02583  -0.06967   0.06606
  19   36124.1    276.8   0.330109887   0.08150  -0.05250   0.06095   0.27392
  20   36664.4    272.7   0.003949303   0.00099   0.00073   0.01717   0.02635
  21   36941.6    270.7   0.001868280   0.00047   0.00129   0.02166  -0.00092
  22   37620.2    265.8   0.094284579   0.02424  -0.07031   0.09433   0.10199
  23   38879.5    257.2   0.026351627   0.00700   0.02112  -0.05861   0.05587
  24   39598.5    252.5   0.062012067   0.01678   0.00942   0.02337  -0.12707
  25   39894.8    250.7   0.002458210   0.00067  -0.01475   0.01236   0.01732
  26   40027.4    249.8   0.002175500   0.00060  -0.00677   0.00422   0.02306
  27   40086.2    249.5   0.001454148   0.00040   0.00914  -0.00509  -0.01700
  28   40225.0    248.6   0.021310333   0.00586   0.00512   0.00187  -0.07635

-------------------------------------------------------------------
                             CD SPECTRUM
-------------------------------------------------------------------
State   Energy Wavelength       R         MX        MY        MZ   
        (cm-1)   (nm)       (1e40*cgs)   (au)      (au)      (au)  
-------------------------------------------------------------------
   0   14467.5    691.2     36.99024   8.47093   2.38071  -1.00631
   1   17334.4    576.9    -42.97936  -3.72689  -1.39826   0.26709
   2   18947.2    527.8    -63.64313   6.95280   2.78263  -1.11697
   3   21300.7    469.5    -14.28766   4.33221   1.72635  -0.72059
   4   23093.9    433.0     -7.94107   7.16561   1.29413  -0.32762
   5   23577.2    424.1     -7.11037  -0.63434  -0.64174  -0.36797
   6   24749.5    404.0     92.49850   3.24086   0.86044  -1.21101
   7   25224.8    396.4    -25.96738  -1.26041   0.31523  -0.01308
   8   26843.3    372.5      6.88696   0.94226  -0.21013   0.33489
   9   28505.3    350.8     -3.45047   0.90372   0.41102   0.27821
  10   29435.2    339.7     -9.93287   1.19101   0.55076  -0.12822
  11   29902.7    334.4     -4.76714   0.16365  -0.00187   0.22781
  12   30103.3    332.2    169.25559  -2.85240  -1.81175   0.36074
  13   31769.4    314.8    -10.62976   4.39333   1.36896  -0.44744
  14   33343.4    299.9    -10.30000   0.77675   0.49331  -0.20269
  15   33951.5    294.5      4.08627   0.02761   0.27031   0.39604
  16   34154.8    292.8      1.52977   0.93816   0.33225   0.39046
  17   34389.0    290.8    -19.85904   0.93622   0.47111  -0.84501
  18   35681.0    280.3      6.80445  -0.23100   0.14192   0.18253
  19   36124.1    276.8    -89.68367  -5.05543  -0.50400  -0.54548
  20   36664.4    272.7     10.69949  -0.88748  -0.45277   0.03748
  21   36941.6    270.7     23.05267  -0.72442  -0.66144   0.00695
  22   37620.2    265.8      4.80540  -0.08856   0.78193  -0.85118
  23   38879.5    257.2      6.45624  -0.84808  -0.15796   0.10808
  24   39598.5    252.5     30.81819   1.17328  -0.37481   0.14694
  25   39894.8    250.7      4.83217  -0.23688  -0.12434  -0.32207
  26   40027.4    249.8      5.03084  -0.34934  -0.15756  -0.23423
  27   40086.2    249.5     -2.06395   0.37484  -0.02995   0.11730
  28   40225.0    248.6      7.73986   1.17453   0.22482   0.17106

sTD-DFT done

Total run time:        5.085 sec

           *** ORCA-CIS/TD-DFT FINISHED WITHOUT ERROR ***

-------------------------   --------------------
FINAL SINGLE POINT ENERGY     -3201.308224132037
-------------------------   --------------------


                            ***************************************
                            *     ORCA property calculations      *
                            ***************************************

                                    ---------------------
                                    Active property flags
                                    ---------------------
   (+) Dipole Moment


------------------------------------------------------------------------------
                       ORCA ELECTRIC PROPERTIES CALCULATION
------------------------------------------------------------------------------

Dipole Moment Calculation                       ... on
Quadrupole Moment Calculation                   ... off
Polarizability Calculation                      ... off
GBWName                                         ... xtbopt.gbw
Electron density file                           ... xtbopt.scfp
The origin for moment calculation is the CENTER OF MASS  = (-6.683433, 24.579765 -0.262432)

-------------
DIPOLE MOMENT
-------------
                                X             Y             Z
Electronic contribution:      7.76586     -23.90089      80.77631
Nuclear contribution   :     -7.89979      23.36789     -80.63143
                        -----------------------------------------
Total Dipole Moment    :     -0.13393      -0.53300       0.14488
                        -----------------------------------------
Magnitude (a.u.)       :      0.56835
Magnitude (Debye)      :      1.44462



--------------------
Rotational spectrum 
--------------------
 
Rotational constants in cm-1:     0.004565     0.000206     0.000200 
Rotational constants in MHz :   136.863248     6.187319     5.997160 

 Dipole components along the rotational axes: 
x,y,z [a.u.] :     0.340186    -0.238019     0.388120 
x,y,z [Debye]:     0.864683    -0.604995     0.986522 

 

Timings for individual modules:

Sum of individual times         ...      772.699 sec (=  12.878 min)
GTO integral calculation        ...        7.417 sec (=   0.124 min)   1.0 %
SCF iterations                  ...      756.741 sec (=  12.612 min)  97.9 %
CIS module                      ...        8.541 sec (=   0.142 min)   1.1 %
                             ****ORCA TERMINATED NORMALLY****
TOTAL RUN TIME: 0 days 0 hours 12 minutes 56 seconds 83 msec
