
                                 *****************
                                 * O   R   C   A *
                                 *****************

           --- An Ab Initio, DFT and Semiempirical electronic structure package ---

                  #######################################################
                  #                        -***-                        #
                  #          Department of theory and spectroscopy      #
                  #               Directorship: Frank Neese             #
                  #        Max Planck Institute fuer Kohlenforschung    #
                  #                Kaiser Wilhelm Platz 1               #
                  #                 D-45470 Muelheim/Ruhr               #
                  #                      Germany                        #
                  #                                                     #
                  #                  All rights reserved                #
                  #                        -***-                        #
                  #######################################################


                         Program Version 4.2.0 -  RELEASE  -


 With contributions from (in alphabetic order):
   Daniel Aravena         : Magnetic Suceptibility
   Michael Atanasov       : Ab Initio Ligand Field Theory (pilot matlab implementation)
   Alexander A. Auer      : GIAO ZORA, VPT2
   Ute Becker             : Parallelization
   Giovanni Bistoni       : ED, misc. LED, open-shell LED, HFLED
   Martin Brehm           : Molecular dynamics
   Dmytro Bykov           : SCF Hessian
   Vijay G. Chilkuri      : MRCI spin determinant printing, contributions to CSF-ICE
   Dipayan Datta          : RHF DLPNO-CCSD density
   Achintya Kumar Dutta   : EOM-CC, STEOM-CC
   Dmitry Ganyushin       : Spin-Orbit,Spin-Spin,Magnetic field MRCI
   Miquel Garcia          : C-PCM Hessian, Gaussian charge scheme
   Yang Guo               : DLPNO-NEVPT2, CIM, IAO-localization
   Andreas Hansen         : Spin unrestricted coupled pair/coupled cluster methods
   Benjamin Helmich-Paris : CASSCF linear response (MC-RPA)
   Lee Huntington         : MR-EOM, pCC
   Robert Izsak           : Overlap fitted RIJCOSX, COSX-SCS-MP3, EOM
   Christian Kollmar      : KDIIS, OOCD, Brueckner-CCSD(T), CCSD density
   Simone Kossmann        : Meta GGA functionals, TD-DFT gradient, OOMP2, MP2 Hessian
   Martin Krupicka        : AUTO-CI
   Lucas Lang             : DCDCAS
   Dagmar Lenk            : GEPOL surface, SMD
   Dimitrios Liakos       : Extrapolation schemes; Compound Job, initial MDCI parallelization
   Dimitrios Manganas     : Further ROCIS development; embedding schemes
   Dimitrios Pantazis     : SARC Basis sets
   Taras Petrenko         : DFT Hessian,TD-DFT gradient, ASA, ECA, R-Raman, ABS, FL, XAS/XES, NRVS
   Peter Pinski           : DLPNO-MP2, DLPNO-MP2 Gradient
   Christoph Reimann      : Effective Core Potentials
   Marius Retegan         : Local ZFS, SOC
   Christoph Riplinger    : Optimizer, TS searches, QM/MM, DLPNO-CCSD(T), (RO)-DLPNO pert. Triples
   Tobias Risthaus        : Range-separated hybrids, TD-DFT gradient, RPA, STAB
   Michael Roemelt        : Original ROCIS implementation
   Masaaki Saitow         : Open-shell DLPNO-CCSD energy and density
   Barbara Sandhoefer     : DKH picture change effects
   Avijit Sen             : IP-ROCIS
   Kantharuban Sivalingam : CASSCF convergence, NEVPT2, FIC-MRCI
   Bernardo de Souza      : ESD, SOC TD-DFT
   Georgi Stoychev        : AutoAux, RI-MP2 NMR
   Willem Van den Heuvel  : Paramagnetic NMR
   Boris Wezisla          : Elementary symmetry handling
   Frank Wennmohs         : Technical directorship


 We gratefully acknowledge several colleagues who have allowed us to
 interface, adapt or use parts of their codes:
   Stefan Grimme, W. Hujo, H. Kruse,             : VdW corrections, initial TS optimization,
                  C. Bannwarth                     DFT functionals, gCP, sTDA/sTD-DF
   Ed Valeev, F. Pavosevic, A. Kumar             : LibInt (2-el integral package), F12 methods
   Garnet Chan, S. Sharma, J. Yang, R. Olivares  : DMRG
   Ulf Ekstrom                                   : XCFun DFT Library
   Mihaly Kallay                                 : mrcc  (arbitrary order and MRCC methods)
   Andreas Klamt, Michael Diedenhofen            : otool_cosmo (COSMO solvation model)
   Jiri Pittner, Ondrej Demel                    : Mk-CCSD
   Frank Weinhold                                : gennbo (NPA and NBO analysis)
   Christopher J. Cramer and Donald G. Truhlar   : smd solvation model
   Lars Goerigk                                  : TD-DFT with DH, B97 family of functionals
   V. Asgeirsson, H. Jonsson                     : NEB implementation
   FAccTs GmbH                                   : IRC, NEB, NEB-TS, Multilevel, MM, QM/MM, CI optimization
   S Lehtola, MJT Oliveira, MAL Marques          : LibXC Library


 Your calculation uses the libint2 library for the computation of 2-el integrals
 For citations please refer to: http://libint.valeyev.net

 Your ORCA version has been built with support for libXC version: 4.2.3
 For citations please refer to: https://tddft.org/programs/libxc/

 This ORCA versions uses:
   CBLAS   interface :  Fast vector & matrix operations
   LAPACKE interface :  Fast linear algebra routines
   SCALAPACK package :  Parallel linear algebra routines


XCFun DFT library Copyright 2009-2010 Ulf Ekstrom and contributors.
See http://admol.org/xcfun for more information. This is free soft-
ware; see the source code for copying conditions. There is ABSOLUTELY
NO WARRANTY; not even for MERCHANTABILITY or FITNESS FOR A PARTICULAR
PURPOSE. For details see the documentation. Scientific users of this 
library should cite U. Ekstrom, L. Visscher, R. Bast, A. J. Thorvald-
sen and K. Ruud; J.Chem.Theor.Comp. 2010, DOI: 10.1021/ct100117s
XCFun Version 0.99 
----- Orbital basis set information -----
Your calculation utilizes the basis: def2-SVP
   F. Weigend and R. Ahlrichs, Phys. Chem. Chem. Phys. 7, 3297 (2005).

----- AuxJ basis set information -----
Your calculation utilizes the auxiliary basis: def2/J
   F. Weigend, Phys. Chem. Chem. Phys. 8, 1057 (2006).

================================================================================
                                        WARNINGS
                       Please study these warnings very carefully!
================================================================================

INFO   : Checking CIS options ...

WARNING: CIS/ROCIS methods need fully converged wavefunctions
  ===> : Setting SCFConvForced true
         You can overwrite this default with %scf ConvForced false 


INFO   : the flag for use of LIBINT has been found!

================================================================================
                                       INPUT FILE
================================================================================
NAME = xtbopt.inp
|  1> # ORCA input file
|  2> # SCF done       -163.631568930775          0.000821989513
|  3> ! CAM-B3LYP def2-SVP def2/J RIJCOSX Grid4 TightSCF
|  4> %maxcore 5000
|  5> %tddft
|  6>     Mode sTDDFT
|  7>     Ethresh 5.0
|  8>     maxcore 5000
|  9> end
| 10> 
| 11> %pal
| 12>   nprocs 6
| 13>   end
| 14> * xyz 0 1
| 15>    C        0.09880        -0.66147         5.04012
| 16>    S        0.24199        -0.98084         3.36902
| 17>    C       -0.60883        -2.48828         3.53446
| 18>    C       -0.97244        -2.70034         4.84830
| 19>    C       -0.55688        -1.65227         5.71753
| 20>    C       -0.75759        -1.61617         7.19190
| 21>    O       -0.58928        -0.62216         7.84319
| 22>    O       -1.13110        -2.77316         7.74754
| 23>    O       -1.65817        -3.82178         5.26012
| 24>    C       -3.07653        -3.67296         5.25602
| 25>    C       -0.82460        -3.36838         2.43445
| 26>    S       -1.51196        -4.94649         2.67435
| 27>    C       -1.39553        -5.31388         0.97945
| 28>    C       -0.84073        -4.23514         0.28254
| 29>    C       -0.52134        -3.14617         1.11223
| 30>    C       -0.61817        -4.19017        -1.10283
| 31>    N       -0.42518        -4.11043        -2.23197
| 32>    C       -1.84206        -6.57771         0.52874
| 33>    C       -1.76588        -7.02358        -0.75501
| 34>    C       -2.22418        -8.30282        -1.14261
| 35>    N       -2.15142        -8.77618        -2.43111
| 36>    C       -1.67089        -8.05882        -3.58838
| 37>    C       -2.69692        -7.05347        -4.10401
| 38>    C       -2.65922       -10.08096        -2.54217
| 39>    O       -2.69257       -10.70083        -3.58721
| 40>    C       -3.06783       -10.42337        -1.19670
| 41>    C       -2.79235        -9.31567        -0.36416
| 42>    C       -3.20234        -9.65578         0.98179
| 43>    O       -3.17281        -9.02665         2.02270
| 44>    N       -3.70465       -10.95920         0.87367
| 45>    C       -4.17412       -11.68043         2.03331
| 46>    C       -3.12767       -12.66119         2.55587
| 47>    C       -3.62903       -11.44020        -0.41499
| 48>    C       -4.06100       -12.72545        -0.79888
| 49>    C       -3.96926       -13.18224        -2.08197
| 50>    C       -4.37763       -14.47128        -2.49473
| 51>    C       -4.89953       -15.50714        -1.74390
| 52>    C       -5.14394       -16.62499        -2.58788
| 53>    C       -4.74022       -16.20768        -3.94612
| 54>    C       -4.28744       -14.93011        -3.87499
| 55>    C       -4.81198       -16.97354        -5.11482
| 56>    N       -4.86238       -17.57458        -6.09272
| 57>    C       -5.63768       -17.85472        -2.21993
| 58>    C       -5.82230       -19.00231        -3.05174
| 59>    C       -6.26533       -20.04710        -2.28287
| 60>    C       -6.43271       -19.57135        -0.91815
| 61>    C       -6.05947       -18.26425        -0.87063
| 62>    C       -6.11130       -17.45265         0.26672
| 63>    N       -6.16884       -16.79206         1.20598
| 64>    C       -6.55319       -21.36459        -2.76278
| 65>    S       -7.20328       -21.53798        -4.35835
| 66>    C       -7.30663       -23.24320        -4.18772
| 67>    C       -6.85314       -23.66634        -2.97311
| 68>    C       -6.40233       -22.59260        -2.13956
| 69>    C       -5.70232       -22.74923        -0.84162
| 70>    O       -5.11543       -21.84620        -0.30223
| 71>    O       -5.72831       -23.96793        -0.29338
| 72>    O       -6.80599       -24.95483        -2.53118
| 73>    C       -7.19317       -25.96856        -3.43408
| 74>    H        0.51235         0.23208         5.46315
| 75>    H       -1.23158        -3.48358         7.08526
| 76>    H       -3.47668        -4.64367         5.53887
| 77>    H       -3.44020        -3.40203         4.26225
| 78>    H       -3.39402        -2.91304         5.97595
| 79>    H       -0.08556        -2.23042         0.75305
| 80>    H       -2.26888        -7.22403         1.28559
| 81>    H       -1.33497        -6.39463        -1.51833
| 82>    H       -1.48204        -8.81658        -4.35392
| 83>    H       -0.72956        -7.55842        -3.34601
| 84>    H       -3.61948        -7.56443        -4.36904
| 85>    H       -2.30666        -6.55616        -4.98707
| 86>    H       -2.91825        -6.29947        -3.35218
| 87>    H       -5.10498       -12.19912         1.78945
| 88>    H       -4.38141       -10.92419         2.79553
| 89>    H       -2.86845       -13.39734         1.79845
| 90>    H       -3.51599       -13.18095         3.42698
| 91>    H       -2.22550       -12.12582         2.84200
| 92>    H       -4.48004       -13.36559        -0.03663
| 93>    H       -3.55586       -12.53420        -2.84369
| 94>    H       -5.08800       -15.50138        -0.68928
| 95>    H       -3.91881       -14.33094        -4.68715
| 96>    H       -5.60071       -19.04284        -4.10048
| 97>    H       -6.81360       -20.15335        -0.10254
| 98>    H       -7.69400       -23.82588        -4.99816
| 99>    H       -6.17014       -24.61992        -0.86324
|100>    H       -7.05015       -26.90727        -2.90271
|101>    H       -6.56903       -25.95444        -4.33128
|102>    H       -8.24397       -25.86237        -3.71656
|103> *
|104> 
|105>                          ****END OF INPUT****
================================================================================

                       ****************************
                       * Single Point Calculation *
                       ****************************

---------------------------------
CARTESIAN COORDINATES (ANGSTROEM)
---------------------------------
  C      0.098800   -0.661470    5.040120
  S      0.241990   -0.980840    3.369020
  C     -0.608830   -2.488280    3.534460
  C     -0.972440   -2.700340    4.848300
  C     -0.556880   -1.652270    5.717530
  C     -0.757590   -1.616170    7.191900
  O     -0.589280   -0.622160    7.843190
  O     -1.131100   -2.773160    7.747540
  O     -1.658170   -3.821780    5.260120
  C     -3.076530   -3.672960    5.256020
  C     -0.824600   -3.368380    2.434450
  S     -1.511960   -4.946490    2.674350
  C     -1.395530   -5.313880    0.979450
  C     -0.840730   -4.235140    0.282540
  C     -0.521340   -3.146170    1.112230
  C     -0.618170   -4.190170   -1.102830
  N     -0.425180   -4.110430   -2.231970
  C     -1.842060   -6.577710    0.528740
  C     -1.765880   -7.023580   -0.755010
  C     -2.224180   -8.302820   -1.142610
  N     -2.151420   -8.776180   -2.431110
  C     -1.670890   -8.058820   -3.588380
  C     -2.696920   -7.053470   -4.104010
  C     -2.659220  -10.080960   -2.542170
  O     -2.692570  -10.700830   -3.587210
  C     -3.067830  -10.423370   -1.196700
  C     -2.792350   -9.315670   -0.364160
  C     -3.202340   -9.655780    0.981790
  O     -3.172810   -9.026650    2.022700
  N     -3.704650  -10.959200    0.873670
  C     -4.174120  -11.680430    2.033310
  C     -3.127670  -12.661190    2.555870
  C     -3.629030  -11.440200   -0.414990
  C     -4.061000  -12.725450   -0.798880
  C     -3.969260  -13.182240   -2.081970
  C     -4.377630  -14.471280   -2.494730
  C     -4.899530  -15.507140   -1.743900
  C     -5.143940  -16.624990   -2.587880
  C     -4.740220  -16.207680   -3.946120
  C     -4.287440  -14.930110   -3.874990
  C     -4.811980  -16.973540   -5.114820
  N     -4.862380  -17.574580   -6.092720
  C     -5.637680  -17.854720   -2.219930
  C     -5.822300  -19.002310   -3.051740
  C     -6.265330  -20.047100   -2.282870
  C     -6.432710  -19.571350   -0.918150
  C     -6.059470  -18.264250   -0.870630
  C     -6.111300  -17.452650    0.266720
  N     -6.168840  -16.792060    1.205980
  C     -6.553190  -21.364590   -2.762780
  S     -7.203280  -21.537980   -4.358350
  C     -7.306630  -23.243200   -4.187720
  C     -6.853140  -23.666340   -2.973110
  C     -6.402330  -22.592600   -2.139560
  C     -5.702320  -22.749230   -0.841620
  O     -5.115430  -21.846200   -0.302230
  O     -5.728310  -23.967930   -0.293380
  O     -6.805990  -24.954830   -2.531180
  C     -7.193170  -25.968560   -3.434080
  H      0.512350    0.232080    5.463150
  H     -1.231580   -3.483580    7.085260
  H     -3.476680   -4.643670    5.538870
  H     -3.440200   -3.402030    4.262250
  H     -3.394020   -2.913040    5.975950
  H     -0.085560   -2.230420    0.753050
  H     -2.268880   -7.224030    1.285590
  H     -1.334970   -6.394630   -1.518330
  H     -1.482040   -8.816580   -4.353920
  H     -0.729560   -7.558420   -3.346010
  H     -3.619480   -7.564430   -4.369040
  H     -2.306660   -6.556160   -4.987070
  H     -2.918250   -6.299470   -3.352180
  H     -5.104980  -12.199120    1.789450
  H     -4.381410  -10.924190    2.795530
  H     -2.868450  -13.397340    1.798450
  H     -3.515990  -13.180950    3.426980
  H     -2.225500  -12.125820    2.842000
  H     -4.480040  -13.365590   -0.036630
  H     -3.555860  -12.534200   -2.843690
  H     -5.088000  -15.501380   -0.689280
  H     -3.918810  -14.330940   -4.687150
  H     -5.600710  -19.042840   -4.100480
  H     -6.813600  -20.153350   -0.102540
  H     -7.694000  -23.825880   -4.998160
  H     -6.170140  -24.619920   -0.863240
  H     -7.050150  -26.907270   -2.902710
  H     -6.569030  -25.954440   -4.331280
  H     -8.243970  -25.862370   -3.716560

----------------------------
CARTESIAN COORDINATES (A.U.)
----------------------------
  NO LB      ZA    FRAG     MASS         X           Y           Z
   0 C     6.0000    0    12.011    0.186705   -1.249997    9.524446
   1 S    16.0000    0    32.060    0.457295   -1.853519    6.366525
   2 C     6.0000    0    12.011   -1.150522   -4.702168    6.679161
   3 C     6.0000    0    12.011   -1.837645   -5.102903    9.161959
   4 C     6.0000    0    12.011   -1.052351   -3.122338   10.804566
   5 C     6.0000    0    12.011   -1.431638   -3.054119   13.590721
   6 O     8.0000    0    15.999   -1.113578   -1.175712   14.821481
   7 O     8.0000    0    15.999   -2.137469   -5.240513   14.640729
   8 O     8.0000    0    15.999   -3.133487   -7.222118    9.940186
   9 C     6.0000    0    12.011   -5.813799   -6.940889    9.932438
  10 C     6.0000    0    12.011   -1.558268   -6.365316    4.600444
  11 S    16.0000    0    32.060   -2.857190   -9.347511    5.053789
  12 C     6.0000    0    12.011   -2.637170  -10.041778    1.850892
  13 C     6.0000    0    12.011   -1.588749   -8.003255    0.533923
  14 C     6.0000    0    12.011   -0.985190   -5.945400    2.101810
  15 C     6.0000    0    12.011   -1.168172   -7.918274   -2.084047
  16 N     7.0000    0    14.007   -0.803474   -7.767587   -4.217812
  17 C     6.0000    0    12.011   -3.480989  -12.430070    0.999174
  18 C     6.0000    0    12.011   -3.337030  -13.272643   -1.426762
  19 C     6.0000    0    12.011   -4.203091  -15.690056   -2.159220
  20 N     7.0000    0    14.007   -4.065595  -16.584577   -4.594132
  21 C     6.0000    0    12.011   -3.157524  -15.228963   -6.781055
  22 C     6.0000    0    12.011   -5.096440  -13.329127   -7.755455
  23 C     6.0000    0    12.011   -5.025198  -19.050254   -4.804005
  24 O     8.0000    0    15.999   -5.088220  -20.221638   -6.778844
  25 C     6.0000    0    12.011   -5.797359  -19.697315   -2.261435
  26 C     6.0000    0    12.011   -5.276777  -17.604065   -0.688163
  27 C     6.0000    0    12.011   -6.051546  -18.246780    1.855314
  28 O     8.0000    0    15.999   -5.995742  -17.057896    3.822349
  29 N     7.0000    0    14.007   -7.000774  -20.709887    1.650997
  30 C     6.0000    0    12.011   -7.887944  -22.072814    3.842399
  31 C     6.0000    0    12.011   -5.910440  -23.926182    4.829894
  32 C     6.0000    0    12.011   -6.857873  -21.618845   -0.784217
  33 C     6.0000    0    12.011   -7.674178  -24.047615   -1.509664
  34 C     6.0000    0    12.011   -7.500814  -24.910823   -3.934353
  35 C     6.0000    0    12.011   -8.272522  -27.346756   -4.714356
  36 C     6.0000    0    12.011   -9.258770  -29.304248   -3.295493
  37 C     6.0000    0    12.011   -9.720638  -31.416678   -4.890384
  38 C     6.0000    0    12.011   -8.957718  -30.628076   -7.457086
  39 C     6.0000    0    12.011   -8.102087  -28.213819   -7.322670
  40 C     6.0000    0    12.011   -9.093324  -32.075342   -9.665609
  41 N     7.0000    0    14.007   -9.188567  -33.211143  -11.513572
  42 C     6.0000    0    12.011  -10.653671  -33.740531   -4.195060
  43 C     6.0000    0    12.011  -11.002552  -35.909162   -5.766953
  44 C     6.0000    0    12.011  -11.839758  -37.883529   -4.313999
  45 C     6.0000    0    12.011  -12.156060  -36.984492   -1.735052
  46 C     6.0000    0    12.011  -11.450739  -34.514431   -1.645252
  47 C     6.0000    0    12.011  -11.548683  -32.980729    0.504028
  48 N     7.0000    0    14.007  -11.657418  -31.732395    2.278972
  49 C     6.0000    0    12.011  -12.383734  -40.373224   -5.220898
  50 S    16.0000    0    32.060  -13.612226  -40.700884   -8.236088
  51 C     6.0000    0    12.011  -13.807530  -43.923282   -7.913644
  52 C     6.0000    0    12.011  -12.950558  -44.722901   -5.618364
  53 C     6.0000    0    12.011  -12.098650  -42.693827   -4.043182
  54 C     6.0000    0    12.011  -10.775823  -42.989814   -1.590431
  55 O     8.0000    0    15.999   -9.666762  -41.283335   -0.571132
  56 O     8.0000    0    15.999  -10.824937  -45.292824   -0.554408
  57 O     8.0000    0    15.999  -12.861457  -47.157794   -4.783237
  58 C     6.0000    0    12.011  -13.593121  -49.073466   -6.489471
  59 H     1.0000    0     1.008    0.968201    0.438568   10.323857
  60 H     1.0000    0     1.008   -2.327349   -6.583012   13.389201
  61 H     1.0000    0     1.008   -6.569973   -8.775265   10.466947
  62 H     1.0000    0     1.008   -6.501036   -6.428905    8.054485
  63 H     1.0000    0     1.008   -6.413768   -5.504848   11.292909
  64 H     1.0000    0     1.008   -0.161685   -4.214883    1.423058
  65 H     1.0000    0     1.008   -4.287562  -13.651438    2.429413
  66 H     1.0000    0     1.008   -2.522728  -12.084099   -2.869228
  67 H     1.0000    0     1.008   -2.800650  -16.660922   -8.227716
  68 H     1.0000    0     1.008   -1.378669  -14.283344   -6.323043
  69 H     1.0000    0     1.008   -6.839826  -14.294701   -8.256289
  70 H     1.0000    0     1.008   -4.358956  -12.389347   -9.424197
  71 H     1.0000    0     1.008   -5.514693  -11.904273   -6.334702
  72 H     1.0000    0     1.008   -9.647014  -23.052996    3.381570
  73 H     1.0000    0     1.008   -8.279665  -20.643727    5.282786
  74 H     1.0000    0     1.008   -5.420585  -25.317304    3.398578
  75 H     1.0000    0     1.008   -6.644258  -24.908386    6.476054
  76 H     1.0000    0     1.008   -4.205586  -22.914479    5.370602
  77 H     1.0000    0     1.008   -8.466049  -25.257305   -0.069221
  78 H     1.0000    0     1.008   -6.719602  -23.686205   -5.373795
  79 H     1.0000    0     1.008   -9.614927  -29.293363   -1.302550
  80 H     1.0000    0     1.008   -7.405478  -27.081552   -8.857430
  81 H     1.0000    0     1.008  -10.583808  -35.985752   -7.748784
  82 H     1.0000    0     1.008  -12.875838  -38.084312   -0.193773
  83 H     1.0000    0     1.008  -14.539553  -45.024388   -9.445154
  84 H     1.0000    0     1.008  -11.659875  -46.524906   -1.631287
  85 H     1.0000    0     1.008  -13.322853  -50.847371   -5.485327
  86 H     1.0000    0     1.008  -12.413668  -49.046784   -8.184933
  87 H     1.0000    0     1.008  -15.578846  -48.872796   -7.023281

--------------------------------
INTERNAL COORDINATES (ANGSTROEM)
--------------------------------
 C      0   0   0     0.000000000000     0.00000000     0.00000000
 S      1   0   0     1.707359301085     0.00000000     0.00000000
 C      2   1   0     1.738861817282    91.60463208     0.00000000
 C      3   2   1     1.379622129896   110.65965858   359.97148540
 C      1   2   3     1.367656832140   112.92234150     0.44733766
 C      5   1   2     1.488406735741   122.52815869   177.74668030
 O      6   5   1     1.200234477217   122.59484501    14.37453080
 O      6   5   1     1.336739088154   115.36826991   194.81482976
 O      4   3   2     1.377479226304   122.75530954   180.07713437
 C      9   4   3     1.426151917574   114.15969262   268.36468960
 C      3   2   1     1.425185848583   122.41114775   182.23419819
 S     11   3   2     1.737943310842   120.93579546   172.72293901
 C     12  11   3     1.738164942403    91.76696962   181.16904673
 C     13  12  11     1.398987696765   110.44669434     0.03177835
 C     11   3   2     1.374630728632   127.53048072   354.23986121
 C     14  13  12     1.403853728634   125.39184806   180.68362483
 N     16  14  13     1.148286004138   177.77885541   172.36107444
 C     13  12  11     1.414141016271   118.58958946   179.89712154
 C     18  13  12     1.361108927235   125.14789845   182.67032939
 C     19  18  13     1.413056130378   122.48735862   179.65569587
 N     20  19  18     1.374625751687   123.48310937   180.32425351
 C     21  20  19     1.443879601421   126.71344421   356.98199301
 C     22  21  20     1.526217704097   111.98238430   283.18142205
 C     21  20  19     1.404509171205   112.01730270   179.21159978
 O     24  21  20     1.215507976527   123.48103727   180.18518006
 C     24  21  20     1.447237458436   104.38057301   359.71513949
 C     20  19  18     1.398093943160   129.41422991   359.15411449
 C     27  20  19     1.447531697304   143.42132597     0.84851965
 O     28  27  20     1.216622458242   131.84812721     0.87983069
 N     28  27  20     1.401038531554   104.38160124   180.17438455
 C     30  28  27     1.444070539621   121.28059785   177.62912672
 C     31  30  28     1.526439233543   111.89681790   260.42515525
 C     30  28  27     1.377579028586   112.16928477     0.30798795
 C     33  30  28     1.409197351509   123.81127446   179.75991568
 C     34  33  30     1.365061639561   122.72822385   180.34772913
 C     35  34  33     1.413775440478   124.06390384   179.15612095
 C     36  35  34     1.381713153480   129.34603480   358.45556759
 C     37  36  35     1.421839340784   109.37690479   180.89735628
 C     38  37  36     1.477143653170   106.06397325   359.62692286
 C     39  38  37     1.357296692032   107.99316226     0.27170933
 C     39  38  37     1.399124986268   126.82756039   180.69117359
 N     41  39  38     1.148946322332   178.28678069   171.99406687
 C     38  37  36     1.375282612047   127.29328819   178.79090181
 C     43  38  37     1.429319848250   127.48757916   183.40449405
 C     44  43  38     1.370774526281   109.10368500   176.56900764
 C     45  44  43     1.454927766351   108.30508855     2.36209660
 C     46  45  44     1.360175230623   108.38705188   358.47683059
 C     47  46  45     1.398193810385   125.17389364   178.38865291
 N     48  47  46     1.149738816993   179.15894380   318.98297400
 C     45  44  43     1.431417789396   125.34289778   180.44916697
 S     50  45  44     1.731624880019   118.46268964   326.05110491
 C     51  50  45     1.716849168623    91.74640709   181.45693601
 C     52  51  50     1.363810137739   112.12680484   359.40021479
 C     50  45  44     1.385341282176   130.02737382   146.47722187
 C     54  50  45     1.482968374781   122.59963105   351.29000437
 O     55  54  50     1.204510118305   122.87087695   353.10885488
 O     55  54  50     1.336589790362   116.49536711   174.34046441
 O     53  52  51     1.362986326967   126.41098752   179.87060921
 C     58  53  52     1.411660467428   117.51572510     3.70827592
 H      1   2   3     1.071638738522   120.66198637   179.56875033
 H      8   6   5     0.976425934314   112.12046424   359.14918577
 H     10   9   4     1.087383119742   105.78813594   176.52606689
 H     10   9   4     1.092354222173   111.07569896    57.66674834
 H     10   9   4     1.093881854407   111.05452545   295.85706600
 H     15  11   3     1.075877568918   123.23465514   358.69846469
 H     18  13  12     1.082925102350   115.79127100     2.31493485
 H     19  18  13     1.078850755665   119.91407957     0.19222533
 H     22  21  20     1.093579458339   105.91950901   163.71182872
 H     22  21  20     1.093272859720   109.64963948    46.37517566
 H     23  22  21     1.087399639553   110.07049854   301.02528908
 H     23  22  21     1.086008778648   109.55883994   181.45629661
 H     23  22  21     1.087543708455   111.09726458    61.55353768
 H     31  30  28     1.093163919685   109.55261903   137.12188029
 H     31  30  28     1.093548083122   106.01957598    19.88279939
 H     32  31  30     1.087564658905   111.09329154   300.00465084
 H     32  31  30     1.086174715274   109.68944737   179.86281260
 H     32  31  30     1.087383153585   110.03060508    60.28857011
 H     34  33  30     1.079999446157   117.85634427     0.34493293
 H     35  34  33     1.082161152509   119.13728081   359.51764701
 H     37  36  35     1.071343765045   126.67962489     0.11581941
 H     40  39  38     1.074475049222   126.84986916   180.01813462
 H     44  43  38     1.072660429306   124.93439266   359.31082000
 H     46  45  44     1.071923907840   125.24310613   176.85672594
 H     52  51  50     1.070693463555   119.14837816   179.57090908
 H     57  55  54     0.972134316131   112.32854866     3.58449212
 H     59  58  53     1.088110868156   105.73084780   178.05596684
 H     59  58  53     1.093031543003   111.04596817    59.14487965
 H     59  58  53     1.093275768734   111.04655091   296.92105037

---------------------------
INTERNAL COORDINATES (A.U.)
---------------------------
 C      0   0   0     0.000000000000     0.00000000     0.00000000
 S      1   0   0     3.226441491253     0.00000000     0.00000000
 C      2   1   0     3.285972619395    91.60463208     0.00000000
 C      3   2   1     2.607107993801   110.65965858   359.97148540
 C      1   2   3     2.584496857931   112.92234150     0.44733766
 C      5   1   2     2.812681106435   122.52815869   177.74668030
 O      6   5   1     2.268114458430   122.59484501    14.37453080
 O      6   5   1     2.526070789120   115.36826991   194.81482976
 O      4   3   2     2.603058492881   122.75530954   180.07713437
 C      9   4   3     2.695036549581   114.15969262   268.36468960
 C      3   2   1     2.693210943761   122.41114775   182.23419819
 S     11   3   2     3.284236893772   120.93579546   172.72293901
 C     12  11   3     3.284655716725    91.76696962   181.16904673
 C     13  12  11     2.643703611611   110.44669434     0.03177835
 C     11   3   2     2.597675612388   127.53048072   354.23986121
 C     14  13  12     2.652899079203   125.39184806   180.68362483
 N     16  14  13     2.169946071236   177.77885541   172.36107444
 C     13  12  11     2.672339235497   118.58958946   179.89712154
 C     18  13  12     2.572123110910   125.14789845   182.67032939
 C     19  18  13     2.670289098274   122.48735862   179.65569587
 N     20  19  18     2.597666207323   123.48310937   180.32425351
 C     21  20  19     2.728537017041   126.71344421   356.98199301
 C     22  21  20     2.884133481486   111.98238430   283.18142205
 C     21  20  19     2.654137686159   112.01730270   179.21159978
 O     24  21  20     2.296977189232   123.48103727   180.18518006
 C     24  21  20     2.734882447196   104.38057301   359.71513949
 C     20  19  18     2.642014662066   129.41422991   359.15411449
 C     27  20  19     2.735438478075   143.42132597     0.84851965
 O     28  27  20     2.299083254456   131.84812721     0.87983069
 N     28  27  20     2.647579127709   104.38160124   180.17438455
 C     30  28  27     2.728897837947   121.28059785   177.62912672
 C     31  30  28     2.884552111469   111.89681790   260.42515525
 C     30  28  27     2.603247091861   112.16928477     0.30798795
 C     33  30  28     2.662997062999   123.81127446   179.75991568
 C     34  33  30     2.579592654691   122.72822385   180.34772913
 C     35  34  33     2.671648397368   124.06390384   179.15612095
 C     36  35  34     2.611059455714   129.34603480   358.45556759
 C     37  36  35     2.686886960516   109.37690479   180.89735628
 C     38  37  36     2.791396964951   106.06397325   359.62692286
 C     39  38  37     2.564919030417   107.99316226     0.27170933
 C     39  38  37     2.643963051173   126.82756039   180.69117359
 N     41  39  38     2.171193891783   178.28678069   171.99406687
 C     38  37  36     2.598907493514   127.29328819   178.79090181
 C     43  38  37     2.701023070969   127.48757916   183.40449405
 C     44  43  38     2.590388446026   109.10368500   176.56900764
 C     45  44  43     2.749415023042   108.30508855     2.36209660
 C     46  45  44     2.570358680020   108.38705188   358.47683059
 C     47  46  45     2.642203383772   125.17389364   178.38865291
 N     48  47  46     2.172691489655   179.15894380   318.98297400
 C     45  44  43     2.704987605182   125.34289778   180.44916697
 S     50  45  44     3.272296789920   118.46268964   326.05110491
 C     51  50  45     3.244374741947    91.74640709   181.45693601
 C     52  51  50     2.577227658992   112.12680484   359.40021479
 C     50  45  44     2.617915625327   130.02737382   146.47722187
 C     54  50  45     2.802404093602   122.59963105   351.29000437
 O     55  54  50     2.276194249134   122.87087695   353.10885488
 O     55  54  50     2.525788657179   116.49536711   174.34046441
 O     53  52  51     2.575670882248   126.41098752   179.87060921
 C     58  53  52     2.667651677523   117.51572510     3.70827592
 H      1   2   3     2.025103730307   120.66198637   179.56875033
 H      8   6   5     1.845177605911   112.12046424   359.14918577
 H     10   9   4     2.054856298961   105.78813594   176.52606689
 H     10   9   4     2.064250321140   111.07569896    57.66674834
 H     10   9   4     2.067137127694   111.05452545   295.85706600
 H     15  11   3     2.033113958883   123.23465514   358.69846469
 H     18  13  12     2.046431866990   115.79127100     2.31493485
 H     19  18  13     2.038732467582   119.91407957     0.19222533
 H     22  21  20     2.066565681942   105.91950901   163.71182872
 H     22  21  20     2.065986294519   109.64963948    46.37517566
 H     23  22  21     2.054887516880   110.07049854   301.02528908
 H     23  22  21     2.052259170679   109.55883994   181.45629661
 H     23  22  21     2.055159767649   111.09726458    61.55353768
 H     31  30  28     2.065780427688   109.55261903   137.12188029
 H     31  30  28     2.066506391375   106.01957598    19.88279939
 H     32  31  30     2.055199358263   111.09329154   300.00465084
 H     32  31  30     2.052572745457   109.68944737   179.86281260
 H     32  31  30     2.054856362915   110.03060508    60.28857011
 H     34  33  30     2.040903178024   117.85634427     0.34493293
 H     35  34  33     2.044988211011   119.13728081   359.51764701
 H     37  36  35     2.024546311218   126.67962489     0.11581941
 H     40  39  38     2.030463580761   126.84986916   180.01813462
 H     44  43  38     2.027034446084   124.93439266   359.31082000
 H     46  45  44     2.025642622221   125.24310613   176.85672594
 H     52  51  50     2.023317419499   119.14837816   179.57090908
 H     57  55  54     1.837067622875   112.32854866     3.58449212
 H     59  58  53     2.056231544159   105.73084780   178.05596684
 H     59  58  53     2.065530272013   111.04596817    59.14487965
 H     59  58  53     2.065991791759   111.04655091   296.92105037

---------------------
BASIS SET INFORMATION
---------------------
There are 5 groups of distinct atoms

 Group   1 Type C   : 7s4p1d contracted to 3s2p1d pattern {511/31/1}
 Group   2 Type S   : 10s7p1d contracted to 4s3p1d pattern {5311/511/1}
 Group   3 Type O   : 7s4p1d contracted to 3s2p1d pattern {511/31/1}
 Group   4 Type N   : 7s4p1d contracted to 3s2p1d pattern {511/31/1}
 Group   5 Type H   : 4s1p contracted to 2s1p pattern {31/1}

Atom   0C    basis set group =>   1
Atom   1S    basis set group =>   2
Atom   2C    basis set group =>   1
Atom   3C    basis set group =>   1
Atom   4C    basis set group =>   1
Atom   5C    basis set group =>   1
Atom   6O    basis set group =>   3
Atom   7O    basis set group =>   3
Atom   8O    basis set group =>   3
Atom   9C    basis set group =>   1
Atom  10C    basis set group =>   1
Atom  11S    basis set group =>   2
Atom  12C    basis set group =>   1
Atom  13C    basis set group =>   1
Atom  14C    basis set group =>   1
Atom  15C    basis set group =>   1
Atom  16N    basis set group =>   4
Atom  17C    basis set group =>   1
Atom  18C    basis set group =>   1
Atom  19C    basis set group =>   1
Atom  20N    basis set group =>   4
Atom  21C    basis set group =>   1
Atom  22C    basis set group =>   1
Atom  23C    basis set group =>   1
Atom  24O    basis set group =>   3
Atom  25C    basis set group =>   1
Atom  26C    basis set group =>   1
Atom  27C    basis set group =>   1
Atom  28O    basis set group =>   3
Atom  29N    basis set group =>   4
Atom  30C    basis set group =>   1
Atom  31C    basis set group =>   1
Atom  32C    basis set group =>   1
Atom  33C    basis set group =>   1
Atom  34C    basis set group =>   1
Atom  35C    basis set group =>   1
Atom  36C    basis set group =>   1
Atom  37C    basis set group =>   1
Atom  38C    basis set group =>   1
Atom  39C    basis set group =>   1
Atom  40C    basis set group =>   1
Atom  41N    basis set group =>   4
Atom  42C    basis set group =>   1
Atom  43C    basis set group =>   1
Atom  44C    basis set group =>   1
Atom  45C    basis set group =>   1
Atom  46C    basis set group =>   1
Atom  47C    basis set group =>   1
Atom  48N    basis set group =>   4
Atom  49C    basis set group =>   1
Atom  50S    basis set group =>   2
Atom  51C    basis set group =>   1
Atom  52C    basis set group =>   1
Atom  53C    basis set group =>   1
Atom  54C    basis set group =>   1
Atom  55O    basis set group =>   3
Atom  56O    basis set group =>   3
Atom  57O    basis set group =>   3
Atom  58C    basis set group =>   1
Atom  59H    basis set group =>   5
Atom  60H    basis set group =>   5
Atom  61H    basis set group =>   5
Atom  62H    basis set group =>   5
Atom  63H    basis set group =>   5
Atom  64H    basis set group =>   5
Atom  65H    basis set group =>   5
Atom  66H    basis set group =>   5
Atom  67H    basis set group =>   5
Atom  68H    basis set group =>   5
Atom  69H    basis set group =>   5
Atom  70H    basis set group =>   5
Atom  71H    basis set group =>   5
Atom  72H    basis set group =>   5
Atom  73H    basis set group =>   5
Atom  74H    basis set group =>   5
Atom  75H    basis set group =>   5
Atom  76H    basis set group =>   5
Atom  77H    basis set group =>   5
Atom  78H    basis set group =>   5
Atom  79H    basis set group =>   5
Atom  80H    basis set group =>   5
Atom  81H    basis set group =>   5
Atom  82H    basis set group =>   5
Atom  83H    basis set group =>   5
Atom  84H    basis set group =>   5
Atom  85H    basis set group =>   5
Atom  86H    basis set group =>   5
Atom  87H    basis set group =>   5
---------------------------------
AUXILIARY/J BASIS SET INFORMATION
---------------------------------
There are 5 groups of distinct atoms

 Group   1 Type C   : 12s5p4d2f1g contracted to 6s4p3d1f1g pattern {711111/2111/211/2/1}
 Group   2 Type S   : 14s5p5d2f1g contracted to 8s4p3d1f1g pattern {71111111/2111/311/2/1}
 Group   3 Type O   : 12s5p4d2f1g contracted to 6s4p3d1f1g pattern {711111/2111/211/2/1}
 Group   4 Type N   : 12s5p4d2f1g contracted to 6s4p3d1f1g pattern {711111/2111/211/2/1}
 Group   5 Type H   : 5s2p1d contracted to 3s1p1d pattern {311/2/1}

Atom   0C    basis set group =>   1
Atom   1S    basis set group =>   2
Atom   2C    basis set group =>   1
Atom   3C    basis set group =>   1
Atom   4C    basis set group =>   1
Atom   5C    basis set group =>   1
Atom   6O    basis set group =>   3
Atom   7O    basis set group =>   3
Atom   8O    basis set group =>   3
Atom   9C    basis set group =>   1
Atom  10C    basis set group =>   1
Atom  11S    basis set group =>   2
Atom  12C    basis set group =>   1
Atom  13C    basis set group =>   1
Atom  14C    basis set group =>   1
Atom  15C    basis set group =>   1
Atom  16N    basis set group =>   4
Atom  17C    basis set group =>   1
Atom  18C    basis set group =>   1
Atom  19C    basis set group =>   1
Atom  20N    basis set group =>   4
Atom  21C    basis set group =>   1
Atom  22C    basis set group =>   1
Atom  23C    basis set group =>   1
Atom  24O    basis set group =>   3
Atom  25C    basis set group =>   1
Atom  26C    basis set group =>   1
Atom  27C    basis set group =>   1
Atom  28O    basis set group =>   3
Atom  29N    basis set group =>   4
Atom  30C    basis set group =>   1
Atom  31C    basis set group =>   1
Atom  32C    basis set group =>   1
Atom  33C    basis set group =>   1
Atom  34C    basis set group =>   1
Atom  35C    basis set group =>   1
Atom  36C    basis set group =>   1
Atom  37C    basis set group =>   1
Atom  38C    basis set group =>   1
Atom  39C    basis set group =>   1
Atom  40C    basis set group =>   1
Atom  41N    basis set group =>   4
Atom  42C    basis set group =>   1
Atom  43C    basis set group =>   1
Atom  44C    basis set group =>   1
Atom  45C    basis set group =>   1
Atom  46C    basis set group =>   1
Atom  47C    basis set group =>   1
Atom  48N    basis set group =>   4
Atom  49C    basis set group =>   1
Atom  50S    basis set group =>   2
Atom  51C    basis set group =>   1
Atom  52C    basis set group =>   1
Atom  53C    basis set group =>   1
Atom  54C    basis set group =>   1
Atom  55O    basis set group =>   3
Atom  56O    basis set group =>   3
Atom  57O    basis set group =>   3
Atom  58C    basis set group =>   1
Atom  59H    basis set group =>   5
Atom  60H    basis set group =>   5
Atom  61H    basis set group =>   5
Atom  62H    basis set group =>   5
Atom  63H    basis set group =>   5
Atom  64H    basis set group =>   5
Atom  65H    basis set group =>   5
Atom  66H    basis set group =>   5
Atom  67H    basis set group =>   5
Atom  68H    basis set group =>   5
Atom  69H    basis set group =>   5
Atom  70H    basis set group =>   5
Atom  71H    basis set group =>   5
Atom  72H    basis set group =>   5
Atom  73H    basis set group =>   5
Atom  74H    basis set group =>   5
Atom  75H    basis set group =>   5
Atom  76H    basis set group =>   5
Atom  77H    basis set group =>   5
Atom  78H    basis set group =>   5
Atom  79H    basis set group =>   5
Atom  80H    basis set group =>   5
Atom  81H    basis set group =>   5
Atom  82H    basis set group =>   5
Atom  83H    basis set group =>   5
Atom  84H    basis set group =>   5
Atom  85H    basis set group =>   5
Atom  86H    basis set group =>   5
Atom  87H    basis set group =>   5


           ************************************************************
           *        Program running with 6 parallel MPI-processes     *
           *              working on a common directory               *
           ************************************************************
------------------------------------------------------------------------------
                           ORCA GTO INTEGRAL CALCULATION
                           -- RI-GTO INTEGRALS CHOSEN --
------------------------------------------------------------------------------

                         BASIS SET STATISTICS AND STARTUP INFO

Gaussian basis set:
 # of primitive gaussian shells          ...  871
 # of primitive gaussian functions       ... 1655
 # of contracted shells                  ...  447
 # of contracted basis functions         ...  983
 Highest angular momentum                ...    2
 Maximum contraction depth               ...    5
Auxiliary gaussian basis set:
 # of primitive gaussian shells          ... 1657
 # of primitive gaussian functions       ... 4615
 # of contracted shells                  ... 1036
 # of contracted aux-basis functions     ... 3216
 Highest angular momentum                ...    4
 Maximum contraction depth               ...    7
Ratio of auxiliary to basis functions    ...  3.27
Integral package used                  ... LIBINT
 One Electron integrals                  ... done
 Ordering auxiliary basis shells         ... done
 Integral threshhold             Thresh  ...  2.500e-11
 Primitive cut-off               TCut    ...  2.500e-12
 Pre-screening matrix                    ... done
 Shell pair data                         ... 
 Ordering of the shell pairs             ... done (   0.006 sec) 34803 of 100128 pairs
 Determination of significant pairs      ... done (   0.000 sec)
 Creation of shell pair data             ... done (   0.004 sec)
 Storage of shell pair data              ... done (   0.010 sec)
 Shell pair data done in (   0.020 sec)
 Computing two index integrals           ... done
 Cholesky decomposition of the V-matrix  ... done


Timings:
 Total evaluation time                   ...   1.579 sec (  0.026 min)
 One electron matrix time                ...   0.394 sec (  0.007 min) = 25.0%
 Schwartz matrix evaluation time         ...   0.470 sec (  0.008 min) = 29.8%
 Two index repulsion integral time       ...   0.250 sec (  0.004 min) = 15.8%
 Cholesky decomposition of V             ...   0.427 sec (  0.007 min) = 27.1%
 Three index repulsion integral time     ...   0.000 sec (  0.000 min) =  0.0%



           ************************************************************
           *        Program running with 6 parallel MPI-processes     *
           *              working on a common directory               *
           ************************************************************
-------------------------------------------------------------------------------
                                 ORCA SCF
-------------------------------------------------------------------------------

------------
SCF SETTINGS
------------
Hamiltonian:
 Density Functional     Method          .... DFT(GTOs)
 Exchange Functional    Exchange        .... WB88
 Correlation Functional Correlation     .... LYP
 LDA part of GGA corr.  LDAOpt          .... VWN-5
 Gradients option       PostSCFGGA      .... off
 Hybrid DFT is turned on
   Fraction HF Exchange ScalHFX         ....  0.190000
   Scaling of DF-GGA-X  ScalDFX         ....  0.350000
   Scaling of DF-GGA-C  ScalDFC         ....  0.810000
   Scaling of DF-LDA-C  ScalLDAC        ....  1.000000
   Perturbative correction              ....  0.000000
   Density functional embedding theory  .... OFF
 Long-range corrected/Screened/Range-Separated Hybrid DFT is turned on
   Amount of maximum screened exact exchange              ....  0.460000
   Range separation parameter mu (erf(mu*r12)/r12)        ....  0.330000
 RI-approximation to the Coulomb term is turned on
   Number of auxiliary basis functions  .... 3216
   RIJ-COSX (HFX calculated with COS-X)).... on


General Settings:
 Integral files         IntName         .... xtbopt
 Hartree-Fock type      HFTyp           .... RHF
 Total Charge           Charge          ....    0
 Multiplicity           Mult            ....    1
 Number of Electrons    NEL             ....  434
 Basis Dimension        Dim             ....  983
 Nuclear Repulsion      ENuc            ....   7618.4377478977 Eh

Convergence Acceleration:
 DIIS                   CNVDIIS         .... on
   Start iteration      DIISMaxIt       ....    12
   Startup error        DIISStart       ....  0.200000
   # of expansion vecs  DIISMaxEq       ....     5
   Bias factor          DIISBfac        ....   1.050
   Max. coefficient     DIISMaxC        ....  10.000
 Newton-Raphson         CNVNR           .... off
 SOSCF                  CNVSOSCF        .... on
   Start iteration      SOSCFMaxIt      ....   150
   Startup grad/error   SOSCFStart      ....  0.003300
 Level Shifting         CNVShift        .... on
   Level shift para.    LevelShift      ....    0.2500
   Turn off err/grad.   ShiftErr        ....    0.0010
 Zerner damping         CNVZerner       .... off
 Static damping         CNVDamp         .... on
   Fraction old density DampFac         ....    0.7000
   Max. Damping (<1)    DampMax         ....    0.9800
   Min. Damping (>=0)   DampMin         ....    0.0000
   Turn off err/grad.   DampErr         ....    0.1000
 Fernandez-Rico         CNVRico         .... off

SCF Procedure:
 Maximum # iterations   MaxIter         ....   125
 SCF integral mode      SCFMode         .... Direct
   Integral package                     .... LIBINT
 Reset frequency        DirectResetFreq ....    20
 Integral Threshold     Thresh          ....  2.500e-11 Eh
 Primitive CutOff       TCut            ....  2.500e-12 Eh

Convergence Tolerance:
 Convergence Check Mode ConvCheckMode   .... Total+1el-Energy
 Convergence forced     ConvForced      .... 1
 Energy Change          TolE            ....  1.000e-08 Eh
 1-El. energy change                    ....  1.000e-05 Eh
 Orbital Gradient       TolG            ....  1.000e-05
 Orbital Rotation angle TolX            ....  1.000e-05
 DIIS Error             TolErr          ....  5.000e-07


Diagonalization of the overlap matrix:
Smallest eigenvalue                        ... 1.653e-04
Time for diagonalization                   ...    0.180 sec
Threshold for overlap eigenvalues          ... 1.000e-08
Number of eigenvalues below threshold      ... 0
Time for construction of square roots      ...    0.109 sec
Total time needed                          ...    0.292 sec

-------------------
DFT GRID GENERATION
-------------------

General Integration Accuracy     IntAcc      ...  4.670
Radial Grid Type                 RadialGrid  ... Gauss-Chebyshev
Angular Grid (max. acc.)         AngularGrid ... Lebedev-302
Angular grid pruning method      GridPruning ... 3 (G Style)
Weight generation scheme         WeightScheme... Becke
Basis function cutoff            BFCut       ...    1.0000e-11
Integration weight cutoff        WCut        ...    1.0000e-14
Grids for H and He will be reduced by one unit

# of grid points (after initial pruning)     ... 466836 (   0.0 sec)
# of grid points (after weights+screening)   ... 403231 (   4.2 sec)
nearest neighbour list constructed           ...    0.0 sec
Grid point re-assignment to atoms done       ...    0.1 sec
Grid point division into batches done        ...    1.4 sec
Reduced shell lists constructed in    2.1 sec

Total number of grid points                  ...   403231
Total number of batches                      ...     6344
Average number of points per batch           ...       63
Average number of grid points per atom       ...     4582
Average number of shells per batch           ...    80.84 (18.09%)
Average number of basis functions per batch  ...   171.13 (17.41%)
Average number of large shells per batch     ...    53.02 (65.59%)
Average number of large basis fcns per batch ...   113.30 (66.21%)
Maximum spatial batch extension              ...  20.21, 19.97, 18.19 au
Average spatial batch extension              ...   0.34,  0.31,  0.30 au

Time for grid setup =    6.631 sec

------------------------------
INITIAL GUESS: MODEL POTENTIAL
------------------------------
Loading Hartree-Fock densities                     ... done
Calculating cut-offs                               ... done
Setting up the integral package                    ... done
Initializing the effective Hamiltonian             ... done
Starting the Coulomb interaction                   ... done (   0.9 sec)
Reading the grid                                   ... done
Mapping shells                                     ... done
Starting the XC term evaluation                    ... done (   1.0 sec)
  promolecular density results
     # of electrons  =    433.984072029
     EX              =   -401.344654428
     EC              =    -14.970717569
     EX+EC           =   -416.315371998
Transforming the Hamiltonian                       ... done (   0.1 sec)
Diagonalizing the Hamiltonian                      ... done (   0.2 sec)
Back transforming the eigenvectors                 ... done (   0.0 sec)
Now organizing SCF variables                       ... done
                      ------------------
                      INITIAL GUESS DONE (   9.0 sec)
                      ------------------
--------------------
COSX GRID GENERATION
--------------------

General Integration Accuracy     IntAcc      ...  3.340
Radial Grid Type                 RadialGrid  ... Gauss-Chebyshev
Angular Grid (max. acc.)         AngularGrid ... Lebedev-50
Angular grid pruning method      GridPruning ... 3 (G Style)
Weight generation scheme         WeightScheme... Becke
Basis function cutoff            BFCut       ...    1.0000e-11
Integration weight cutoff        WCut        ...    1.0000e-14
Grids for H and He will be reduced by one unit

# of grid points (after initial pruning)     ...  43808 (   0.0 sec)
# of grid points (after weights+screening)   ...  39491 (   0.4 sec)
nearest neighbour list constructed           ...    0.0 sec
Grid point re-assignment to atoms done       ...    0.0 sec
Grid point division into batches done        ...    0.0 sec
Reduced shell lists constructed in    0.1 sec

Total number of grid points                  ...    39491
Total number of batches                      ...      670
Average number of points per batch           ...       58
Average number of grid points per atom       ...      449
Average number of shells per batch           ...    94.65 (21.18%)
Average number of basis functions per batch  ...   201.98 (20.55%)
Average number of large shells per batch     ...    62.19 (65.70%)
Average number of large basis fcns per batch ...   134.54 (66.61%)
Maximum spatial batch extension              ...  19.44, 12.37, 16.65 au
Average spatial batch extension              ...   0.75,  0.59,  0.57 au

Overlap Fitting                  UseSFitting ... on
Constructing numerical overlap ... done (      0.1 sec)
Inverting numerical overlap    ... done (      0.0 sec)
Obtaining analytic overlap     ... done (      0.0 sec)
Final contraction and storage  ... done (      0.0 sec)


General Integration Accuracy     IntAcc      ...  3.670
Radial Grid Type                 RadialGrid  ... Gauss-Chebyshev
Angular Grid (max. acc.)         AngularGrid ... Lebedev-50
Angular grid pruning method      GridPruning ... 3 (G Style)
Weight generation scheme         WeightScheme... Becke
Basis function cutoff            BFCut       ...    1.0000e-11
Integration weight cutoff        WCut        ...    1.0000e-14
Grids for H and He will be reduced by one unit

# of grid points (after initial pruning)     ...  54982 (   0.0 sec)
# of grid points (after weights+screening)   ...  49374 (   0.5 sec)
nearest neighbour list constructed           ...    0.0 sec
Grid point re-assignment to atoms done       ...    0.0 sec
Grid point division into batches done        ...    0.0 sec
Reduced shell lists constructed in    0.1 sec

Total number of grid points                  ...    49374
Total number of batches                      ...      819
Average number of points per batch           ...       60
Average number of grid points per atom       ...      561
Average number of shells per batch           ...    93.41 (20.90%)
Average number of basis functions per batch  ...   198.90 (20.23%)
Average number of large shells per batch     ...    61.24 (65.56%)
Average number of large basis fcns per batch ...   132.91 (66.82%)
Maximum spatial batch extension              ...  21.39, 13.53, 18.03 au
Average spatial batch extension              ...   0.71,  0.58,  0.53 au

Overlap Fitting                  UseSFitting ... on
Constructing numerical overlap ... done (      0.1 sec)
Inverting numerical overlap    ... done (      0.0 sec)
Obtaining analytic overlap     ... done (      0.0 sec)
Final contraction and storage  ... done (      0.0 sec)


General Integration Accuracy     IntAcc      ...  4.010
Radial Grid Type                 RadialGrid  ... Gauss-Chebyshev
Angular Grid (max. acc.)         AngularGrid ... Lebedev-110
Angular grid pruning method      GridPruning ... 3 (G Style)
Weight generation scheme         WeightScheme... Becke
Basis function cutoff            BFCut       ...    1.0000e-11
Integration weight cutoff        WCut        ...    1.0000e-14
Grids for H and He will be reduced by one unit

# of grid points (after initial pruning)     ... 106108 (   0.0 sec)
# of grid points (after weights+screening)   ...  94292 (   1.0 sec)
nearest neighbour list constructed           ...    0.0 sec
Grid point re-assignment to atoms done       ...    0.0 sec
Grid point division into batches done        ...    0.1 sec
Reduced shell lists constructed in    0.2 sec

Total number of grid points                  ...    94292
Total number of batches                      ...     1515
Average number of points per batch           ...       62
Average number of grid points per atom       ...     1072
Average number of shells per batch           ...    88.49 (19.80%)
Average number of basis functions per batch  ...   188.07 (19.13%)
Average number of large shells per batch     ...    58.43 (66.02%)
Average number of large basis fcns per batch ...   126.13 (67.07%)
Maximum spatial batch extension              ...  19.86, 15.35, 17.47 au
Average spatial batch extension              ...   0.57,  0.48,  0.47 au

Overlap Fitting                  UseSFitting ... on
Constructing numerical overlap ... done (      0.1 sec)
Inverting numerical overlap    ... done (      0.0 sec)
Obtaining analytic overlap     ... done (      0.0 sec)
Final contraction and storage  ... done (      0.0 sec)

Time for X-Grid setup             =    3.048 sec
--------------
SCF ITERATIONS
--------------
ITER       Energy         Delta-E        Max-DP      RMS-DP      [F,P]     Damp
               ***  Starting incremental Fock matrix formation  ***
  0  -3721.3919563761   0.000000000000 0.09281338  0.00106185  0.2539419 0.7000
  1  -3721.9182311093  -0.526274733231 0.07010087  0.00074668  0.1110238 0.7000
                               ***Turning on DIIS***
  2  -3722.1508560445  -0.232624935149 0.09339294  0.00134505  0.0403278 0.0000
  3  -3722.5316731527  -0.380817108241 0.05791054  0.00054252  0.0598396 0.0000
  4  -3722.6010402620  -0.069367109310 0.01517021  0.00017296  0.0149906 0.0000
  5  -3722.6062850053  -0.005244743332 0.00793924  0.00007773  0.0066002 0.0000
  6  -3722.6078747770  -0.001589771668 0.00351664  0.00005064  0.0018002 0.0000
  7  -3722.6087112708  -0.000836493829 0.00253548  0.00003792  0.0013258 0.0000
  8  -3722.6092345965  -0.000523325701 0.00471968  0.00007314  0.0009867 0.0000
               *** Restarting incremental Fock matrix formation ***
                                   *** Resetting DIIS ***
                      *** Initiating the SOSCF procedure ***
                           *** Shutting down DIIS ***
                      *** Re-Reading the Fockian *** 
                      *** Removing any level shift *** 
ITER      Energy       Delta-E        Grad      Rot      Max-DP    RMS-DP
  9  -3722.60974108  -0.0005064819  0.000740  0.000740  0.001563  0.000021
               *** Restarting incremental Fock matrix formation ***
 10  -3722.60978824  -0.0000471621  0.001018  0.009507  0.001631  0.000023
 11  -3722.60981431  -0.0000260724  0.000538  0.003161  0.000968  0.000016
 12  -3722.60985660  -0.0000422914  0.000111  0.001378  0.000615  0.000009
 13  -3722.60985698  -0.0000003728  0.000173  0.000396  0.000327  0.000004
 14  -3722.60986037  -0.0000033928  0.000038  0.000154  0.000116  0.000001
 15  -3722.60986030   0.0000000733  0.000033  0.000059  0.000087  0.000001
 16  -3722.60986047  -0.0000001701  0.000010  0.000063  0.000032  0.000000
 17  -3722.60986047   0.0000000017  0.000006  0.000025  0.000013  0.000000
                  ***Gradient check signals convergence***
              ***Rediagonalizing the Fockian in SOSCF/NRSCF***

               *****************************************************
               *                     SUCCESS                       *
               *           SCF CONVERGED AFTER  18 CYCLES          *
               *****************************************************

Setting up the final grid:

General Integration Accuracy     IntAcc      ...  5.010
Radial Grid Type                 RadialGrid  ... Gauss-Chebyshev
Angular Grid (max. acc.)         AngularGrid ... Lebedev-434
Angular grid pruning method      GridPruning ... 3 (G Style)
Weight generation scheme         WeightScheme... Becke
Basis function cutoff            BFCut       ...    1.0000e-11
Integration weight cutoff        WCut        ...    1.0000e-14
Grids for H and He will be reduced by one unit

# of grid points (after initial pruning)     ... 828988 (   0.0 sec)
# of grid points (after weights+screening)   ... 713934 (   7.3 sec)
nearest neighbour list constructed           ...    0.0 sec
Grid point re-assignment to atoms done       ...    0.1 sec
Grid point division into batches done        ...    4.5 sec
Reduced shell lists constructed in    5.7 sec

Total number of grid points                  ...   713934
Total number of batches                      ...    11202
Average number of points per batch           ...       63
Average number of grid points per atom       ...     8113
Average number of shells per batch           ...    78.70 (17.61%)
Average number of basis functions per batch  ...   166.16 (16.90%)
Average number of large shells per batch     ...    51.51 (65.45%)
Average number of large basis fcns per batch ...   109.85 (66.11%)
Maximum spatial batch extension              ...  22.06, 16.73, 19.08 au
Average spatial batch extension              ...   0.27,  0.25,  0.25 au

Final grid set up in   13.5 sec
Final integration                            ... done (   2.5 sec)
Change in XC energy                          ...    -0.000105544
Integrated number of electrons               ...   433.999982470
Previous integrated no of electrons          ...   433.999335496
Old exchange energy                            =   -111.454794285 Eh
New exchange energy                            =   -111.453092716 Eh
Exchange energy change after final integration =      0.001701569 Eh
Total energy after final integration           =  -3722.608264438 Eh
Final COS-X integration done in                =    41.629 sec

----------------
TOTAL SCF ENERGY
----------------

Total Energy       :        -3722.60826444 Eh         -101297.32073 eV

Components:
Nuclear Repulsion  :         7618.43774790 Eh          207308.23047 eV
Electronic Energy  :       -11341.04601234 Eh         -308605.55120 eV
One Electron Energy:       -20257.36895621 Eh         -551231.03334 eV
Two Electron Energy:         8916.32294387 Eh          242625.48214 eV

Virial components:
Potential Energy   :        -7419.55287935 Eh         -201896.29806 eV
Kinetic Energy     :         3696.94461491 Eh          100598.97733 eV
Virial Ratio       :            2.00694185


DFT components:
N(Alpha)           :      216.999991235029 electrons
N(Beta)            :      216.999991235029 electrons
N(Total)           :      433.999982470058 electrons
E(XC)              :     -311.867884843535 Eh       
DFET-embed. en.    :        0.000000000000 Eh       

---------------
SCF CONVERGENCE
---------------

  Last Energy change         ...    1.9090e-09  Tolerance :   1.0000e-08
  Last MAX-Density change    ...    8.4377e-15  Tolerance :   1.0000e-07
  Last RMS-Density change    ...    3.6899e-17  Tolerance :   5.0000e-09
  Last Orbital Gradient      ...    1.5543e-06  Tolerance :   1.0000e-05
  Last Orbital Rotation      ...    1.3682e-05  Tolerance :   1.0000e-05

             **** THE GBW FILE WAS UPDATED (xtbopt.gbw) ****
             **** DENSITY FILE WAS UPDATED (xtbopt.scfp) ****
             **** ENERGY FILE WAS UPDATED (xtbopt.en.tmp) ****
             **** THE GBW FILE WAS UPDATED (xtbopt.gbw) ****
             **** DENSITY FILE WAS UPDATED (xtbopt.scfp) ****
----------------
ORBITAL ENERGIES
----------------

  NO   OCC          E(Eh)            E(eV) 
   0   2.0000     -88.986310     -2421.4406 
   1   2.0000     -88.983364     -2421.3604 
   2   2.0000     -88.977846     -2421.2103 
   3   2.0000     -19.287797      -524.8476 
   4   2.0000     -19.282603      -524.7063 
   5   2.0000     -19.252212      -523.8793 
   6   2.0000     -19.246871      -523.7340 
   7   2.0000     -19.194613      -522.3120 
   8   2.0000     -19.194232      -522.3016 
   9   2.0000     -19.193600      -522.2844 
  10   2.0000     -19.193540      -522.2828 
  11   2.0000     -14.454879      -393.3373 
  12   2.0000     -14.454802      -393.3352 
  13   2.0000     -14.418329      -392.3427 
  14   2.0000     -14.404579      -391.9685 
  15   2.0000     -14.401912      -391.8959 
  16   2.0000     -10.403825      -283.1025 
  17   2.0000     -10.402857      -283.0761 
  18   2.0000     -10.376185      -282.3504 
  19   2.0000     -10.376016      -282.3458 
  20   2.0000     -10.361896      -281.9615 
  21   2.0000     -10.358115      -281.8586 
  22   2.0000     -10.350896      -281.6622 
  23   2.0000     -10.343760      -281.4680 
  24   2.0000     -10.341254      -281.3998 
  25   2.0000     -10.339931      -281.3638 
  26   2.0000     -10.334824      -281.2248 
  27   2.0000     -10.332491      -281.1614 
  28   2.0000     -10.331676      -281.1392 
  29   2.0000     -10.329679      -281.0849 
  30   2.0000     -10.325141      -280.9614 
  31   2.0000     -10.323212      -280.9089 
  32   2.0000     -10.319804      -280.8161 
  33   2.0000     -10.319455      -280.8067 
  34   2.0000     -10.317861      -280.7633 
  35   2.0000     -10.310555      -280.5645 
  36   2.0000     -10.308396      -280.5057 
  37   2.0000     -10.307141      -280.4716 
  38   2.0000     -10.307018      -280.4682 
  39   2.0000     -10.306891      -280.4648 
  40   2.0000     -10.305943      -280.4390 
  41   2.0000     -10.305441      -280.4253 
  42   2.0000     -10.305426      -280.4249 
  43   2.0000     -10.304986      -280.4129 
  44   2.0000     -10.304398      -280.3969 
  45   2.0000     -10.302928      -280.3569 
  46   2.0000     -10.302009      -280.3319 
  47   2.0000     -10.301938      -280.3300 
  48   2.0000     -10.301714      -280.3239 
  49   2.0000     -10.296524      -280.1827 
  50   2.0000     -10.296046      -280.1697 
  51   2.0000     -10.294991      -280.1409 
  52   2.0000     -10.291560      -280.0476 
  53   2.0000     -10.285586      -279.8850 
  54   2.0000     -10.281085      -279.7625 
  55   2.0000     -10.265370      -279.3349 
  56   2.0000     -10.264373      -279.3078 
  57   2.0000     -10.260826      -279.2113 
  58   2.0000     -10.259000      -279.1616 
  59   2.0000      -8.081986      -219.9220 
  60   2.0000      -8.078136      -219.8173 
  61   2.0000      -8.073414      -219.6888 
  62   2.0000      -6.051242      -164.6627 
  63   2.0000      -6.047393      -164.5579 
  64   2.0000      -6.046980      -164.5467 
  65   2.0000      -6.044215      -164.4714 
  66   2.0000      -6.043087      -164.4408 
  67   2.0000      -6.042724      -164.4309 
  68   2.0000      -6.040421      -164.3682 
  69   2.0000      -6.038419      -164.3137 
  70   2.0000      -6.035578      -164.2364 
  71   2.0000      -1.191011       -32.4091 
  72   2.0000      -1.186904       -32.2973 
  73   2.0000      -1.172454       -31.9041 
  74   2.0000      -1.170489       -31.8506 
  75   2.0000      -1.135954       -30.9109 
  76   2.0000      -1.129345       -30.7310 
  77   2.0000      -1.092109       -29.7178 
  78   2.0000      -1.091091       -29.6901 
  79   2.0000      -1.065877       -29.0040 
  80   2.0000      -1.057438       -28.7743 
  81   2.0000      -1.023868       -27.8609 
  82   2.0000      -1.014416       -27.6037 
  83   2.0000      -1.006616       -27.3914 
  84   2.0000      -1.003454       -27.3054 
  85   2.0000      -0.993479       -27.0339 
  86   2.0000      -0.992988       -27.0206 
  87   2.0000      -0.980533       -26.6817 
  88   2.0000      -0.974329       -26.5128 
  89   2.0000      -0.930498       -25.3201 
  90   2.0000      -0.921524       -25.0759 
  91   2.0000      -0.910993       -24.7894 
  92   2.0000      -0.888572       -24.1793 
  93   2.0000      -0.882414       -24.0117 
  94   2.0000      -0.874956       -23.8088 
  95   2.0000      -0.872482       -23.7414 
  96   2.0000      -0.869894       -23.6710 
  97   2.0000      -0.862963       -23.4824 
  98   2.0000      -0.855829       -23.2883 
  99   2.0000      -0.844220       -22.9724 
 100   2.0000      -0.836434       -22.7605 
 101   2.0000      -0.831727       -22.6324 
 102   2.0000      -0.819259       -22.2932 
 103   2.0000      -0.806766       -21.9532 
 104   2.0000      -0.799655       -21.7597 
 105   2.0000      -0.793094       -21.5812 
 106   2.0000      -0.782553       -21.2944 
 107   2.0000      -0.764854       -20.8127 
 108   2.0000      -0.759196       -20.6588 
 109   2.0000      -0.733193       -19.9512 
 110   2.0000      -0.725206       -19.7339 
 111   2.0000      -0.721883       -19.6434 
 112   2.0000      -0.717108       -19.5135 
 113   2.0000      -0.713499       -19.4153 
 114   2.0000      -0.709573       -19.3085 
 115   2.0000      -0.703832       -19.1522 
 116   2.0000      -0.701761       -19.0959 
 117   2.0000      -0.691844       -18.8260 
 118   2.0000      -0.686272       -18.6744 
 119   2.0000      -0.678999       -18.4765 
 120   2.0000      -0.676437       -18.4068 
 121   2.0000      -0.671261       -18.2659 
 122   2.0000      -0.661563       -18.0020 
 123   2.0000      -0.652202       -17.7473 
 124   2.0000      -0.650250       -17.6942 
 125   2.0000      -0.636833       -17.3291 
 126   2.0000      -0.633448       -17.2370 
 127   2.0000      -0.627945       -17.0873 
 128   2.0000      -0.618484       -16.8298 
 129   2.0000      -0.605576       -16.4786 
 130   2.0000      -0.603692       -16.4273 
 131   2.0000      -0.592145       -16.1131 
 132   2.0000      -0.589771       -16.0485 
 133   2.0000      -0.586613       -15.9626 
 134   2.0000      -0.581602       -15.8262 
 135   2.0000      -0.579684       -15.7740 
 136   2.0000      -0.573807       -15.6141 
 137   2.0000      -0.571598       -15.5540 
 138   2.0000      -0.567584       -15.4448 
 139   2.0000      -0.563286       -15.3278 
 140   2.0000      -0.559757       -15.2318 
 141   2.0000      -0.557694       -15.1756 
 142   2.0000      -0.541974       -14.7479 
 143   2.0000      -0.536024       -14.5859 
 144   2.0000      -0.534036       -14.5319 
 145   2.0000      -0.533314       -14.5122 
 146   2.0000      -0.531926       -14.4744 
 147   2.0000      -0.531193       -14.4545 
 148   2.0000      -0.530051       -14.4234 
 149   2.0000      -0.529444       -14.4069 
 150   2.0000      -0.527407       -14.3515 
 151   2.0000      -0.523764       -14.2523 
 152   2.0000      -0.520556       -14.1651 
 153   2.0000      -0.520127       -14.1534 
 154   2.0000      -0.518303       -14.1037 
 155   2.0000      -0.516024       -14.0417 
 156   2.0000      -0.510638       -13.8952 
 157   2.0000      -0.508254       -13.8303 
 158   2.0000      -0.506376       -13.7792 
 159   2.0000      -0.505124       -13.7451 
 160   2.0000      -0.503457       -13.6998 
 161   2.0000      -0.499380       -13.5888 
 162   2.0000      -0.491219       -13.3667 
 163   2.0000      -0.490083       -13.3358 
 164   2.0000      -0.487863       -13.2754 
 165   2.0000      -0.486621       -13.2416 
 166   2.0000      -0.483806       -13.1650 
 167   2.0000      -0.479961       -13.0604 
 168   2.0000      -0.477873       -13.0036 
 169   2.0000      -0.476050       -12.9540 
 170   2.0000      -0.473861       -12.8944 
 171   2.0000      -0.471172       -12.8212 
 172   2.0000      -0.468107       -12.7378 
 173   2.0000      -0.466482       -12.6936 
 174   2.0000      -0.459501       -12.5037 
 175   2.0000      -0.454873       -12.3777 
 176   2.0000      -0.453547       -12.3416 
 177   2.0000      -0.451613       -12.2890 
 178   2.0000      -0.451000       -12.2723 
 179   2.0000      -0.445100       -12.1118 
 180   2.0000      -0.443804       -12.0765 
 181   2.0000      -0.443158       -12.0589 
 182   2.0000      -0.442328       -12.0364 
 183   2.0000      -0.441016       -12.0007 
 184   2.0000      -0.438273       -11.9260 
 185   2.0000      -0.437510       -11.9053 
 186   2.0000      -0.435660       -11.8549 
 187   2.0000      -0.435062       -11.8386 
 188   2.0000      -0.433708       -11.8018 
 189   2.0000      -0.431534       -11.7426 
 190   2.0000      -0.429395       -11.6844 
 191   2.0000      -0.423614       -11.5271 
 192   2.0000      -0.422398       -11.4940 
 193   2.0000      -0.416881       -11.3439 
 194   2.0000      -0.413199       -11.2437 
 195   2.0000      -0.411365       -11.1938 
 196   2.0000      -0.398682       -10.8487 
 197   2.0000      -0.392719       -10.6864 
 198   2.0000      -0.390433       -10.6242 
 199   2.0000      -0.386801       -10.5254 
 200   2.0000      -0.385843       -10.4993 
 201   2.0000      -0.375695       -10.2232 
 202   2.0000      -0.352796        -9.6001 
 203   2.0000      -0.351069        -9.5531 
 204   2.0000      -0.350661        -9.5420 
 205   2.0000      -0.344810        -9.3828 
 206   2.0000      -0.342992        -9.3333 
 207   2.0000      -0.340989        -9.2788 
 208   2.0000      -0.340279        -9.2595 
 209   2.0000      -0.334789        -9.1101 
 210   2.0000      -0.323387        -8.7998 
 211   2.0000      -0.317518        -8.6401 
 212   2.0000      -0.315632        -8.5888 
 213   2.0000      -0.298633        -8.1262 
 214   2.0000      -0.288343        -7.8462 
 215   2.0000      -0.282683        -7.6922 
 216   2.0000      -0.232990        -6.3400 
 217   0.0000      -0.124269        -3.3815 
 218   0.0000      -0.085355        -2.3226 
 219   0.0000      -0.040636        -1.1058 
 220   0.0000      -0.024521        -0.6673 
 221   0.0000      -0.021468        -0.5842 
 222   0.0000       0.005690         0.1548 
 223   0.0000       0.009991         0.2719 
 224   0.0000       0.020534         0.5588 
 225   0.0000       0.045619         1.2414 
 226   0.0000       0.045758         1.2451 
 227   0.0000       0.053637         1.4595 
 228   0.0000       0.056842         1.5468 
 229   0.0000       0.060802         1.6545 
 230   0.0000       0.071772         1.9530 
 231   0.0000       0.074539         2.0283 
 232   0.0000       0.079725         2.1694 
 233   0.0000       0.080809         2.1989 
 234   0.0000       0.084899         2.3102 
 235   0.0000       0.087147         2.3714 
 236   0.0000       0.088546         2.4095 
 237   0.0000       0.096411         2.6235 
 238   0.0000       0.100591         2.7372 
 239   0.0000       0.101656         2.7662 
 240   0.0000       0.110770         3.0142 
 241   0.0000       0.112557         3.0628 
 242   0.0000       0.118372         3.2211 
 243   0.0000       0.127235         3.4622 
 244   0.0000       0.129963         3.5365 
 245   0.0000       0.132797         3.6136 
 246   0.0000       0.136073         3.7027 
 247   0.0000       0.136892         3.7250 
 248   0.0000       0.139844         3.8054 
 249   0.0000       0.141918         3.8618 
 250   0.0000       0.143394         3.9019 
 251   0.0000       0.144136         3.9221 
 252   0.0000       0.147862         4.0235 
 253   0.0000       0.150167         4.0862 
 254   0.0000       0.153191         4.1685 
 255   0.0000       0.153524         4.1776 
 256   0.0000       0.154339         4.1998 
 257   0.0000       0.158006         4.2996 
 258   0.0000       0.162248         4.4150 
 259   0.0000       0.163747         4.4558 
 260   0.0000       0.165612         4.5065 
 261   0.0000       0.171404         4.6641 
 262   0.0000       0.175251         4.7688 
 263   0.0000       0.175891         4.7862 
 264   0.0000       0.176555         4.8043 
 265   0.0000       0.181729         4.9451 
 266   0.0000       0.183257         4.9867 
 267   0.0000       0.185407         5.0452 
 268   0.0000       0.189359         5.1527 
 269   0.0000       0.191065         5.1991 
 270   0.0000       0.197206         5.3662 
 271   0.0000       0.197892         5.3849 
 272   0.0000       0.200937         5.4678 
 273   0.0000       0.202423         5.5082 
 274   0.0000       0.203485         5.5371 
 275   0.0000       0.207641         5.6502 
 276   0.0000       0.209449         5.6994 
 277   0.0000       0.217015         5.9053 
 278   0.0000       0.220295         5.9945 
 279   0.0000       0.223687         6.0868 
 280   0.0000       0.227103         6.1798 
 281   0.0000       0.228664         6.2223 
 282   0.0000       0.231452         6.2981 
 283   0.0000       0.235385         6.4052 
 284   0.0000       0.235994         6.4217 
 285   0.0000       0.241510         6.5718 
 286   0.0000       0.246876         6.7178 
 287   0.0000       0.251619         6.8469 
 288   0.0000       0.256806         6.9880 
 289   0.0000       0.259614         7.0644 
 290   0.0000       0.262000         7.1294 
 291   0.0000       0.269865         7.3434 
 292   0.0000       0.277846         7.5606 
 293   0.0000       0.279165         7.5965 
 294   0.0000       0.285194         7.7605 
 295   0.0000       0.289067         7.8659 
 296   0.0000       0.295451         8.0396 
 297   0.0000       0.300358         8.1731 
 298   0.0000       0.303484         8.2582 
 299   0.0000       0.305145         8.3034 
 300   0.0000       0.308812         8.4032 
 301   0.0000       0.309839         8.4311 
 302   0.0000       0.314942         8.5700 
 303   0.0000       0.319555         8.6955 
 304   0.0000       0.326694         8.8898 
 305   0.0000       0.330549         8.9947 
 306   0.0000       0.331791         9.0285 
 307   0.0000       0.336790         9.1645 
 308   0.0000       0.340106         9.2548 
 309   0.0000       0.343111         9.3365 
 310   0.0000       0.344224         9.3668 
 311   0.0000       0.348998         9.4967 
 312   0.0000       0.354720         9.6524 
 313   0.0000       0.359586         9.7848 
 314   0.0000       0.360215         9.8019 
 315   0.0000       0.369451        10.0533 
 316   0.0000       0.372763        10.1434 
 317   0.0000       0.375789        10.2257 
 318   0.0000       0.376147        10.2355 
 319   0.0000       0.381288        10.3754 
 320   0.0000       0.382018        10.3952 
 321   0.0000       0.383064        10.4237 
 322   0.0000       0.386094        10.5061 
 323   0.0000       0.395195        10.7538 
 324   0.0000       0.397094        10.8055 
 325   0.0000       0.399997        10.8845 
 326   0.0000       0.403786        10.9876 
 327   0.0000       0.409201        11.1349 
 328   0.0000       0.413146        11.2423 
 329   0.0000       0.416471        11.3328 
 330   0.0000       0.417944        11.3728 
 331   0.0000       0.426374        11.6022 
 332   0.0000       0.431147        11.7321 
 333   0.0000       0.434852        11.8329 
 334   0.0000       0.439078        11.9479 
 335   0.0000       0.440033        11.9739 
 336   0.0000       0.445626        12.1261 
 337   0.0000       0.448041        12.1918 
 338   0.0000       0.449968        12.2443 
 339   0.0000       0.455006        12.3814 
 340   0.0000       0.460570        12.5328 
 341   0.0000       0.463285        12.6066 
 342   0.0000       0.465119        12.6565 
 343   0.0000       0.466164        12.6850 
 344   0.0000       0.468554        12.7500 
 345   0.0000       0.469888        12.7863 
 346   0.0000       0.473036        12.8720 
 347   0.0000       0.475697        12.9444 
 348   0.0000       0.477726        12.9996 
 349   0.0000       0.479162        13.0387 
 350   0.0000       0.482460        13.1284 
 351   0.0000       0.484031        13.1712 
 352   0.0000       0.485808        13.2195 
 353   0.0000       0.486148        13.2288 
 354   0.0000       0.490672        13.3519 
 355   0.0000       0.492389        13.3986 
 356   0.0000       0.496187        13.5019 
 357   0.0000       0.499679        13.5969 
 358   0.0000       0.502940        13.6857 
 359   0.0000       0.504898        13.7390 
 360   0.0000       0.506533        13.7835 
 361   0.0000       0.509329        13.8596 
 362   0.0000       0.513190        13.9646 
 363   0.0000       0.514950        14.0125 
 364   0.0000       0.517884        14.0923 
 365   0.0000       0.520384        14.1604 
 366   0.0000       0.522186        14.2094 
 367   0.0000       0.526935        14.3386 
 368   0.0000       0.529327        14.4037 
[...]
occ. MO cut-off (eV)           ...   -16.421530
virt. MO cut-off (eV)          ...    6.700031
perturbation threshold         ...   1.000e-04 
MOs in sTD-DFT                 ...         155 
occ. MOs in sTD-DFT            ...          86 
virt. in sTD-DFT               ...          69 
calculate triplets           ...   no  

Calculating the dipole lengths integrals ... 
Transforming integrals ... 
Calculating the dipole velocity integrals ... 
Transforming integrals ... 
Calculating magnetic dipole integrals ... 
Transforming integrals ... 














































SCF atom population (using active MOs):

   2.427   3.766   2.199   1.800   2.062   1.599   4.622   3.555   3.448   2.444
   2.152   3.650   2.125   1.864   2.234   2.212   3.900   2.279   2.203   1.877
   2.512   2.475   3.021   1.891   4.693   2.400   2.409   1.887   4.717   2.513
   2.460   3.019   1.919   2.312   2.324   2.227   2.352   2.046   2.064   2.313
   2.269   3.920   2.063   2.367   2.190   2.321   2.112   2.282   3.933   2.185
   3.823   2.545   1.850   2.090   1.678   4.642   3.610   3.357   2.279   0.535
   0.216   0.688   0.603   0.591   0.497   0.586   0.496   0.655   0.622   0.667
   0.681   0.672   0.621   0.648   0.669   0.681   0.666   0.531   0.567   0.523
   0.504   0.516   0.515   0.549   0.226   0.600   0.590   0.597

Number of electrons in sTDA:  172.000

ax(DF)   :  0.3800
s^k      :  2.0000
beta  (J):  1.8600
alpha (K):  0.9000

hardness table read
setting up gammas ...
computing q(ij,n)
memory needed for q data:             6.1 MB 
memory available for q data:       2486.7 MB 

CSF included by energy:           28 
CSF considered in PT2:          5906 

ordered frontier orbitals
           eV         # centers 
  75      -9.333      15.9
  76      -9.279      17.3
  77      -9.259       7.1
  78      -9.110       4.2
  79      -8.800       7.0
  80      -8.640       5.7
  81      -8.589      11.8
  82      -8.126      13.8
  83      -7.846      24.4
  84      -7.692      26.0
  85      -6.340      17.9

  86      -3.382      18.1
  87      -2.323      22.4
  88      -1.106      22.1
  89      -0.667      13.2
  90      -0.584      25.0
  91       0.155      17.7
  92       0.272      16.1
  93       0.559      21.2
  94       1.241       7.0
  95       1.245       6.2
  96       1.460       3.9

           eV        nm       excitation i->a                     eV 
   0      1.54     802.5    85 ->  86      gap,J,K:    2.958     2.036     0.311
   1      2.43     509.9    85 ->  87      gap,J,K:    4.017     2.368     0.391
   2      2.76     449.9    82 ->  86      gap,J,K:    4.745     2.519     0.265
   3      2.78     445.5    84 ->  86      gap,J,K:    4.311     1.990     0.231
   4      2.91     425.3    83 ->  86      gap,J,K:    4.465     1.844     0.147
   5      3.35     370.2    81 ->  86      gap,J,K:    5.207     2.577     0.360
   6      3.37     367.8    80 ->  86      gap,J,K:    5.259     1.988     0.050
   7      3.64     340.6    85 ->  88      gap,J,K:    5.234     2.189     0.298
   8      3.64     340.2    79 ->  86      gap,J,K:    5.418     2.128     0.177
   9      3.75     331.0    78 ->  86      gap,J,K:    5.729     1.986     0.001
  10      3.92     316.5    84 ->  87      gap,J,K:    5.370     1.834     0.191
  11      4.00     309.7    80 ->  87      gap,J,K:    6.317     2.491     0.089
  12      4.01     309.3    83 ->  87      gap,J,K:    5.524     1.892     0.188
  13      4.11     302.0    76 ->  86      gap,J,K:    5.897     2.006     0.107
  14      4.14     299.3    82 ->  87      gap,J,K:    5.804     1.922     0.130
  15      4.21     294.5    85 ->  90      gap,J,K:    5.756     1.826     0.140
  16      4.29     289.0    78 ->  87      gap,J,K:    6.787     2.502     0.002
  17      4.29     288.7    73 ->  86      gap,J,K:    6.160     1.881     0.007
  18      4.34     285.6    85 ->  89      gap,J,K:    5.673     1.459     0.064
  19      4.40     281.6    71 ->  86      gap,J,K:    6.219     2.043     0.114
  20      4.60     269.6    75 ->  86      gap,J,K:    5.952     1.501     0.074
  21      4.76     260.4    66 ->  86      gap,J,K:    7.305     2.547     0.002
  22      4.78     259.5    77 ->  86      gap,J,K:    5.878     1.160     0.029
  23      4.87     254.4    85 ->  91      gap,J,K:    6.495     1.825     0.102
  24      4.89     253.8    74 ->  86      gap,J,K:    6.001     1.185     0.034

average / max PT2 energy lowering (eV):       0.038       0.084

CSF included by PT:                   184 
total number of CSF included:         212 
 
sTD-DFT procedure...
setting up A+B and A-B matrices...  done
estimated time (min):    0.000
calculating (A-B)^0.5 ... done
calculating (A+B)*(A-B)^0.5 ... done
calculating (A-B)^0.5 *(A+B)*(A-B)^0.5 ... done
diagonalizing ...using LAPACKE_ssyevr ...done

   31 roots found, lowest/highest eigenvalue :     1.253     4.986

excitation energies, transition moments and amplitudes

molecular weight:  839.912
state   eV        nm        fL         fV        Rl        RV
   0   1.253     989.9   0.808612   1.541404  17.882882  16.758673     0.97 (  85->  86)    0.01 (  84->  87)    0.01 (  84->  86)
   1   2.105     589.0   0.245580   0.316606   4.871880  -8.093628     0.86 (  85->  87)    0.05 (  84->  86)    0.03 (  81->  86)
   2   2.145     578.1   0.095075   0.119650   8.372134  11.024571     0.39 (  84->  86)    0.35 (  83->  86)    0.07 (  81->  86)
   3   2.399     516.8   0.006838   0.011669   0.100879  -0.175820     0.75 (  82->  86)    0.10 (  84->  86)    0.06 (  85->  87)
   4   2.952     420.1   0.356577   0.338700  -11.136899  -7.779730     0.41 (  83->  86)    0.20 (  84->  86)    0.09 (  83->  87)
   5   3.055     405.8   0.462925   0.474876  -16.766029  -18.469965     0.80 (  81->  86)    0.11 (  84->  86)    0.02 (  83->  86)
   6   3.090     401.3   0.027235   0.026014   0.834150   1.987220     0.69 (  80->  86)    0.16 (  80->  87)    0.04 (  80->  88)
   7   3.348     370.3   0.139812   0.128229   6.480351  14.127471     0.74 (  85->  88)    0.07 (  85->  90)    0.04 (  80->  86)
   8   3.382     366.6   0.013877   0.015495  10.152106   3.781687     0.61 (  78->  86)    0.17 (  78->  87)    0.10 (  79->  86)
   9   3.408     363.8   0.146791   0.143830  -30.619258  -28.091410     0.80 (  79->  86)    0.07 (  78->  86)    0.02 (  79->  87)
  10   3.646     340.0   0.023736   0.021575  -17.649693  -16.932150     0.58 (  76->  86)    0.16 (  75->  86)    0.05 (  71->  86)
  11   3.691     335.9   0.101859   0.108330  -5.695908  -6.835512     0.49 (  84->  87)    0.28 (  83->  87)    0.08 (  83->  86)
  12   3.786     327.5   0.170263   0.154442  96.391085  99.591963     0.24 (  73->  86)    0.23 (  82->  87)    0.13 (  83->  87)
  13   3.807     325.6   0.137867   0.125043  -58.134770  -58.534361     0.26 (  73->  86)    0.15 (  82->  87)    0.11 (  73->  87)
  14   3.946     314.2   0.011311   0.010770  -22.053168  -22.152012     0.33 (  71->  86)    0.14 (  80->  87)    0.12 (  85->  90)
  15   4.007     309.4   0.099933   0.094493  34.810361  33.990655     0.49 (  85->  90)    0.11 (  85->  89)    0.09 (  71->  86)
  16   4.025     308.0   0.017408   0.016910  -17.227910  -17.565408     0.54 (  80->  87)    0.15 (  80->  86)    0.12 (  71->  86)
  17   4.178     296.7   0.041502   0.037975  -0.501694  -0.456381     0.38 (  82->  87)    0.27 (  83->  87)    0.16 (  84->  87)
  18   4.246     292.0   0.077173   0.065599  14.655930  10.694598     0.63 (  85->  89)    0.17 (  85->  90)    0.05 (  84->  89)
  19   4.399     281.8   0.000533   0.000547  -1.318365  -1.629838     0.59 (  78->  87)    0.24 (  78->  86)    0.08 (  73->  86)
  20   4.517     274.5   0.065316   0.051293  -8.668749  -8.709905     0.37 (  75->  86)    0.32 (  77->  86)    0.07 (  77->  87)
  21   4.564     271.6   0.077857   0.069528  -3.783751  -1.378818     0.28 (  74->  86)    0.12 (  77->  86)    0.10 (  75->  86)
  22   4.574     271.1   0.000033   0.000029  -0.719645  -0.705659     0.88 (  66->  86)    0.06 (  69->  86)    0.04 (  66->  87)
  23   4.671     265.4   0.134334   0.116414   5.700411   4.768550     0.54 (  85->  91)    0.08 (  85->  93)    0.07 (  74->  86)
  24   4.690     264.3   0.010492   0.009453  -1.742082  -0.351616     0.60 (  81->  87)    0.06 (  81->  88)    0.06 (  79->  87)
  25   4.741     261.5   0.079815   0.064706  15.712830  14.334189     0.28 (  85->  92)    0.22 (  85->  93)    0.10 (  85->  91)
  26   4.764     260.2   0.021513   0.018064   3.430513   1.779564     0.23 (  77->  86)    0.21 (  74->  86)    0.11 (  85->  93)
  27   4.787     259.0   0.000262   0.000233  -2.023185  -2.428204     0.57 (  73->  87)    0.19 (  73->  86)    0.10 (  72->  87)
  28   4.835     256.5   0.247487   0.207465   4.601284  13.850720     0.22 (  83->  89)    0.20 (  84->  89)    0.12 (  85->  91)
  29   4.920     252.0   0.148207   0.122571  18.658900  13.336443     0.51 (  70->  86)    0.06 (  81->  87)    0.06 (  84->  88)
  30   4.986     248.7   0.163014   0.141944  -42.283590  -42.204082     0.55 (  84->  88)    0.18 (  83->  88)    0.06 (  70->  86)

-----------------------------------------------------------------------------
         ABSORPTION SPECTRUM VIA TRANSITION ELECTRIC DIPOLE MOMENTS
-----------------------------------------------------------------------------
State   Energy  Wavelength   fosc         T2         TX        TY        TZ  
        (cm-1)    (nm)                  (au**2)     (au)      (au)      (au) 
-----------------------------------------------------------------------------
   0   10102.2    989.9   0.808611762  26.35112  -1.70866  -4.81026  -0.54134
   1   16978.6    589.0   0.245580441   4.76177   0.75323   1.95995   0.59413
   2   17299.3    578.1   0.095075187   1.80932  -0.46414  -1.26197   0.03658
   3   19350.3    516.8   0.006837676   0.11633  -0.12044  -0.30894   0.07989
   4   23806.1    420.1   0.356576847   4.93107  -0.51270  -1.79947  -1.19587
   5   24643.5    405.8   0.462924821   6.18420   0.75925   2.36708   0.06835
   6   24921.4    401.3   0.027235333   0.35978  -0.05610  -0.32981  -0.49785
   7   27006.4    370.3   0.139811828   1.70432  -0.06633  -0.60948  -1.15259
   8   27276.6    366.6   0.013877297   0.16749   0.00033   0.31052  -0.26658
   9   27486.4    363.8   0.146791399   1.75816   0.26795   1.29360  -0.11379
  10   29409.0    340.0   0.023735909   0.26571  -0.12411  -0.49925   0.03243
  11   29766.7    335.9   0.101858932   1.12653  -0.21701  -0.80042  -0.66239
  12   30532.2    327.5   0.170262951   1.83585  -0.14969  -0.75444  -1.11547
  13   30708.1    325.6   0.137866925   1.47803  -0.17083  -0.71115  -0.97114
  14   31827.9    314.2   0.011310744   0.11699  -0.11835   0.07819   0.31124
  15   32321.9    309.4   0.099933027   1.01786  -0.22787  -0.66738  -0.72149
  16   32467.5    308.0   0.017408265   0.17652   0.13634   0.01271  -0.39720
  17   33699.1    296.7   0.041501706   0.40544  -0.18137  -0.60807  -0.05286
  18   34247.0    292.0   0.077172800   0.74185   0.11945   0.80533   0.28112
  19   35480.5    281.8   0.000532846   0.00494   0.03262   0.00546   0.06205
  20   36436.0    274.5   0.065315850   0.59015  -0.04122   0.24271   0.72770
  21   36812.4    271.6   0.077856558   0.69627  -0.03413   0.20034   0.80930
  22   36888.1    271.1   0.000032680   0.00029   0.00317   0.00444  -0.01618
  23   37674.9    265.4   0.134333798   1.17384   0.19407   0.95255   0.47835
  24   37831.0    264.3   0.010491508   0.09130  -0.10228  -0.28260  -0.03121
  25   38239.1    261.5   0.079814981   0.68715  -0.23035  -0.67337  -0.42505
  26   38424.9    260.2   0.021513216   0.18432  -0.09108   0.06969   0.41372
  27   38609.5    259.0   0.000262431   0.00224  -0.00378  -0.00591   0.04678
  28   38992.9    256.5   0.247487492   2.08950  -0.28451  -1.32674  -0.49832
  29   39682.7    252.0   0.148207375   1.22954  -0.40617  -0.61125   0.83123
  30   40212.6    248.7   0.163013664   1.33456   0.07476   0.49724   1.04006

-----------------------------------------------------------------------------
         ABSORPTION SPECTRUM VIA TRANSITION VELOCITY DIPOLE MOMENTS
-----------------------------------------------------------------------------
State   Energy  Wavelength   fosc         P2         PX        PY        PZ  
        (cm-1)    (nm)                  (au**2)     (au)      (au)      (au) 
-----------------------------------------------------------------------------
   0   10102.2    989.9   1.541404335   0.10642  -0.10945  -0.30593  -0.02917
   1   16978.6    589.0   0.316605560   0.03674   0.06893   0.17383   0.04209
   2   17299.3    578.1   0.119650408   0.01415  -0.04066  -0.11177   0.00005
   3   19350.3    516.8   0.011668732   0.00154  -0.01342  -0.03676   0.00349
   4   23806.1    420.1   0.338700358   0.05511  -0.05291  -0.18864  -0.12931
   5   24643.5    405.8   0.474876486   0.07998   0.08588   0.26942   0.00419
   6   24921.4    401.3   0.026013911   0.00443  -0.00454  -0.03338  -0.05741
   7   27006.4    370.3   0.128228930   0.02367  -0.00242  -0.06168  -0.14092
   8   27276.6    366.6   0.015494854   0.00289  -0.00184   0.04257  -0.03276
   9   27486.4    363.8   0.143829950   0.02702   0.03407   0.16030  -0.01275
  10   29409.0    340.0   0.021575199   0.00434  -0.01579  -0.06384   0.00347
  11   29766.7    335.9   0.108329729   0.02204  -0.03121  -0.11409  -0.08970
  12   30532.2    327.5   0.154442054   0.03223  -0.01678  -0.09493  -0.15144
  13   30708.1    325.6   0.125042682   0.02624  -0.02185  -0.09058  -0.13252
  14   31827.9    314.2   0.010770398   0.00234  -0.01891   0.00417   0.04436
  15   32321.9    309.4   0.094493323   0.02087  -0.03258  -0.09608  -0.10287
  16   32467.5    308.0   0.016910266   0.00375   0.02015   0.00501  -0.05763
  17   33699.1    296.7   0.037975345   0.00875  -0.02660  -0.08921  -0.00893
  18   34247.0    292.0   0.065598558   0.01535   0.01766   0.11528   0.04188
  19   35480.5    281.8   0.000547411   0.00013   0.00601  -0.00010   0.00983
  20   36436.0    274.5   0.051293434   0.01277  -0.00482   0.03808   0.10630
  21   36812.4    271.6   0.069528203   0.01749  -0.00752   0.03016   0.12856
  22   36888.1    271.1   0.000028579   0.00001   0.00063  -0.00008  -0.00261
  23   37674.9    265.4   0.116414280   0.02998   0.02907   0.14999   0.08145
  24   37831.0    264.3   0.009453065   0.00244  -0.01737  -0.04578  -0.00685
  25   38239.1    261.5   0.064705715   0.01691  -0.03605  -0.10539  -0.06711
  26   38424.9    260.2   0.018063889   0.00474  -0.01207   0.01728   0.06557
  27   38609.5    259.0   0.000233072   0.00006   0.00117  -0.00146   0.00762
  28   38992.9    256.5   0.207465231   0.05529  -0.04374  -0.21678  -0.07989
  29   39682.7    252.0   0.122570813   0.03324  -0.06698  -0.10597   0.13239
  30   40212.6    248.7   0.141944094   0.03901   0.01417   0.08688   0.17681

-------------------------------------------------------------------
                             CD SPECTRUM
-------------------------------------------------------------------
State   Energy Wavelength       R         MX        MY        MZ   
        (cm-1)   (nm)       (1e40*cgs)   (au)      (au)      (au)  
-------------------------------------------------------------------
   0   10102.2    989.9     17.88288   0.31781  -0.13568   0.34262
   1   16978.6    589.0      4.87188   0.42595  -0.07188  -0.33768
   2   17299.3    578.1      8.37213   1.01134  -0.33481   0.31068
   3   19350.3    516.8      0.10088  -0.08286   0.02541  -0.03200
   4   23806.1    420.1    -11.13690  -1.75263   0.49001  -0.02545
   5   24643.5    405.8    -16.76603  -0.74760   0.27223  -0.08280
   6   24921.4    401.3      0.83415  -0.15652  -0.05325   0.06002
   7   27006.4    370.3      6.48035  -1.79004   0.48036  -0.12715
   8   27276.6    366.6     10.15211  -1.09199   0.28368   0.49064
   9   27486.4    363.8    -30.61926  -2.30637   0.63188   0.61089
  10   29409.0    340.0    -17.64969   0.42584  -0.25730  -0.02255
  11   29766.7    335.9     -5.69591  -0.42139   0.01888   0.07876
  12   30532.2    327.5     96.39109  -3.31321   1.13141   0.04597
  13   30708.1    325.6    -58.13477  -2.69090   0.77559  -0.34854
  14   31827.9    314.2    -22.05317   0.84532  -0.29035   0.69498
  15   32321.9    309.4     34.81036  -1.13074   0.31157   0.27361
  16   32467.5    308.0    -17.22791  -0.84732   0.23204  -0.46743
  17   33699.1    296.7     -0.50169   0.37321  -0.11625   0.01646
  18   34247.0    292.0     14.65593   1.14567  -0.49867   0.72057
  19   35480.5    281.8     -1.31837   0.18214  -0.08075   0.00148
  20   36436.0    274.5     -8.66875   1.75767  -0.51622   0.32228
  21   36812.4    271.6     -3.78375   0.89482  -0.18545   0.10348
  22   36888.1    271.1     -0.71964   0.02216  -0.01076  -0.18725
  23   37674.9    265.4      5.70041   2.04590  -0.71893   0.55103
  24   37831.0    264.3     -1.74208   0.64571  -0.28593   0.23615
  25   38239.1    261.5     15.71283  -0.78544   0.19453   0.27431
  26   38424.9    260.2      3.43051   0.42641  -0.00412   0.05939
  27   38609.5    259.0     -2.02318   0.23239  -0.00189   0.20200
  28   38992.9    256.5      4.60128  -2.16904   0.79824  -0.84769
  29   39682.7    252.0     18.65890   4.36570  -1.43508   0.98269
  30   40212.6    248.7    -42.28359   3.30411  -1.07974   0.45117

sTD-DFT done

Total run time:        2.233 sec

           *** ORCA-CIS/TD-DFT FINISHED WITHOUT ERROR ***

-------------------------   --------------------
FINAL SINGLE POINT ENERGY     -3722.608264437855
-------------------------   --------------------


                            ***************************************
                            *     ORCA property calculations      *
                            ***************************************

                                    ---------------------
                                    Active property flags
                                    ---------------------
   (+) Dipole Moment


------------------------------------------------------------------------------
                       ORCA ELECTRIC PROPERTIES CALCULATION
------------------------------------------------------------------------------

Dipole Moment Calculation                       ... on
Quadrupole Moment Calculation                   ... off
Polarizability Calculation                      ... off
GBWName                                         ... xtbopt.gbw
Electron density file                           ... xtbopt.scfp
The origin for moment calculation is the CENTER OF MASS  = (-6.575906, -22.119182 -0.150112)

-------------
DIPOLE MOMENT
-------------
                                X             Y             Z
Electronic contribution:      6.06554       8.95887       3.79212
Nuclear contribution   :     -7.68054     -10.91508      -5.36758
                        -----------------------------------------
Total Dipole Moment    :     -1.61499      -1.95621      -1.57545
                        -----------------------------------------
Magnitude (a.u.)       :      2.98614
Magnitude (Debye)      :      7.59016



--------------------
Rotational spectrum 
--------------------
 
Rotational constants in cm-1:     0.003410     0.000287     0.000267 
Rotational constants in MHz :   102.229543     8.604417     8.006568 

 Dipole components along the rotational axes: 
x,y,z [a.u.] :     2.700310    -0.729551    -1.045519 
x,y,z [Debye]:     6.863643    -1.854371    -2.657499 

 

Timings for individual modules:

Sum of individual times         ...      454.758 sec (=   7.579 min)
GTO integral calculation        ...        2.280 sec (=   0.038 min)   0.5 %
SCF iterations                  ...      449.526 sec (=   7.492 min)  98.8 %
CIS module                      ...        2.951 sec (=   0.049 min)   0.6 %
                             ****ORCA TERMINATED NORMALLY****
TOTAL RUN TIME: 0 days 0 hours 7 minutes 35 seconds 701 msec
