
                                 *****************
                                 * O   R   C   A *
                                 *****************

           --- An Ab Initio, DFT and Semiempirical electronic structure package ---

                  #######################################################
                  #                        -***-                        #
                  #          Department of theory and spectroscopy      #
                  #               Directorship: Frank Neese             #
                  #        Max Planck Institute fuer Kohlenforschung    #
                  #                Kaiser Wilhelm Platz 1               #
                  #                 D-45470 Muelheim/Ruhr               #
                  #                      Germany                        #
                  #                                                     #
                  #                  All rights reserved                #
                  #                        -***-                        #
                  #######################################################


                         Program Version 4.2.0 -  RELEASE  -


 With contributions from (in alphabetic order):
   Daniel Aravena         : Magnetic Suceptibility
   Michael Atanasov       : Ab Initio Ligand Field Theory (pilot matlab implementation)
   Alexander A. Auer      : GIAO ZORA, VPT2
   Ute Becker             : Parallelization
   Giovanni Bistoni       : ED, misc. LED, open-shell LED, HFLED
   Martin Brehm           : Molecular dynamics
   Dmytro Bykov           : SCF Hessian
   Vijay G. Chilkuri      : MRCI spin determinant printing, contributions to CSF-ICE
   Dipayan Datta          : RHF DLPNO-CCSD density
   Achintya Kumar Dutta   : EOM-CC, STEOM-CC
   Dmitry Ganyushin       : Spin-Orbit,Spin-Spin,Magnetic field MRCI
   Miquel Garcia          : C-PCM Hessian, Gaussian charge scheme
   Yang Guo               : DLPNO-NEVPT2, CIM, IAO-localization
   Andreas Hansen         : Spin unrestricted coupled pair/coupled cluster methods
   Benjamin Helmich-Paris : CASSCF linear response (MC-RPA)
   Lee Huntington         : MR-EOM, pCC
   Robert Izsak           : Overlap fitted RIJCOSX, COSX-SCS-MP3, EOM
   Christian Kollmar      : KDIIS, OOCD, Brueckner-CCSD(T), CCSD density
   Simone Kossmann        : Meta GGA functionals, TD-DFT gradient, OOMP2, MP2 Hessian
   Martin Krupicka        : AUTO-CI
   Lucas Lang             : DCDCAS
   Dagmar Lenk            : GEPOL surface, SMD
   Dimitrios Liakos       : Extrapolation schemes; Compound Job, initial MDCI parallelization
   Dimitrios Manganas     : Further ROCIS development; embedding schemes
   Dimitrios Pantazis     : SARC Basis sets
   Taras Petrenko         : DFT Hessian,TD-DFT gradient, ASA, ECA, R-Raman, ABS, FL, XAS/XES, NRVS
   Peter Pinski           : DLPNO-MP2, DLPNO-MP2 Gradient
   Christoph Reimann      : Effective Core Potentials
   Marius Retegan         : Local ZFS, SOC
   Christoph Riplinger    : Optimizer, TS searches, QM/MM, DLPNO-CCSD(T), (RO)-DLPNO pert. Triples
   Tobias Risthaus        : Range-separated hybrids, TD-DFT gradient, RPA, STAB
   Michael Roemelt        : Original ROCIS implementation
   Masaaki Saitow         : Open-shell DLPNO-CCSD energy and density
   Barbara Sandhoefer     : DKH picture change effects
   Avijit Sen             : IP-ROCIS
   Kantharuban Sivalingam : CASSCF convergence, NEVPT2, FIC-MRCI
   Bernardo de Souza      : ESD, SOC TD-DFT
   Georgi Stoychev        : AutoAux, RI-MP2 NMR
   Willem Van den Heuvel  : Paramagnetic NMR
   Boris Wezisla          : Elementary symmetry handling
   Frank Wennmohs         : Technical directorship


 We gratefully acknowledge several colleagues who have allowed us to
 interface, adapt or use parts of their codes:
   Stefan Grimme, W. Hujo, H. Kruse,             : VdW corrections, initial TS optimization,
                  C. Bannwarth                     DFT functionals, gCP, sTDA/sTD-DF
   Ed Valeev, F. Pavosevic, A. Kumar             : LibInt (2-el integral package), F12 methods
   Garnet Chan, S. Sharma, J. Yang, R. Olivares  : DMRG
   Ulf Ekstrom                                   : XCFun DFT Library
   Mihaly Kallay                                 : mrcc  (arbitrary order and MRCC methods)
   Andreas Klamt, Michael Diedenhofen            : otool_cosmo (COSMO solvation model)
   Jiri Pittner, Ondrej Demel                    : Mk-CCSD
   Frank Weinhold                                : gennbo (NPA and NBO analysis)
   Christopher J. Cramer and Donald G. Truhlar   : smd solvation model
   Lars Goerigk                                  : TD-DFT with DH, B97 family of functionals
   V. Asgeirsson, H. Jonsson                     : NEB implementation
   FAccTs GmbH                                   : IRC, NEB, NEB-TS, Multilevel, MM, QM/MM, CI optimization
   S Lehtola, MJT Oliveira, MAL Marques          : LibXC Library


 Your calculation uses the libint2 library for the computation of 2-el integrals
 For citations please refer to: http://libint.valeyev.net

 Your ORCA version has been built with support for libXC version: 4.2.3
 For citations please refer to: https://tddft.org/programs/libxc/

 This ORCA versions uses:
   CBLAS   interface :  Fast vector & matrix operations
   LAPACKE interface :  Fast linear algebra routines
   SCALAPACK package :  Parallel linear algebra routines


XCFun DFT library Copyright 2009-2010 Ulf Ekstrom and contributors.
See http://admol.org/xcfun for more information. This is free soft-
ware; see the source code for copying conditions. There is ABSOLUTELY
NO WARRANTY; not even for MERCHANTABILITY or FITNESS FOR A PARTICULAR
PURPOSE. For details see the documentation. Scientific users of this 
library should cite U. Ekstrom, L. Visscher, R. Bast, A. J. Thorvald-
sen and K. Ruud; J.Chem.Theor.Comp. 2010, DOI: 10.1021/ct100117s
XCFun Version 0.99 
----- Orbital basis set information -----
Your calculation utilizes the basis: def2-SVP
   F. Weigend and R. Ahlrichs, Phys. Chem. Chem. Phys. 7, 3297 (2005).

----- AuxJ basis set information -----
Your calculation utilizes the auxiliary basis: def2/J
   F. Weigend, Phys. Chem. Chem. Phys. 8, 1057 (2006).

================================================================================
                                        WARNINGS
                       Please study these warnings very carefully!
================================================================================

INFO   : Checking CIS options ...

WARNING: CIS/ROCIS methods need fully converged wavefunctions
  ===> : Setting SCFConvForced true
         You can overwrite this default with %scf ConvForced false 


INFO   : the flag for use of LIBINT has been found!

================================================================================
                                       INPUT FILE
================================================================================
NAME = xtbopt.inp
|  1> # ORCA input file
|  2> # SCF done       -255.115329279257          0.000482050923
|  3> ! CAM-B3LYP def2-SVP def2/J RIJCOSX Grid4 TightSCF
|  4> %maxcore 5000
|  5> %tddft
|  6>     Mode sTDDFT
|  7>     Ethresh 5.0
|  8>     maxcore 5000
|  9> end
| 10> 
| 11> %pal
| 12>   nprocs 6
| 13>   end
| 14> * xyz 0 1
| 15>    C       -9.87032         1.93388        -0.94270
| 16>    C      -11.11659         1.98773        -1.50069
| 17>    F      -11.65090         3.16704        -1.84202
| 18>    C      -11.85499         0.80751        -1.72311
| 19>    F      -13.07429         0.89205        -2.27012
| 20>    C      -11.33718        -0.41067        -1.38242
| 21>    C      -10.05711        -0.49877        -0.80187
| 22>    C       -9.30790         0.69328        -0.58002
| 23>    C       -8.01842         0.62916        -0.00550
| 24>    C       -7.49296        -0.58974         0.33616
| 25>    C       -8.25330        -1.77322         0.12171
| 26>    C       -9.50212        -1.74268        -0.42901
| 27>    C       -7.48735        -2.93965         0.59382
| 28>    O       -7.91404        -4.06432         0.75112
| 29>    C       -6.15013        -2.40776         0.98462
| 30>    C       -6.19984        -0.95921         0.90334
| 31>    C       -5.19168        -0.08811         1.22213
| 32>    C       -5.29332         1.31507         1.10633
| 33>    N       -5.31388         2.46094         1.04480
| 34>    C       -3.91562        -0.45243         1.70298
| 35>    N       -2.85113        -0.66117         2.07898
| 36>    C       -5.10806        -3.16483         1.43070
| 37>    C       -4.95138        -4.55790         1.19079
| 38>    C       -5.45290        -5.18486         0.02484
| 39>    C       -5.39274        -6.61515        -0.16585
| 40>    N       -6.11709        -7.16813        -1.15073
| 41>    C       -6.78870        -6.40132        -1.97346
| 42>    C       -6.63125        -4.97693        -1.92556
| 43>    N       -5.97512        -4.42217        -0.94092
| 44>    C       -7.18991        -4.14557        -2.92689
| 45>    N       -7.68483        -3.47999        -3.71669
| 46>    C       -7.61831        -6.99465        -2.95611
| 47>    N       -8.29374        -7.44055        -3.76659
| 48>    C       -4.68425        -7.44150         0.73147
| 49>    C       -4.04800        -6.79002         1.80751
| 50>    C       -4.20285        -5.37771         2.05566
| 51>    N       -3.57929        -5.00326         3.17361
| 52>    S       -2.85008        -6.27986         3.81162
| 53>    N       -3.26752        -7.36869         2.72175
| 54>    C       -4.69598        -8.87662         0.74557
| 55>    N       -4.55756        -9.73304        -0.30954
| 56>    C       -4.19980        -9.39708        -1.66696
| 57>    C       -2.81076        -8.77231        -1.74715
| 58>    C       -4.59354       -11.07873         0.11082
| 59>    O       -4.44759       -12.02050        -0.64258
| 60>    C       -4.81912       -11.00740         1.53616
| 61>    C       -4.85406        -9.64047         1.89909
| 62>    C       -5.14257        -9.55790         3.31897
| 63>    O       -5.29865        -8.62322         4.07377
| 64>    N       -5.22425       -10.90514         3.72698
| 65>    C       -5.53346       -11.25422         5.09368
| 66>    C       -7.01562       -11.57513         5.26907
| 67>    C       -5.04185       -11.77378         2.68181
| 68>    C       -5.05725       -13.18558         2.82921
| 69>    C       -4.77216       -14.01247         1.79194
| 70>    C       -4.68888       -15.43326         1.81658
| 71>    S       -3.66343       -16.16116         0.61794
| 72>    C       -3.93968       -17.75483         1.24586
| 73>    C       -4.87340       -17.72183         2.26478
| 74>    C       -5.27756       -16.41450         2.60439
| 75>    C       -6.21386       -16.18091         3.75145
| 76>    N       -5.32073       -16.08040         4.95697
| 77>    O       -5.10520       -14.97412         5.38536
| 78>    O       -4.86668       -17.10495         5.39185
| 79>    C       -7.22216       -17.31853         3.98304
| 80>    C       -7.07744       -18.47027         2.99688
| 81>    C       -5.60477       -18.88705         2.85971
| 82>    N       -5.60621       -20.06142         1.95186
| 83>    O       -5.38374       -21.13694         2.44713
| 84>    O       -5.87637       -19.86225         0.79405
| 85>    C       -3.12117       -18.80599         0.72810
| 86>    C       -2.70360       -19.89170         1.41238
| 87>    C       -1.83223       -20.88774         0.87544
| 88>    C       -0.84963       -20.76757        -0.05112
| 89>    C       -0.32226       -22.00335        -0.70780
| 90>    O       -0.50550       -23.14110        -0.35004
| 91>    C        0.41541       -21.52761        -1.89403
| 92>    C        0.98553       -22.25563        -2.89875
| 93>    C        1.62702       -21.57758        -3.95901
| 94>    C        1.65281       -20.15216        -3.96386
| 95>    C        2.28525       -19.48121        -5.03010
| 96>    C        2.87050       -20.19166        -6.04002
| 97>    C        2.84831       -21.60156        -6.03214
| 98>    C        2.23932       -22.28114        -5.01469
| 99>    F        3.43056       -22.27088        -7.03469
|100>    F        3.47314       -19.55342        -7.05035
|101>    C        1.05866       -19.42548        -2.90767
|102>    C        0.45925       -20.10433        -1.87982
|103>    C       -0.18426       -19.62797        -0.65795
|104>    C        0.02831       -18.39813        -0.09611
|105>    C       -0.41791       -18.01311         1.18446
|106>    N       -0.73120       -17.64205         2.22425
|107>    C        0.78618       -17.37660        -0.70821
|108>    N        1.37976       -16.50735        -1.16478
|109>    H       -9.31787         2.84636        -0.78126
|110>    H      -11.91390        -1.30462        -1.56043
|111>    H       -7.47817         1.54905         0.14882
|112>    H      -10.05686        -2.65544        -0.58435
|113>    H       -4.30632        -2.70894         1.99683
|114>    H       -4.95263        -8.72276        -2.08195
|115>    H       -4.22104       -10.33991        -2.22025
|116>    H       -2.77175        -7.83786        -1.19028
|117>    H       -2.56077        -8.56865        -2.78459
|118>    H       -2.06621        -9.45056        -1.33662
|119>    H       -5.27574       -10.38020         5.69732
|120>    H       -4.91613       -12.09871         5.40859
|121>    H       -7.61903       -10.70777         5.01320
|122>    H       -7.21123       -11.84479         6.30261
|123>    H       -7.31161       -12.40377         4.62969
|124>    H       -5.22954       -13.56605         3.82260
|125>    H       -4.51478       -13.56727         0.83790
|126>    H       -6.70779       -15.21227         3.64937
|127>    H       -8.23511       -16.92234         3.91747
|128>    H       -7.07951       -17.71130         4.99233
|129>    H       -7.43817       -18.17495         2.00844
|130>    H       -7.67476       -19.31456         3.34481
|131>    H       -5.19255       -19.20405         3.82372
|132>    H       -2.76561       -18.65049        -0.28244
|133>    H       -3.05586       -20.07738         2.41736
|134>    H       -2.00298       -21.90067         1.22925
|135>    H        0.94810       -23.33416        -2.88403
|136>    H        2.31501       -18.40300        -5.04912
|137>    H        2.23042       -23.35977        -5.02387
|138>    H        1.08458       -18.34806        -2.94197
|139> *
|140> 
|141>                          ****END OF INPUT****
================================================================================

                       ****************************
                       * Single Point Calculation *
                       ****************************

---------------------------------
CARTESIAN COORDINATES (ANGSTROEM)
---------------------------------
  C     -9.870320    1.933880   -0.942700
  C    -11.116590    1.987730   -1.500690
  F    -11.650900    3.167040   -1.842020
  C    -11.854990    0.807510   -1.723110
  F    -13.074290    0.892050   -2.270120
  C    -11.337180   -0.410670   -1.382420
  C    -10.057110   -0.498770   -0.801870
  C     -9.307900    0.693280   -0.580020
  C     -8.018420    0.629160   -0.005500
  C     -7.492960   -0.589740    0.336160
  C     -8.253300   -1.773220    0.121710
  C     -9.502120   -1.742680   -0.429010
  C     -7.487350   -2.939650    0.593820
  O     -7.914040   -4.064320    0.751120
  C     -6.150130   -2.407760    0.984620
  C     -6.199840   -0.959210    0.903340
  C     -5.191680   -0.088110    1.222130
  C     -5.293320    1.315070    1.106330
  N     -5.313880    2.460940    1.044800
  C     -3.915620   -0.452430    1.702980
  N     -2.851130   -0.661170    2.078980
  C     -5.108060   -3.164830    1.430700
  C     -4.951380   -4.557900    1.190790
  C     -5.452900   -5.184860    0.024840
  C     -5.392740   -6.615150   -0.165850
  N     -6.117090   -7.168130   -1.150730
  C     -6.788700   -6.401320   -1.973460
  C     -6.631250   -4.976930   -1.925560
  N     -5.975120   -4.422170   -0.940920
  C     -7.189910   -4.145570   -2.926890
  N     -7.684830   -3.479990   -3.716690
  C     -7.618310   -6.994650   -2.956110
  N     -8.293740   -7.440550   -3.766590
  C     -4.684250   -7.441500    0.731470
  C     -4.048000   -6.790020    1.807510
  C     -4.202850   -5.377710    2.055660
  N     -3.579290   -5.003260    3.173610
  S     -2.850080   -6.279860    3.811620
  N     -3.267520   -7.368690    2.721750
  C     -4.695980   -8.876620    0.745570
  N     -4.557560   -9.733040   -0.309540
  C     -4.199800   -9.397080   -1.666960
  C     -2.810760   -8.772310   -1.747150
  C     -4.593540  -11.078730    0.110820
  O     -4.447590  -12.020500   -0.642580
  C     -4.819120  -11.007400    1.536160
  C     -4.854060   -9.640470    1.899090
  C     -5.142570   -9.557900    3.318970
  O     -5.298650   -8.623220    4.073770
  N     -5.224250  -10.905140    3.726980
  C     -5.533460  -11.254220    5.093680
  C     -7.015620  -11.575130    5.269070
  C     -5.041850  -11.773780    2.681810
  C     -5.057250  -13.185580    2.829210
  C     -4.772160  -14.012470    1.791940
  C     -4.688880  -15.433260    1.816580
  S     -3.663430  -16.161160    0.617940
  C     -3.939680  -17.754830    1.245860
  C     -4.873400  -17.721830    2.264780
  C     -5.277560  -16.414500    2.604390
  C     -6.213860  -16.180910    3.751450
  N     -5.320730  -16.080400    4.956970
  O     -5.105200  -14.974120    5.385360
  O     -4.866680  -17.104950    5.391850
  C     -7.222160  -17.318530    3.983040
  C     -7.077440  -18.470270    2.996880
  C     -5.604770  -18.887050    2.859710
  N     -5.606210  -20.061420    1.951860
  O     -5.383740  -21.136940    2.447130
  O     -5.876370  -19.862250    0.794050
  C     -3.121170  -18.805990    0.728100
  C     -2.703600  -19.891700    1.412380
  C     -1.832230  -20.887740    0.875440
  C     -0.849630  -20.767570   -0.051120
  C     -0.322260  -22.003350   -0.707800
  O     -0.505500  -23.141100   -0.350040
  C      0.415410  -21.527610   -1.894030
  C      0.985530  -22.255630   -2.898750
  C      1.627020  -21.577580   -3.959010
  C      1.652810  -20.152160   -3.963860
  C      2.285250  -19.481210   -5.030100
  C      2.870500  -20.191660   -6.040020
  C      2.848310  -21.601560   -6.032140
  C      2.239320  -22.281140   -5.014690
  F      3.430560  -22.270880   -7.034690
  F      3.473140  -19.553420   -7.050350
  C      1.058660  -19.425480   -2.907670
  C      0.459250  -20.104330   -1.879820
  C     -0.184260  -19.627970   -0.657950
  C      0.028310  -18.398130   -0.096110
  C     -0.417910  -18.013110    1.184460
  N     -0.731200  -17.642050    2.224250
  C      0.786180  -17.376600   -0.708210
  N      1.379760  -16.507350   -1.164780
  H     -9.317870    2.846360   -0.781260
  H    -11.913900   -1.304620   -1.560430
  H     -7.478170    1.549050    0.148820
  H    -10.056860   -2.655440   -0.584350
  H     -4.306320   -2.708940    1.996830
  H     -4.952630   -8.722760   -2.081950
  H     -4.221040  -10.339910   -2.220250
  H     -2.771750   -7.837860   -1.190280
  H     -2.560770   -8.568650   -2.784590
  H     -2.066210   -9.450560   -1.336620
  H     -5.275740  -10.380200    5.697320
  H     -4.916130  -12.098710    5.408590
  H     -7.619030  -10.707770    5.013200
  H     -7.211230  -11.844790    6.302610
  H     -7.311610  -12.403770    4.629690
  H     -5.229540  -13.566050    3.822600
  H     -4.514780  -13.567270    0.837900
  H     -6.707790  -15.212270    3.649370
  H     -8.235110  -16.922340    3.917470
  H     -7.079510  -17.711300    4.992330
  H     -7.438170  -18.174950    2.008440
  H     -7.674760  -19.314560    3.344810
  H     -5.192550  -19.204050    3.823720
  H     -2.765610  -18.650490   -0.282440
  H     -3.055860  -20.077380    2.417360
  H     -2.002980  -21.900670    1.229250
  H      0.948100  -23.334160   -2.884030
  H      2.315010  -18.403000   -5.049120
  H      2.230420  -23.359770   -5.023870
  H      1.084580  -18.348060   -2.941970

----------------------------
CARTESIAN COORDINATES (A.U.)
----------------------------
  NO LB      ZA    FRAG     MASS         X           Y           Z
   0 C     6.0000    0    12.011  -18.652202    3.654504   -1.781445
   1 C     6.0000    0    12.011  -21.007311    3.756265   -2.835893
   2 F     9.0000    0    18.998  -22.017010    5.984838   -3.480913
   3 C     6.0000    0    12.011  -22.402684    1.525973   -3.256206
   4 F     9.0000    0    18.998  -24.706827    1.685730   -4.289905
   5 C     6.0000    0    12.011  -21.424165   -0.776054   -2.612395
   6 C     6.0000    0    12.011  -19.005184   -0.942539   -1.515315
   7 C     6.0000    0    12.011  -17.589382    1.310109   -1.096079
   8 C     6.0000    0    12.011  -15.152618    1.188940   -0.010393
   9 C     6.0000    0    12.011  -14.159642   -1.114447    0.635250
  10 C     6.0000    0    12.011  -15.596477   -3.350900    0.229999
  11 C     6.0000    0    12.011  -17.956404   -3.293188   -0.810711
  12 C     6.0000    0    12.011  -14.149041   -5.555133    1.122157
  13 O     8.0000    0    15.999  -14.955368   -7.680452    1.419411
  14 C     6.0000    0    12.011  -11.622061   -4.550007    1.860662
  15 C     6.0000    0    12.011  -11.716000   -1.812644    1.707065
  16 C     6.0000    0    12.011   -9.810853   -0.166504    2.309491
  17 C     6.0000    0    12.011  -10.002925    2.485122    2.090661
  18 N     7.0000    0    14.007  -10.041778    4.650503    1.974386
  19 C     6.0000    0    12.011   -7.399449   -0.854969    3.218166
  20 N     7.0000    0    14.007   -5.387855   -1.249430    3.928703
  21 C     6.0000    0    12.011   -9.652834   -5.980662    2.703631
  22 C     6.0000    0    12.011   -9.356752   -8.613183    2.250267
  23 C     6.0000    0    12.011  -10.304488   -9.797965    0.046941
  24 C     6.0000    0    12.011  -10.190802  -12.500822   -0.313411
  25 N     7.0000    0    14.007  -11.559625  -13.545803   -2.174565
  26 C     6.0000    0    12.011  -12.828784  -12.096742   -3.729299
  27 C     6.0000    0    12.011  -12.531246   -9.405035   -3.638781
  28 N     7.0000    0    14.007  -11.291340   -8.356690   -1.778081
  29 C     6.0000    0    12.011  -13.586961   -7.833992   -5.531021
  30 N     7.0000    0    14.007  -14.522224   -6.576228   -7.023526
  31 C     6.0000    0    12.011  -14.396520  -13.217973   -5.586238
  32 N     7.0000    0    14.007  -15.672897  -14.060602   -7.117824
  33 C     6.0000    0    12.011   -8.851950  -14.062397    1.382278
  34 C     6.0000    0    12.011   -7.649611  -12.831278    3.415699
  35 C     6.0000    0    12.011   -7.942235  -10.162399    3.884634
  36 N     7.0000    0    14.007   -6.763878   -9.454791    5.997254
  37 S    16.0000    0    32.060   -5.385871  -11.867216    7.202918
  38 N     7.0000    0    14.007   -6.174718  -13.924806    5.143362
  39 C     6.0000    0    12.011   -8.874116  -16.774381    1.408923
  40 N     7.0000    0    14.007   -8.612540  -18.392780   -0.584946
  41 C     6.0000    0    12.011   -7.936472  -17.757908   -3.150098
  42 C     6.0000    0    12.011   -5.311567  -16.577263   -3.301635
  43 C     6.0000    0    12.011   -8.680533  -20.935766    0.209419
  44 O     8.0000    0    15.999   -8.404727  -22.715453   -1.214300
  45 C     6.0000    0    12.011   -9.106817  -20.800971    2.902922
  46 C     6.0000    0    12.011   -9.172844  -18.217848    3.588760
  47 C     6.0000    0    12.011   -9.718049  -18.061813    6.271944
  48 O     8.0000    0    15.999  -10.012997  -16.295524    7.698310
  49 N     7.0000    0    14.007   -9.872402  -20.607728    7.042972
  50 C     6.0000    0    12.011  -10.456724  -21.267394    9.625660
  51 C     6.0000    0    12.011  -13.257600  -21.873826    9.957099
  52 C     6.0000    0    12.011   -9.527716  -22.249220    5.067886
  53 C     6.0000    0    12.011   -9.556817  -24.917135    5.346432
  54 C     6.0000    0    12.011   -9.018075  -26.479731    3.386276
  55 C     6.0000    0    12.011   -8.860699  -29.164635    3.432839
  56 S    16.0000    0    32.060   -6.922879  -30.540166    1.167737
  57 C     6.0000    0    12.011   -7.444916  -33.551766    2.354334
  58 C     6.0000    0    12.011   -9.209391  -33.489405    4.279814
  59 C     6.0000    0    12.011   -9.973143  -31.018910    4.921584
  60 C     6.0000    0    12.011  -11.742494  -30.577488    7.089213
  61 N     7.0000    0    14.007  -10.054723  -30.387552    9.367316
  62 O     8.0000    0    15.999   -9.647430  -28.296986   10.176856
  63 O     8.0000    0    15.999   -9.196692  -32.323671   10.189120
  64 C     6.0000    0    12.011  -13.647904  -32.727279    7.526855
  65 C     6.0000    0    12.011  -13.374423  -34.903752    5.663282
  66 C     6.0000    0    12.011  -10.591480  -35.691352    5.404069
  67 N     7.0000    0    14.007  -10.594202  -37.910590    3.688481
  68 O     8.0000    0    15.999  -10.173794  -39.943028    4.624406
  69 O     8.0000    0    15.999  -11.104730  -37.534213    1.500537
  70 C     6.0000    0    12.011   -5.898157  -35.538171    1.375910
  71 C     6.0000    0    12.011   -5.109064  -37.589865    2.669011
  72 C     6.0000    0    12.011   -3.462413  -39.472108    1.654342
  73 C     6.0000    0    12.011   -1.605568  -39.245020   -0.096603
  74 C     6.0000    0    12.011   -0.608983  -41.580306   -1.337548
  75 O     8.0000    0    15.999   -0.955257  -43.730341   -0.661480
  76 C     6.0000    0    12.011    0.785011  -40.681287   -3.579198
  77 C     6.0000    0    12.011    1.862382  -42.057046   -5.477844
  78 C     6.0000    0    12.011    3.074622  -40.775717   -7.481445
  79 C     6.0000    0    12.011    3.123358  -38.082063   -7.490610
  80 C     6.0000    0    12.011    4.318497  -36.814152   -9.505511
  81 C     6.0000    0    12.011    5.424459  -38.156708  -11.413984
  82 C     6.0000    0    12.011    5.382526  -40.821032  -11.399093
  83 C     6.0000    0    12.011    4.231702  -42.105253   -9.476391
  84 F     9.0000    0    18.998    6.482819  -42.085864  -13.293638
  85 F     9.0000    0    18.998    6.563283  -36.950609  -13.323231
  86 C     6.0000    0    12.011    2.000577  -36.708837   -5.494700
  87 C     6.0000    0    12.011    0.867857  -37.991678   -3.552345
  88 C     6.0000    0    12.011   -0.348201  -37.091488   -1.243345
  89 C     6.0000    0    12.011    0.053498  -34.767427   -0.181622
  90 C     6.0000    0    12.011   -0.789735  -34.039845    2.238305
  91 N     7.0000    0    14.007   -1.381768  -33.338643    4.203223
  92 C     6.0000    0    12.011    1.485665  -32.837015   -1.338323
  93 N     7.0000    0    14.007    2.607369  -31.194371   -2.201115
  94 H     1.0000    0     1.008  -17.608222    5.378841   -1.476367
  95 H     1.0000    0     1.008  -22.514008   -2.465375   -2.948785
  96 H     1.0000    0     1.008  -14.131693    2.927280    0.281229
  97 H     1.0000    0     1.008  -19.004711   -5.018054   -1.104261
  98 H     1.0000    0     1.008   -8.137765   -5.119155    3.773462
  99 H     1.0000    0     1.008   -9.359114  -16.483628   -3.934315
 100 H     1.0000    0     1.008   -7.976610  -19.539598   -4.195664
 101 H     1.0000    0     1.008   -5.237848  -14.811409   -2.249303
 102 H     1.0000    0     1.008   -4.839154  -16.192402   -5.262112
 103 H     1.0000    0     1.008   -3.904571  -17.858970   -2.525846
 104 H     1.0000    0     1.008   -9.969704  -19.615735   10.766374
 105 H     1.0000    0     1.008   -9.290139  -22.863248   10.220754
 106 H     1.0000    0     1.008  -14.397880  -20.234753    9.473575
 107 H     1.0000    0     1.008  -13.627250  -22.383409   11.910207
 108 H     1.0000    0     1.008  -13.816940  -23.439728    8.748846
 109 H     1.0000    0     1.008   -9.882398  -25.636119    7.223667
 110 H     1.0000    0     1.008   -8.531698  -25.638425    1.583402
 111 H     1.0000    0     1.008  -12.675886  -28.747024    6.896310
 112 H     1.0000    0     1.008  -15.562103  -31.978588    7.402945
 113 H     1.0000    0     1.008  -13.378335  -33.469506    9.434136
 114 H     1.0000    0     1.008  -14.056104  -34.345678    3.795402
 115 H     1.0000    0     1.008  -14.503195  -36.499229    6.320775
 116 H     1.0000    0     1.008   -9.812497  -36.290395    7.225784
 117 H     1.0000    0     1.008   -5.226245  -35.244318   -0.533734
 118 H     1.0000    0     1.008   -5.774739  -37.940750    4.568148
 119 H     1.0000    0     1.008   -3.785084  -41.386268    2.322946
 120 H     1.0000    0     1.008    1.791649  -44.095172   -5.450027
 121 H     1.0000    0     1.008    4.374735  -34.776630   -9.541454
 122 H     1.0000    0     1.008    4.214883  -44.143568   -9.493738
 123 H     1.0000    0     1.008    2.049559  -34.672808   -5.559518

--------------------------------
INTERNAL COORDINATES (ANGSTROEM)
--------------------------------
 C      0   0   0     0.000000000000     0.00000000     0.00000000
 C      1   0   0     1.366543660298     0.00000000     0.00000000
 F      2   1   0     1.338941903557   120.18087689     0.00000000
 C      2   1   3     1.409831360412   120.60282791   180.04909225
 F      4   2   1     1.339051694932   119.24248636   179.92191857
 C      4   2   1     1.366806271788   120.55467300     0.09428279
 C      6   4   2     1.408324933174   120.18882460     0.09779912
 C      1   2   3     1.409589088635   120.23977737   179.85172729
 C      8   1   2     1.413132433709   120.57211961   179.84633970
 C      9   8   1     1.370604602794   119.44114981   180.11889433
 C     10   9   8     1.422930296431   119.81729230   359.39908705
 C     11  10   9     1.365202037209   122.07208319     0.49729593
 C     11  10   9     1.473134820544   109.41607172   181.20978654
 O     13  11  10     1.213132414454   126.35162391   167.79808934
 C     13  11  10     1.491237385697   105.53421980   354.39889916
 C     15  13  11     1.451679932010   108.09108109     7.00404223
 C     16  15  13     1.369974036141   126.60195806   177.73626202
 C     17  16  15     1.411614126452   124.05418854   179.16386487
 N     18  17  16     1.147704975767   176.48961479   172.12482442
 C     17  16  15     1.411479687597   125.48194491   359.39586163
 N     20  17  16     1.148079852493   175.36892417   168.24510956
 C     15  13  11     1.363103897801   124.97287348   182.67925028
 C     22  15  13     1.422233966477   124.96171055    21.86538758
 C     23  22  15     1.415641393327   122.25601904    29.99814303
 C     24  23  22     1.444199219568   122.18177272   185.31424311
 N     25  24  23     1.341811617665   118.85361047   166.65403854
 C     26  25  24     1.309939777662   119.77044381     4.63173542
 C     27  26  25     1.433866027424   120.28019999     7.28189161
 N     28  27  26     1.306821014562   120.13296528   349.88934964
 C     28  27  26     1.416305833533   121.07641020   170.56191693
 N     30  28  27     1.145306327058   177.59819445    75.61208612
 C     27  26  25     1.416295966068   119.39657372   184.02338100
 N     32  27  26     1.145386539689   178.11393034   189.42156529
 C     25  24  23     1.410672033110   121.13626754   352.23452495
 C     34  25  24     1.409646173513   116.20072912   359.91904193
 C     23  22  15     1.407261778739   121.70448551   205.33837692
 N     36  23  22     1.333736135298   126.88926146     0.95400196
 S     37  36  23     1.602657650342   108.83104924   180.49541687
 N     35  34  25     1.334107483264   125.92271969   184.06981619
 C     34  25  24     1.435237198967   126.00679426   171.42577462
 N     40  34  25     1.365969408479   128.20673937    46.59686410
 C     41  40  34     1.443416223963   127.27155285     8.42491837
 C     42  41  40     1.525188549196   111.74766586    61.88503454
 C     41  40  34     1.410276095699   111.43428057   178.67281794
 O     44  41  40     1.214843074393   123.49062080   182.43458397
 C     44  41  40     1.444842005515   104.53204893     2.07114582
 C     40  34  25     1.392502962044   123.88761967   226.35807171
 C     47  40  34     1.451246029934   143.30553635     6.62707389
 O     48  47  40     1.211491109666   132.77149884   355.01497777
 N     48  47  40     1.410035247822   103.90197729   174.89413988
 C     50  48  47     1.444069444487   121.14663263   181.44890794
 C     51  50  48     1.526611655202   111.55764785    97.23788023
 C     50  48  47     1.371198577340   112.14868495   358.64288810
 C     53  50  48     1.419557381721   123.32848639   179.05598147
 C     54  53  50     1.356817022704   121.63076586   185.10749013
 C     55  54  53     1.423441924386   127.39871299   176.74403759
 S     56  55  54     1.737274866594   116.15491872   206.32909489
 C     57  56  55     1.735045145753    92.35963145   176.99061640
 C     58  57  56     1.382432640240   110.63133742     4.85890287
 C     56  55  54     1.389251840416   133.63147074    27.24788658
 C     60  56  55     1.498989199994   126.05413799   358.46502180
 N     61  60  56     1.503682788157   104.64935941   269.49538942
 O     62  61  60     1.205747324857   116.89395026   102.63920595
 O     62  61  60     1.202075172109   117.22074483   283.96296046
 C     61  60  56     1.537687251199   114.17600018   150.95110599
 C     65  61  60     1.523141638719   113.55389928   359.92848307
 C     59  58  57     1.498860043566   127.12557612   165.59751962
 N     67  59  58     1.484364710238   111.88616919   339.72370196
 O     68  67  59     1.204793984132   117.04357510   136.30619421
 O     68  67  59     1.205478788947   117.18884626   313.73730181
 C     58  57  56     1.429325499423   116.95089370   189.88342527
 C     71  58  57     1.349581426739   125.81352021   147.25106415
 C     72  71  58     1.428175732219   124.00146289   183.15394449
 C     73  72  71     1.355897128288   129.58754029    30.59938371
 C     74  73  72     1.495493212188   118.84111134   195.92734473
 O     75  74  73     1.206666556137   126.54129379   346.19129891
 C     75  74  73     1.475678552192   105.23960199   164.23178088
 C     77  75  74     1.365471425259   128.92549204   186.52131563
 C     78  77  75     1.412590701583   119.07578619   178.80569730
 C     79  78  77     1.425661538725   119.38605406   359.35043256
 C     80  79  78     1.409617676429   119.11662666   180.49950699
 C     81  80  79     1.366453501368   120.24718779   359.66882722
 C     82  81  80     1.410096628072   120.59590859     0.12735549
 C     83  82  81     1.366712222452   120.55331664     0.08405274
 F     83  82  81     1.338697436839   119.26695268   180.03481685
 F     82  81  80     1.338391563071   120.18774789   180.14256949
 C     80  79  78     1.413016405071   120.26759584     0.90165301
 C     87  80  79     1.369892438515   119.33902593     0.04867272
 C     74  73  72     1.452462751949   133.39436942    11.66216963
 C     89  74  73     1.368706183262   127.20297184    29.50235648
 C     90  89  74     1.409685147010   124.69068374   357.66929335
 N     91  90  89     1.147605939249   176.18896543   162.66592440
 C     90  89  74     1.411579571898   123.75477903   174.29937534
 N     93  90  89     1.147339942563   176.96361823   166.90293794
 H      1   2   3     1.078834383258   119.65548080   359.82074820
 H      6   4   2     1.078628815209   119.66740078   180.09887101
 H      9   8   1     1.077906460227   118.47852423     0.06251698
 H     12  11  10     1.079350638486   120.61603379   179.78428337
 H     22  15  13     1.082185703380   120.23808277   200.51567195
 H     42  41  40     1.092555340200   109.27315617   298.92203721
 H     42  41  40     1.093393511322   105.68594802   181.69074575
 H     43  42  41     1.088495649739   110.94082083   297.81981071
 H     43  42  41     1.086395024519   109.66792622   177.82573559
 H     43  42  41     1.087617876784   110.37494253    58.15227419
 H     51  50  48     1.093028731736   106.19395588   338.01538398
 H     51  50  48     1.092441301444   109.79682275   220.30524684
 H     52  51  50     1.087146013468   110.12845233   298.98891117
 H     52  51  50     1.085902720919   109.66014539   179.30006741
 H     52  51  50     1.087686128486   110.90473730    59.18928147
 H     54  53  50     1.077620043011   116.65320827     0.41306001
 H     55  54  53     1.083808020823   118.19745449     0.86830655
 H     61  60  56     1.092085445787   110.43803690    23.76259903
 H     65  61  60     1.089648403615   109.36047760   238.04734327
 H     65  61  60     1.092375210035   108.63471599   120.48549483
 H     66  65  61     1.092864890506   110.48060869   287.59024977
 H     66  65  61     1.091179211404   109.06355534   168.45624488
 H     67  59  58     1.095321691787   112.99739617   101.93509850
 H     71  58  57     1.082494459662   114.87342775   331.80093581
 H     72  71  58     1.080994435878   120.57963863     5.65951575
 H     73  72  71     1.086445702049   115.58845761   213.29106561
 H     78  77  75     1.079279687662   120.54919853   358.75594155
 H     81  80  79     1.078788311996   120.09518411   180.06904006
 H     84  83  82     1.078705779766   119.63962676   179.95261736
 H     87  80  79     1.078277419220   118.68422376   180.58559241

---------------------------
INTERNAL COORDINATES (A.U.)
---------------------------
 C      0   0   0     0.000000000000     0.00000000     0.00000000
 C      1   0   0     2.582393268009     0.00000000     0.00000000
 F      2   1   0     2.530233506953   120.18087689     0.00000000
 C      2   1   3     2.664195166192   120.60282791   180.04909225
 F      4   2   1     2.530440982584   119.24248636   179.92191857
 C      4   2   1     2.582889531806   120.55467300     0.09428279
 C      6   4   2     2.661348431272   120.18882460     0.09779912
 C      1   2   3     2.663737338885   120.23977737   179.85172729
 C      8   1   2     2.670433290671   120.57211961   179.84633970
 C      9   8   1     2.590067337173   119.44114981   180.11889433
 C     10   9   8     2.688948567913   119.81729230   359.39908705
 C     11  10   9     2.579857967797   122.07208319     0.49729593
 C     11  10   9     2.783821369172   109.41607172   181.20978654
 O     13  11  10     2.292488027501   126.35162391   167.79808934
 C     13  11  10     2.818030259632   105.53421980   354.39889916
 C     15  13  11     2.743277505608   108.09108109     7.00404223
 C     16  15  13     2.588875738889   126.60195806   177.73626202
 C     17  16  15     2.667564105770   124.05418854   179.16386487
 N     18  17  16     2.168848086738   176.48961479   172.12482442
 C     17  16  15     2.667310053152   125.48194491   359.39586163
 N     20  17  16     2.169556501084   175.36892417   168.24510956
 C     15  13  11     2.575893058924   124.97287348   182.67925028
 C     22  15  13     2.687632695001   124.96171055    21.86538758
 C     23  22  15     2.675174537230   122.25601904    29.99814303
 C     24  23  22     2.729141007806   122.18177272   185.31424311
 N     25  24  23     2.535656480700   118.85361047   166.65403854
 C     26  25  24     2.475427431710   119.77044381     4.63173542
 C     27  26  25     2.709614104565   120.28019999     7.28189161
 N     28  27  26     2.469533823575   120.13296528   349.88934964
 C     28  27  26     2.676430147253   121.07641020   170.56191693
 N     30  28  27     2.164315297588   177.59819445    75.61208612
 C     27  26  25     2.676411500446   119.39657372   184.02338100
 N     32  27  26     2.164466877491   178.11393034   189.42156529
 C     25  24  23     2.665783807361   121.13626754   352.23452495
 C     34  25  24     2.663845213670   116.20072912   359.91904193
 C     23  22  15     2.659339360552   121.70448551   205.33837692
 N     36  23  22     2.520396030628   126.88926146     0.95400196
 S     37  36  23     3.028584045580   108.83104924   180.49541687
 N     35  34  25     2.521097776583   125.92271969   184.06981619
 C     34  25  24     2.712205243265   126.00679426   171.42577462
 N     40  34  25     2.581308089339   128.20673937    46.59686410
 C     41  40  34     2.727661360549   127.27155285     8.42491837
 C     42  41  40     2.882188660574   111.74766586    61.88503454
 C     41  40  34     2.665035594087   111.43428057   178.67281794
 O     44  41  40     2.295720706293   123.49062080   182.43458397
 C     44  41  40     2.730355697208   104.53204893     2.07114582
 C     40  34  25     2.631449238936   123.88761967   226.35807171
 C     47  40  34     2.742457549516   143.30553635     6.62707389
 O     48  47  40     2.289386410949   132.77149884   355.01497777
 N     48  47  40     2.664580457559   103.90197729   174.89413988
 C     50  48  47     2.728895768444   121.14663263   181.44890794
 C     51  50  48     2.884877941185   111.55764785    97.23788023
 C     50  48  47     2.591189786396   112.14868495   358.64288810
 C     53  50  48     2.682574682840   123.32848639   179.05598147
 C     54  53  50     2.564012586753   121.63076586   185.10749013
 C     55  54  53     2.689915404632   127.39871299   176.74403759
 S     56  55  54     3.282973717208   116.15491872   206.32909489
 C     57  56  55     3.278760155462    92.35963145   176.99061640
 C     58  57  56     2.612419088647   110.63133742     4.85890287
 C     56  55  54     2.625305509433   133.63147074    27.24788658
 C     60  56  55     2.832679065695   126.05413799   358.46502180
 N     61  60  56     2.841548661908   104.64935941   269.49538942
 O     62  61  60     2.278532230688   116.89395026   102.63920595
 O     62  61  60     2.271592867672   117.22074483   283.96296046
 C     61  60  56     2.905807784388   114.17600018   150.95110599
 C     65  61  60     2.878320560351   113.55389928   359.92848307
 C     59  58  57     2.832434995418   127.12557612   165.59751962
 N     67  59  58     2.805042785207   111.88616919   339.72370196
 O     68  67  59     2.276730677805   117.04357510   136.30619421
 O     68  67  59     2.278024771360   117.18884626   313.73730181
 C     58  57  56     2.701033750139   116.95089370   189.88342527
 C     71  58  57     2.550339291964   125.81352021   147.25106415
 C     72  71  58     2.698861005007   124.00146289   183.15394449
 C     73  72  71     2.562274238235   129.58754029    30.59938371
 C     74  73  72     2.826072606173   118.84111134   195.92734473
 O     75  74  73     2.280269326061   126.54129379   346.19129891
 C     75  74  73     2.788628325345   105.23960199   164.23178088
 C     77  75  74     2.580367037435   128.92549204   186.52131563
 C     78  77  75     2.669409565316   119.07578619   178.80569730
 C     79  78  77     2.694109867855   119.38605406   359.35043256
 C     80  79  78     2.663791361984   119.11662666   180.49950699
 C     81  80  79     2.582222892323   120.24718779   359.66882722
 C     82  81  80     2.664696449422   120.59590859     0.12735549
 C     83  82  81     2.582711804317   120.55331664     0.08405274
 F     83  82  81     2.529771531809   119.26695268   180.03481685
 F     82  81  80     2.529193514155   120.18774789   180.14256949
 C     80  79  78     2.670214028322   120.26759584     0.90165301
 C     87  80  79     2.588721541723   119.33902593     0.04867272
 C     74  73  72     2.744756820906   133.39436942    11.66216963
 C     89  74  73     2.586479844170   127.20297184    29.50235648
 C     90  89  74     2.663918862905   124.69068374   357.66929335
 N     91  90  89     2.168660934842   176.18896543   162.66592440
 C     90  89  74     2.667498807125   123.75477903   174.29937534
 N     93  90  89     2.168158273953   176.96361823   166.90293794
 H      1   2   3     2.038701528216   119.65548080   359.82074820
 H      6   4   2     2.038313060902   119.66740078   180.09887101
 H      9   8   1     2.036948007814   118.47852423     0.06251698
 H     12  11  10     2.039677109211   120.61603379   179.78428337
 H     22  15  13     2.045034605433   120.23808277   200.51567195
 H     42  41  40     2.064630379132   109.27315617   298.92203721
 H     42  41  40     2.066214293004   105.68594802   181.69074575
 H     43  42  41     2.056958675971   110.94082083   297.81981071
 H     43  42  41     2.052989069596   109.66792622   177.82573559
 H     43  42  41     2.055299925479   110.37494253    58.15227419
 H     51  50  48     2.065524959488   106.19395588   338.01538398
 H     51  50  48     2.064414877113   109.79682275   220.30524684
 H     52  51  50     2.054408233039   110.12845233   298.98891117
 H     52  51  50     2.052058750617   109.66014539   179.30006741
 H     52  51  50     2.055428902503   110.90473730    59.18928147
 H     54  53  50     2.036406757716   116.65320827     0.41306001
 H     55  54  53     2.048100341102   118.19745449     0.86830655
 H     61  60  56     2.063742407379   110.43803690    23.76259903
 H     65  61  60     2.059137065096   109.36047760   238.04734327
 H     65  61  60     2.064289982452   108.63471599   120.48549483
 H     66  65  61     2.065215344434   110.48060869   287.59024977
 H     66  65  61     2.062029872582   109.06355534   168.45624488
 H     67  59  58     2.069858026021   112.99739617   101.93509850
 H     71  58  57     2.045618070249   114.87342775   331.80093581
 H     72  71  58     2.042783436103   120.57963863     5.65951575
 H     73  72  71     2.053084836248   115.58845761   213.29106561
 H     78  77  75     2.039543031585   120.54919853   358.75594155
 H     81  80  79     2.038614466148   120.09518411   180.06904006
 H     84  83  82     2.038458502835   119.63962676   179.95261736
 H     87  80  79     2.037649018717   118.68422376   180.58559241

---------------------
BASIS SET INFORMATION
---------------------
There are 6 groups of distinct atoms

 Group   1 Type C   : 7s4p1d contracted to 3s2p1d pattern {511/31/1}
 Group   2 Type F   : 7s4p1d contracted to 3s2p1d pattern {511/31/1}
 Group   3 Type O   : 7s4p1d contracted to 3s2p1d pattern {511/31/1}
 Group   4 Type N   : 7s4p1d contracted to 3s2p1d pattern {511/31/1}
 Group   5 Type S   : 10s7p1d contracted to 4s3p1d pattern {5311/511/1}
 Group   6 Type H   : 4s1p contracted to 2s1p pattern {31/1}

Atom   0C    basis set group =>   1
Atom   1C    basis set group =>   1
Atom   2F    basis set group =>   2
Atom   3C    basis set group =>   1
Atom   4F    basis set group =>   2
Atom   5C    basis set group =>   1
Atom   6C    basis set group =>   1
Atom   7C    basis set group =>   1
Atom   8C    basis set group =>   1
Atom   9C    basis set group =>   1
Atom  10C    basis set group =>   1
Atom  11C    basis set group =>   1
Atom  12C    basis set group =>   1
Atom  13O    basis set group =>   3
Atom  14C    basis set group =>   1
Atom  15C    basis set group =>   1
Atom  16C    basis set group =>   1
Atom  17C    basis set group =>   1
Atom  18N    basis set group =>   4
Atom  19C    basis set group =>   1
Atom  20N    basis set group =>   4
Atom  21C    basis set group =>   1
Atom  22C    basis set group =>   1
Atom  23C    basis set group =>   1
Atom  24C    basis set group =>   1
Atom  25N    basis set group =>   4
Atom  26C    basis set group =>   1
Atom  27C    basis set group =>   1
Atom  28N    basis set group =>   4
Atom  29C    basis set group =>   1
Atom  30N    basis set group =>   4
Atom  31C    basis set group =>   1
Atom  32N    basis set group =>   4
Atom  33C    basis set group =>   1
Atom  34C    basis set group =>   1
Atom  35C    basis set group =>   1
Atom  36N    basis set group =>   4
Atom  37S    basis set group =>   5
Atom  38N    basis set group =>   4
Atom  39C    basis set group =>   1
Atom  40N    basis set group =>   4
Atom  41C    basis set group =>   1
Atom  42C    basis set group =>   1
Atom  43C    basis set group =>   1
Atom  44O    basis set group =>   3
Atom  45C    basis set group =>   1
Atom  46C    basis set group =>   1
Atom  47C    basis set group =>   1
Atom  48O    basis set group =>   3
Atom  49N    basis set group =>   4
Atom  50C    basis set group =>   1
Atom  51C    basis set group =>   1
Atom  52C    basis set group =>   1
Atom  53C    basis set group =>   1
Atom  54C    basis set group =>   1
Atom  55C    basis set group =>   1
Atom  56S    basis set group =>   5
Atom  57C    basis set group =>   1
Atom  58C    basis set group =>   1
Atom  59C    basis set group =>   1
Atom  60C    basis set group =>   1
Atom  61N    basis set group =>   4
Atom  62O    basis set group =>   3
Atom  63O    basis set group =>   3
Atom  64C    basis set group =>   1
Atom  65C    basis set group =>   1
Atom  66C    basis set group =>   1
Atom  67N    basis set group =>   4
Atom  68O    basis set group =>   3
Atom  69O    basis set group =>   3
Atom  70C    basis set group =>   1
Atom  71C    basis set group =>   1
Atom  72C    basis set group =>   1
Atom  73C    basis set group =>   1
Atom  74C    basis set group =>   1
Atom  75O    basis set group =>   3
Atom  76C    basis set group =>   1
Atom  77C    basis set group =>   1
Atom  78C    basis set group =>   1
Atom  79C    basis set group =>   1
Atom  80C    basis set group =>   1
Atom  81C    basis set group =>   1
Atom  82C    basis set group =>   1
Atom  83C    basis set group =>   1
Atom  84F    basis set group =>   2
Atom  85F    basis set group =>   2
Atom  86C    basis set group =>   1
Atom  87C    basis set group =>   1
Atom  88C    basis set group =>   1
Atom  89C    basis set group =>   1
Atom  90C    basis set group =>   1
Atom  91N    basis set group =>   4
Atom  92C    basis set group =>   1
Atom  93N    basis set group =>   4
Atom  94H    basis set group =>   6
Atom  95H    basis set group =>   6
Atom  96H    basis set group =>   6
Atom  97H    basis set group =>   6
Atom  98H    basis set group =>   6
Atom  99H    basis set group =>   6
Atom 100H    basis set group =>   6
Atom 101H    basis set group =>   6
Atom 102H    basis set group =>   6
Atom 103H    basis set group =>   6
Atom 104H    basis set group =>   6
Atom 105H    basis set group =>   6
Atom 106H    basis set group =>   6
Atom 107H    basis set group =>   6
Atom 108H    basis set group =>   6
Atom 109H    basis set group =>   6
Atom 110H    basis set group =>   6
Atom 111H    basis set group =>   6
Atom 112H    basis set group =>   6
Atom 113H    basis set group =>   6
Atom 114H    basis set group =>   6
Atom 115H    basis set group =>   6
Atom 116H    basis set group =>   6
Atom 117H    basis set group =>   6
Atom 118H    basis set group =>   6
Atom 119H    basis set group =>   6
Atom 120H    basis set group =>   6
Atom 121H    basis set group =>   6
Atom 122H    basis set group =>   6
Atom 123H    basis set group =>   6
---------------------------------
AUXILIARY/J BASIS SET INFORMATION
---------------------------------
There are 6 groups of distinct atoms

 Group   1 Type C   : 12s5p4d2f1g contracted to 6s4p3d1f1g pattern {711111/2111/211/2/1}
 Group   2 Type F   : 12s5p4d2f1g contracted to 6s4p3d1f1g pattern {711111/2111/211/2/1}
 Group   3 Type O   : 12s5p4d2f1g contracted to 6s4p3d1f1g pattern {711111/2111/211/2/1}
 Group   4 Type N   : 12s5p4d2f1g contracted to 6s4p3d1f1g pattern {711111/2111/211/2/1}
 Group   5 Type S   : 14s5p5d2f1g contracted to 8s4p3d1f1g pattern {71111111/2111/311/2/1}
 Group   6 Type H   : 5s2p1d contracted to 3s1p1d pattern {311/2/1}

Atom   0C    basis set group =>   1
Atom   1C    basis set group =>   1
Atom   2F    basis set group =>   2
Atom   3C    basis set group =>   1
Atom   4F    basis set group =>   2
Atom   5C    basis set group =>   1
Atom   6C    basis set group =>   1
Atom   7C    basis set group =>   1
Atom   8C    basis set group =>   1
Atom   9C    basis set group =>   1
Atom  10C    basis set group =>   1
Atom  11C    basis set group =>   1
Atom  12C    basis set group =>   1
Atom  13O    basis set group =>   3
Atom  14C    basis set group =>   1
Atom  15C    basis set group =>   1
Atom  16C    basis set group =>   1
Atom  17C    basis set group =>   1
Atom  18N    basis set group =>   4
Atom  19C    basis set group =>   1
Atom  20N    basis set group =>   4
Atom  21C    basis set group =>   1
Atom  22C    basis set group =>   1
Atom  23C    basis set group =>   1
Atom  24C    basis set group =>   1
Atom  25N    basis set group =>   4
Atom  26C    basis set group =>   1
Atom  27C    basis set group =>   1
Atom  28N    basis set group =>   4
Atom  29C    basis set group =>   1
Atom  30N    basis set group =>   4
Atom  31C    basis set group =>   1
Atom  32N    basis set group =>   4
Atom  33C    basis set group =>   1
Atom  34C    basis set group =>   1
Atom  35C    basis set group =>   1
Atom  36N    basis set group =>   4
Atom  37S    basis set group =>   5
Atom  38N    basis set group =>   4
Atom  39C    basis set group =>   1
Atom  40N    basis set group =>   4
Atom  41C    basis set group =>   1
Atom  42C    basis set group =>   1
Atom  43C    basis set group =>   1
Atom  44O    basis set group =>   3
Atom  45C    basis set group =>   1
Atom  46C    basis set group =>   1
Atom  47C    basis set group =>   1
Atom  48O    basis set group =>   3
Atom  49N    basis set group =>   4
Atom  50C    basis set group =>   1
Atom  51C    basis set group =>   1
Atom  52C    basis set group =>   1
Atom  53C    basis set group =>   1
Atom  54C    basis set group =>   1
Atom  55C    basis set group =>   1
Atom  56S    basis set group =>   5
Atom  57C    basis set group =>   1
Atom  58C    basis set group =>   1
Atom  59C    basis set group =>   1
Atom  60C    basis set group =>   1
Atom  61N    basis set group =>   4
Atom  62O    basis set group =>   3
Atom  63O    basis set group =>   3
Atom  64C    basis set group =>   1
Atom  65C    basis set group =>   1
Atom  66C    basis set group =>   1
Atom  67N    basis set group =>   4
Atom  68O    basis set group =>   3
Atom  69O    basis set group =>   3
Atom  70C    basis set group =>   1
Atom  71C    basis set group =>   1
Atom  72C    basis set group =>   1
Atom  73C    basis set group =>   1
Atom  74C    basis set group =>   1
Atom  75O    basis set group =>   3
Atom  76C    basis set group =>   1
Atom  77C    basis set group =>   1
Atom  78C    basis set group =>   1
Atom  79C    basis set group =>   1
Atom  80C    basis set group =>   1
Atom  81C    basis set group =>   1
Atom  82C    basis set group =>   1
Atom  83C    basis set group =>   1
Atom  84F    basis set group =>   2
Atom  85F    basis set group =>   2
Atom  86C    basis set group =>   1
Atom  87C    basis set group =>   1
Atom  88C    basis set group =>   1
Atom  89C    basis set group =>   1
Atom  90C    basis set group =>   1
Atom  91N    basis set group =>   4
Atom  92C    basis set group =>   1
Atom  93N    basis set group =>   4
Atom  94H    basis set group =>   6
Atom  95H    basis set group =>   6
Atom  96H    basis set group =>   6
Atom  97H    basis set group =>   6
Atom  98H    basis set group =>   6
Atom  99H    basis set group =>   6
Atom 100H    basis set group =>   6
Atom 101H    basis set group =>   6
Atom 102H    basis set group =>   6
Atom 103H    basis set group =>   6
Atom 104H    basis set group =>   6
Atom 105H    basis set group =>   6
Atom 106H    basis set group =>   6
Atom 107H    basis set group =>   6
Atom 108H    basis set group =>   6
Atom 109H    basis set group =>   6
Atom 110H    basis set group =>   6
Atom 111H    basis set group =>   6
Atom 112H    basis set group =>   6
Atom 113H    basis set group =>   6
Atom 114H    basis set group =>   6
Atom 115H    basis set group =>   6
Atom 116H    basis set group =>   6
Atom 117H    basis set group =>   6
Atom 118H    basis set group =>   6
Atom 119H    basis set group =>   6
Atom 120H    basis set group =>   6
Atom 121H    basis set group =>   6
Atom 122H    basis set group =>   6
Atom 123H    basis set group =>   6


           ************************************************************
           *        Program running with 6 parallel MPI-processes     *
           *              working on a common directory               *
           ************************************************************
------------------------------------------------------------------------------
                           ORCA GTO INTEGRAL CALCULATION
                           -- RI-GTO INTEGRALS CHOSEN --
------------------------------------------------------------------------------

                         BASIS SET STATISTICS AND STARTUP INFO

Gaussian basis set:
 # of primitive gaussian shells          ... 1290
 # of primitive gaussian functions       ... 2490
 # of contracted shells                  ...  658
 # of contracted basis functions         ... 1474
 Highest angular momentum                ...    2
 Maximum contraction depth               ...    5
Auxiliary gaussian basis set:
 # of primitive gaussian shells          ... 2502
 # of primitive gaussian functions       ... 7074
 # of contracted shells                  ... 1564
 # of contracted aux-basis functions     ... 4940
 Highest angular momentum                ...    4
 Maximum contraction depth               ...    7
Ratio of auxiliary to basis functions    ...  3.35
Integral package used                  ... LIBINT
 One Electron integrals                  ... done
 Ordering auxiliary basis shells         ... done
 Integral threshhold             Thresh  ...  2.500e-11
 Primitive cut-off               TCut    ...  2.500e-12
 Pre-screening matrix                    ... done
 Shell pair data                         ... 
 Ordering of the shell pairs             ... done (   0.012 sec) 62725 of 216811 pairs
 Determination of significant pairs      ... done (   0.000 sec)
 Creation of shell pair data             ... done (   0.010 sec)
 Storage of shell pair data              ... done (   0.013 sec)
 Shell pair data done in (   0.034 sec)
 Computing two index integrals           ... done
 Cholesky decomposition of the V-matrix  ... done


Timings:
 Total evaluation time                   ...   3.664 sec (  0.061 min)
 One electron matrix time                ...   0.925 sec (  0.015 min) = 25.2%
 Schwartz matrix evaluation time         ...   0.963 sec (  0.016 min) = 26.3%
 Two index repulsion integral time       ...   0.700 sec (  0.012 min) = 19.1%
 Cholesky decomposition of V             ...   1.025 sec (  0.017 min) = 28.0%
 Three index repulsion integral time     ...   0.000 sec (  0.000 min) =  0.0%



           ************************************************************
           *        Program running with 6 parallel MPI-processes     *
           *              working on a common directory               *
           ************************************************************
-------------------------------------------------------------------------------
                                 ORCA SCF
-------------------------------------------------------------------------------

------------
SCF SETTINGS
------------
Hamiltonian:
 Density Functional     Method          .... DFT(GTOs)
 Exchange Functional    Exchange        .... WB88
 Correlation Functional Correlation     .... LYP
 LDA part of GGA corr.  LDAOpt          .... VWN-5
 Gradients option       PostSCFGGA      .... off
 Hybrid DFT is turned on
   Fraction HF Exchange ScalHFX         ....  0.190000
   Scaling of DF-GGA-X  ScalDFX         ....  0.350000
   Scaling of DF-GGA-C  ScalDFC         ....  0.810000
   Scaling of DF-LDA-C  ScalLDAC        ....  1.000000
   Perturbative correction              ....  0.000000
   Density functional embedding theory  .... OFF
 Long-range corrected/Screened/Range-Separated Hybrid DFT is turned on
   Amount of maximum screened exact exchange              ....  0.460000
   Range separation parameter mu (erf(mu*r12)/r12)        ....  0.330000
 RI-approximation to the Coulomb term is turned on
   Number of auxiliary basis functions  .... 4940
   RIJ-COSX (HFX calculated with COS-X)).... on


General Settings:
 Integral files         IntName         .... xtbopt
 Hartree-Fock type      HFTyp           .... RHF
 Total Charge           Charge          ....    0
 Multiplicity           Mult            ....    1
 Number of Electrons    NEL             ....  656
 Basis Dimension        Dim             .... 1474
 Nuclear Repulsion      ENuc            ....  15528.6273659927 Eh

Convergence Acceleration:
 DIIS                   CNVDIIS         .... on
   Start iteration      DIISMaxIt       ....    12
   Startup error        DIISStart       ....  0.200000
   # of expansion vecs  DIISMaxEq       ....     5
   Bias factor          DIISBfac        ....   1.050
   Max. coefficient     DIISMaxC        ....  10.000
 Newton-Raphson         CNVNR           .... off
 SOSCF                  CNVSOSCF        .... on
   Start iteration      SOSCFMaxIt      ....   150
   Startup grad/error   SOSCFStart      ....  0.003300
 Level Shifting         CNVShift        .... on
   Level shift para.    LevelShift      ....    0.2500
   Turn off err/grad.   ShiftErr        ....    0.0010
 Zerner damping         CNVZerner       .... off
 Static damping         CNVDamp         .... on
   Fraction old density DampFac         ....    0.7000
   Max. Damping (<1)    DampMax         ....    0.9800
   Min. Damping (>=0)   DampMin         ....    0.0000
   Turn off err/grad.   DampErr         ....    0.1000
 Fernandez-Rico         CNVRico         .... off

SCF Procedure:
 Maximum # iterations   MaxIter         ....   125
 SCF integral mode      SCFMode         .... Direct
   Integral package                     .... LIBINT
 Reset frequency        DirectResetFreq ....    20
 Integral Threshold     Thresh          ....  2.500e-11 Eh
 Primitive CutOff       TCut            ....  2.500e-12 Eh

Convergence Tolerance:
 Convergence Check Mode ConvCheckMode   .... Total+1el-Energy
 Convergence forced     ConvForced      .... 1
 Energy Change          TolE            ....  1.000e-08 Eh
 1-El. energy change                    ....  1.000e-05 Eh
 Orbital Gradient       TolG            ....  1.000e-05
 Orbital Rotation angle TolX            ....  1.000e-05
 DIIS Error             TolErr          ....  5.000e-07


Diagonalization of the overlap matrix:
Smallest eigenvalue                        ... 9.078e-05
Time for diagonalization                   ...    0.331 sec
Threshold for overlap eigenvalues          ... 1.000e-08
Number of eigenvalues below threshold      ... 0
Time for construction of square roots      ...    0.259 sec
Total time needed                          ...    0.594 sec

-------------------
DFT GRID GENERATION
-------------------

General Integration Accuracy     IntAcc      ...  4.670
Radial Grid Type                 RadialGrid  ... Gauss-Chebyshev
Angular Grid (max. acc.)         AngularGrid ... Lebedev-302
Angular grid pruning method      GridPruning ... 3 (G Style)
Weight generation scheme         WeightScheme... Becke
Basis function cutoff            BFCut       ...    1.0000e-11
Integration weight cutoff        WCut        ...    1.0000e-14
Grids for H and He will be reduced by one unit

# of grid points (after initial pruning)     ... 687256 (   0.0 sec)
# of grid points (after weights+screening)   ... 581607 (  10.9 sec)
nearest neighbour list constructed           ...    0.0 sec
Grid point re-assignment to atoms done       ...    0.1 sec
Grid point division into batches done        ...    1.8 sec
Reduced shell lists constructed in    3.2 sec

Total number of grid points                  ...   581607
Total number of batches                      ...     9152
Average number of points per batch           ...       63
Average number of grid points per atom       ...     4690
Average number of shells per batch           ...    91.65 (13.93%)
Average number of basis functions per batch  ...   197.80 (13.42%)
Average number of large shells per batch     ...    57.06 (62.26%)
Average number of large basis fcns per batch ...   124.54 (62.96%)
Maximum spatial batch extension              ...  18.56, 17.89, 20.69 au
Average spatial batch extension              ...   0.34,  0.32,  0.37 au

Time for grid setup =   14.564 sec

------------------------------
INITIAL GUESS: MODEL POTENTIAL
------------------------------
Loading Hartree-Fock densities                     ... done
Calculating cut-offs                               ... done
Setting up the integral package                    ... done
Initializing the effective Hamiltonian             ... done
Starting the Coulomb interaction                   ... done (   2.1 sec)
Reading the grid                                   ... done
Mapping shells                                     ... done
Starting the XC term evaluation                    ... done (   1.9 sec)
  promolecular density results
     # of electrons  =    655.986669718
     EX              =   -593.252879049
     EC              =    -22.586474776
     EX+EC           =   -615.839353825
Transforming the Hamiltonian                       ... done (   0.2 sec)
Diagonalizing the Hamiltonian                      ... done (   0.3 sec)
Back transforming the eigenvectors                 ... done (   0.1 sec)
Now organizing SCF variables                       ... done
                      ------------------
                      INITIAL GUESS DONE (  19.4 sec)
                      ------------------
--------------------
COSX GRID GENERATION
--------------------

General Integration Accuracy     IntAcc      ...  3.340
Radial Grid Type                 RadialGrid  ... Gauss-Chebyshev
Angular Grid (max. acc.)         AngularGrid ... Lebedev-50
Angular grid pruning method      GridPruning ... 3 (G Style)
Weight generation scheme         WeightScheme... Becke
Basis function cutoff            BFCut       ...    1.0000e-11
Integration weight cutoff        WCut        ...    1.0000e-14
Grids for H and He will be reduced by one unit

# of grid points (after initial pruning)     ...  64176 (   0.0 sec)
# of grid points (after weights+screening)   ...  57017 (   1.0 sec)
nearest neighbour list constructed           ...    0.0 sec
Grid point re-assignment to atoms done       ...    0.0 sec
Grid point division into batches done        ...    0.0 sec
Reduced shell lists constructed in    0.2 sec

Total number of grid points                  ...    57017
Total number of batches                      ...      954
Average number of points per batch           ...       59
Average number of grid points per atom       ...      460
Average number of shells per batch           ...   110.46 (16.79%)
Average number of basis functions per batch  ...   241.13 (16.36%)
Average number of large shells per batch     ...    68.86 (62.34%)
Average number of large basis fcns per batch ...   152.76 (63.35%)
Maximum spatial batch extension              ...  16.16, 16.92, 24.51 au
Average spatial batch extension              ...   0.69,  0.57,  0.87 au

Overlap Fitting                  UseSFitting ... on
Constructing numerical overlap ... done (      0.1 sec)
Inverting numerical overlap    ... done (      0.1 sec)
Obtaining analytic overlap     ... done (      0.0 sec)
Final contraction and storage  ... done (      0.2 sec)


General Integration Accuracy     IntAcc      ...  3.670
Radial Grid Type                 RadialGrid  ... Gauss-Chebyshev
Angular Grid (max. acc.)         AngularGrid ... Lebedev-50
Angular grid pruning method      GridPruning ... 3 (G Style)
Weight generation scheme         WeightScheme... Becke
Basis function cutoff            BFCut       ...    1.0000e-11
Integration weight cutoff        WCut        ...    1.0000e-14
Grids for H and He will be reduced by one unit

# of grid points (after initial pruning)     ...  79964 (   0.0 sec)
# of grid points (after weights+screening)   ...  70756 (   1.2 sec)
nearest neighbour list constructed           ...    0.0 sec
Grid point re-assignment to atoms done       ...    0.0 sec
Grid point division into batches done        ...    0.0 sec
Reduced shell lists constructed in    0.2 sec

Total number of grid points                  ...    70756
Total number of batches                      ...     1177
Average number of points per batch           ...       60
Average number of grid points per atom       ...      571
Average number of shells per batch           ...   108.56 (16.50%)
Average number of basis functions per batch  ...   236.08 (16.02%)
Average number of large shells per batch     ...    67.39 (62.08%)
Average number of large basis fcns per batch ...   149.16 (63.18%)
Maximum spatial batch extension              ...  17.17, 18.51, 30.12 au
Average spatial batch extension              ...   0.63,  0.55,  0.84 au

Overlap Fitting                  UseSFitting ... on
Constructing numerical overlap ... done (      0.1 sec)
Inverting numerical overlap    ... done (      0.1 sec)
Obtaining analytic overlap     ... done (      0.0 sec)
Final contraction and storage  ... done (      0.2 sec)


General Integration Accuracy     IntAcc      ...  4.010
Radial Grid Type                 RadialGrid  ... Gauss-Chebyshev
Angular Grid (max. acc.)         AngularGrid ... Lebedev-110
Angular grid pruning method      GridPruning ... 3 (G Style)
Weight generation scheme         WeightScheme... Becke
Basis function cutoff            BFCut       ...    1.0000e-11
Integration weight cutoff        WCut        ...    1.0000e-14
Grids for H and He will be reduced by one unit

# of grid points (after initial pruning)     ... 157904 (   0.0 sec)
# of grid points (after weights+screening)   ... 138077 (   2.5 sec)
nearest neighbour list constructed           ...    0.0 sec
Grid point re-assignment to atoms done       ...    0.0 sec
Grid point division into batches done        ...    0.1 sec
Reduced shell lists constructed in    0.5 sec

Total number of grid points                  ...   138077
Total number of batches                      ...     2225
Average number of points per batch           ...       62
Average number of grid points per atom       ...     1114
Average number of shells per batch           ...   102.62 (15.60%)
Average number of basis functions per batch  ...   222.72 (15.11%)
Average number of large shells per batch     ...    64.17 (62.53%)
Average number of large basis fcns per batch ...   141.30 (63.44%)
Maximum spatial batch extension              ...  17.35, 19.83, 32.72 au
Average spatial batch extension              ...   0.53,  0.47,  0.66 au

Overlap Fitting                  UseSFitting ... on
Constructing numerical overlap ... done (      0.2 sec)
Inverting numerical overlap    ... done (      0.1 sec)
Obtaining analytic overlap     ... done (      0.0 sec)
Final contraction and storage  ... done (      0.2 sec)

Time for X-Grid setup             =    7.254 sec
--------------
SCF ITERATIONS
--------------
ITER       Energy         Delta-E        Max-DP      RMS-DP      [F,P]     Damp
               ***  Starting incremental Fock matrix formation  ***
  0  -5089.5272469499   0.000000000000 0.09654986  0.00093546  0.2378094 0.7000
  1  -5090.3396346527  -0.812387702803 0.04975479  0.00064729  0.1067157 0.7000
                               ***Turning on DIIS***
  2  -5090.6663911711  -0.326756518447 0.09746081  0.00114338  0.0429193 0.0000
  3  -5091.2321381867  -0.565747015633 0.08692611  0.00045059  0.0564372 0.0000
  4  -5091.3241682110  -0.092030024303 0.01582706  0.00014785  0.0215056 0.0000
  5  -5091.3323462527  -0.008178041628 0.00591775  0.00005595  0.0052662 0.0000
                      *** Initiating the SOSCF procedure ***
                           *** Shutting down DIIS ***
                      *** Re-Reading the Fockian *** 
                      *** Removing any level shift *** 
ITER      Energy       Delta-E        Grad      Rot      Max-DP    RMS-DP
  6  -5091.33345175  -0.0011054974  0.002003  0.002003  0.003386  0.000031
               *** Restarting incremental Fock matrix formation ***
  7  -5091.33387571  -0.0004239633  0.001428  0.010016  0.002321  0.000033
  8  -5091.33419282  -0.0003171035  0.000629  0.010749  0.003648  0.000043
  9  -5091.33420351  -0.0000106945  0.001299  0.003120  0.001771  0.000015
 10  -5091.33429646  -0.0000929513  0.000260  0.001321  0.000833  0.000008
 11  -5091.33429491   0.0000015498  0.000201  0.000743  0.000568  0.000005
 12  -5091.33430292  -0.0000080093  0.000036  0.000157  0.000181  0.000001
 13  -5091.33430287   0.0000000546  0.000059  0.000179  0.000155  0.000001
 14  -5091.33430319  -0.0000003200  0.000012  0.000088  0.000043  0.000000
 15  -5091.33430316   0.0000000290  0.000013  0.000043  0.000025  0.000000
                  ***Gradient check signals convergence***
              ***Rediagonalizing the Fockian in SOSCF/NRSCF***

               *****************************************************
               *                     SUCCESS                       *
               *           SCF CONVERGED AFTER  16 CYCLES          *
               *****************************************************

Setting up the final grid:

General Integration Accuracy     IntAcc      ...  5.010
Radial Grid Type                 RadialGrid  ... Gauss-Chebyshev
Angular Grid (max. acc.)         AngularGrid ... Lebedev-434
Angular grid pruning method      GridPruning ... 3 (G Style)
Weight generation scheme         WeightScheme... Becke
Basis function cutoff            BFCut       ...    1.0000e-11
Integration weight cutoff        WCut        ...    1.0000e-14
Grids for H and He will be reduced by one unit

# of grid points (after initial pruning)     ... 1208576 (   0.1 sec)
# of grid points (after weights+screening)   ... 1018993 (  18.7 sec)
nearest neighbour list constructed           ...    0.0 sec
Grid point re-assignment to atoms done       ...    0.2 sec
Grid point division into batches done        ...    5.7 sec
Reduced shell lists constructed in    8.0 sec

Total number of grid points                  ...  1018993
Total number of batches                      ...    15988
Average number of points per batch           ...       63
Average number of grid points per atom       ...     8218
Average number of shells per batch           ...    88.45 (13.44%)
Average number of basis functions per batch  ...   190.47 (12.92%)
Average number of large shells per batch     ...    54.93 (62.10%)
Average number of large basis fcns per batch ...   119.65 (62.82%)
Maximum spatial batch extension              ...  16.77, 15.21, 22.41 au
Average spatial batch extension              ...   0.28,  0.27,  0.30 au

Final grid set up in   27.6 sec
Final integration                            ... done (   3.7 sec)
Change in XC energy                          ...    -0.000013697
Integrated number of electrons               ...   655.999998809
Previous integrated no of electrons          ...   656.000451676
Old exchange energy                            =   -165.790812440 Eh
New exchange energy                            =   -165.788805878 Eh
Exchange energy change after final integration =      0.002006563 Eh
Total energy after final integration           =  -5091.332310329 Eh
Final COS-X integration done in                =    90.946 sec

----------------
TOTAL SCF ENERGY
----------------

Total Energy       :        -5091.33231033 Eh         -138542.19551 eV

Components:
Nuclear Repulsion  :        15528.62736599 Eh          422555.43293 eV
Electronic Energy  :       -20619.95967632 Eh         -561097.62844 eV
One Electron Energy:       -37896.29762828 Eh        -1031210.68420 eV
Two Electron Energy:        17276.33795196 Eh          470113.05576 eV

Virial components:
Potential Energy   :       -10144.22409963 Eh         -276038.37127 eV
Kinetic Energy     :         5052.89178930 Eh          137496.17576 eV
Virial Ratio       :            2.00760763


DFT components:
N(Alpha)           :      327.999999404396 electrons
N(Beta)            :      327.999999404396 electrons
N(Total)           :      655.999998808793 electrons
E(XC)              :     -460.062645576495 Eh       
DFET-embed. en.    :        0.000000000000 Eh       

---------------
SCF CONVERGENCE
---------------

  Last Energy change         ...   -3.5830e-08  Tolerance :   1.0000e-08
  Last MAX-Density change    ...    6.2172e-15  Tolerance :   1.0000e-07
  Last RMS-Density change    ...    3.0764e-17  Tolerance :   5.0000e-09
  Last Orbital Gradient      ...    1.8856e-06  Tolerance :   1.0000e-05
  Last Orbital Rotation      ...    2.7884e-05  Tolerance :   1.0000e-05

             **** THE GBW FILE WAS UPDATED (xtbopt.gbw) ****
             **** DENSITY FILE WAS UPDATED (xtbopt.scfp) ****
             **** ENERGY FILE WAS UPDATED (xtbopt.en.tmp) ****
             **** THE GBW FILE WAS UPDATED (xtbopt.gbw) ****
             **** DENSITY FILE WAS UPDATED (xtbopt.scfp) ****
----------------
ORBITAL ENERGIES
----------------

  NO   OCC          E(Eh)            E(eV) 
   0   2.0000     -89.050466     -2423.1864 
   1   2.0000     -88.985799     -2421.4267 
   2   2.0000     -24.803333      -674.9330 
   3   2.0000     -24.802701      -674.9158 
   4   2.0000     -24.798336      -674.7970 
   5   2.0000     -24.797680      -674.7792 
   6   2.0000     -19.278162      -524.5855 
   7   2.0000     -19.277829      -524.5764 
   8   2.0000     -19.264187      -524.2052 
   9   2.0000     -19.263255      -524.1798 
  10   2.0000     -19.224371      -523.1217 
  11   2.0000     -19.222239      -523.0637 
  12   2.0000     -19.209279      -522.7111 
  13   2.0000     -19.201695      -522.5047 
  14   2.0000     -14.672768      -399.2663 
  15   2.0000     -14.661349      -398.9556 
  16   2.0000     -14.471729      -393.7958 
  17   2.0000     -14.468698      -393.7133 
  18   2.0000     -14.468603      -393.7107 
  19   2.0000     -14.464671      -393.6037 
  20   2.0000     -14.457148      -393.3990 
  21   2.0000     -14.454265      -393.3205 
  22   2.0000     -14.437954      -392.8767 
  23   2.0000     -14.435946      -392.8221 
  24   2.0000     -14.425704      -392.5434 
  25   2.0000     -14.425501      -392.5378 
  26   2.0000     -14.420670      -392.4064 
  27   2.0000     -14.420318      -392.3968 
  28   2.0000     -10.391172      -282.7582 
  29   2.0000     -10.389257      -282.7061 
  30   2.0000     -10.388239      -282.6783 
  31   2.0000     -10.387145      -282.6486 
  32   2.0000     -10.386651      -282.6352 
  33   2.0000     -10.384822      -282.5854 
  34   2.0000     -10.381888      -282.5055 
  35   2.0000     -10.381418      -282.4927 
  36   2.0000     -10.375330      -282.3271 
  37   2.0000     -10.375098      -282.3208 
  38   2.0000     -10.365587      -282.0620 
  39   2.0000     -10.361393      -281.9478 
  40   2.0000     -10.360444      -281.9220 
  41   2.0000     -10.359373      -281.8929 
  42   2.0000     -10.355906      -281.7985 
  43   2.0000     -10.355009      -281.7741 
  44   2.0000     -10.353671      -281.7377 
  45   2.0000     -10.353592      -281.7356 
  46   2.0000     -10.349751      -281.6310 
  47   2.0000     -10.349584      -281.6265 
  48   2.0000     -10.349369      -281.6206 
  49   2.0000     -10.346238      -281.5355 
  50   2.0000     -10.338427      -281.3229 
  51   2.0000     -10.337671      -281.3023 
  52   2.0000     -10.336077      -281.2590 
  53   2.0000     -10.331238      -281.1273 
  54   2.0000     -10.329152      -281.0705 
  55   2.0000     -10.328022      -281.0398 
  56   2.0000     -10.326665      -281.0028 
  57   2.0000     -10.325432      -280.9693 
  58   2.0000     -10.323391      -280.9138 
  59   2.0000     -10.322717      -280.8954 
  60   2.0000     -10.322653      -280.8937 
  61   2.0000     -10.322561      -280.8912 
  62   2.0000     -10.321598      -280.8650 
  63   2.0000     -10.320706      -280.8407 
  64   2.0000     -10.319714      -280.8137 
  65   2.0000     -10.317866      -280.7634 
  66   2.0000     -10.317540      -280.7545 
  67   2.0000     -10.317358      -280.7496 
  68   2.0000     -10.316973      -280.7391 
  69   2.0000     -10.316010      -280.7129 
  70   2.0000     -10.316005      -280.7128 
  71   2.0000     -10.313290      -280.6389 
[...]
  70   4.970     249.5   0.051238   0.043095  47.818911  46.892110     0.14 ( 123-> 134)    0.11 ( 101-> 129)    0.06 ( 119-> 132)

-----------------------------------------------------------------------------
         ABSORPTION SPECTRUM VIA TRANSITION ELECTRIC DIPOLE MOMENTS
-----------------------------------------------------------------------------
State   Energy  Wavelength   fosc         T2         TX        TY        TZ  
        (cm-1)    (nm)                  (au**2)     (au)      (au)      (au) 
-----------------------------------------------------------------------------
   0    8448.8   1183.6   0.523190593  20.38636   0.61930  -4.41864   0.69167
   1   18097.8    552.6   0.460295983   8.37311   1.18114  -2.63407  -0.19929
   2   18392.3    543.7   0.041163554   0.73681   0.13776   0.77484   0.34272
   3   20408.2    490.0   0.158363319   2.55461   0.23010  -1.58053  -0.06004
   4   21187.9    472.0   0.015131965   0.23512  -0.40830  -0.25475   0.05921
   5   21618.7    462.6   0.263453510   4.01190  -1.26402   0.38565   1.50513
   6   21678.3    461.3   0.046292627   0.70301  -0.05147   0.81315  -0.19788
   7   22265.0    449.1   0.116550562   1.72332   0.28557  -1.27970   0.06440
   8   23447.4    426.5   0.043445232   0.60999  -0.31505   0.66136  -0.27081
   9   24203.6    413.2   0.036029350   0.49006  -0.60278   0.08542  -0.34558
  10   24767.6    403.8   0.027325729   0.36322  -0.45569   0.23986   0.31310
  11   25329.8    394.8   0.087431239   1.13635   1.02746  -0.04468  -0.28048
  12   25465.6    392.7   0.070623217   0.91300   0.82128  -0.37134   0.31717
  13   26309.2    380.1   0.011054963   0.13833   0.08140  -0.29382  -0.21302
  14   26687.1    374.7   0.067853916   0.83705   0.59347  -0.41304  -0.56057
  15   26717.3    374.3   0.030979789   0.38174  -0.09204  -0.23110  -0.56556
  16   28094.5    355.9   0.016092085   0.18857  -0.01887   0.34422  -0.26406
  17   28123.7    355.6   0.033077995   0.38721   0.17534  -0.38160   0.45918
  18   28160.7    355.1   0.011498283   0.13442  -0.28097  -0.14929   0.18218
  19   28434.3    351.7   0.025126719   0.29092   0.27191  -0.34573  -0.31217
  20   28681.5    348.7   0.039211885   0.45008   0.10869  -0.59709  -0.28592
  21   29166.7    342.9   0.000225239   0.00254   0.04997   0.00646   0.00185
  22   29455.8    339.5   0.095695178   1.06953  -0.07140   0.92141   0.46416
  23   29661.5    337.1   0.144547989   1.60433   0.94904  -0.79573   0.26545
  24   29790.5    335.7   0.386640427   4.27273   0.03839   0.49791   2.00583
  25   29927.2    334.1   0.058189307   0.64011  -0.43730   0.43372   0.51064
  26   30181.9    331.3   0.229523946   2.50355   1.00819  -1.20151   0.20848
  27   30266.9    330.4   0.012529828   0.13629   0.12676   0.29891   0.17570
  28   30362.3    329.4   0.165105444   1.79020  -0.82547  -0.85284  -0.61763
  29   30718.2    325.5   0.153516316   1.64526   0.93080  -0.69938   0.53828
  30   30982.4    322.8   0.118799787   1.26234  -0.11072  -0.64131  -0.91586
  31   31327.3    319.2   0.013444891   0.14129   0.16789  -0.27888   0.18795
  32   31862.6    313.8   0.010380341   0.10725   0.20628   0.14660   0.20787
  33   32060.2    311.9   0.019803807   0.20336   0.38559  -0.19807   0.12427
  34   32132.9    311.2   0.063632594   0.65194  -0.19591   0.76590   0.16417
  35   32964.3    303.4   0.022337431   0.22308   0.32839  -0.26145  -0.21653
  36   33227.8    301.0   0.209138912   2.07209  -0.73036   0.80020   0.94781
  37   33502.3    298.5   0.045129000   0.44346   0.34900  -0.50443  -0.25925
  38   33785.5    296.0   0.151183501   1.47316  -0.89190   0.72096   0.39735
  39   33799.9    295.9   0.122546573   1.19361  -0.45009  -0.74826  -0.65661
  40   34094.1    293.3   0.118620351   1.14540  -0.40101  -0.69787   0.70539
  41   34294.4    291.6   0.109737466   1.05343   0.20181  -0.92679  -0.39214
  42   34652.9    288.6   0.606675305   5.76358   2.26280  -0.43844  -0.67165
  43   34710.1    288.1   0.385772752   3.65891   0.58833   0.74922   1.65875
  44   35020.8    285.5   0.078408551   0.73708   0.22662  -0.28114  -0.77890
  45   35153.1    284.5   0.140108113   1.31213  -0.57322   0.32128  -0.93826
  46   35702.2    280.1   0.076250769   0.70311  -0.47084  -0.03028  -0.69318
  47   35967.1    278.0   0.018884097   0.17285   0.25313  -0.18409   0.27365
  48   36063.6    277.3   0.044144782   0.40298   0.55670  -0.25237   0.17139
  49   36381.1    274.9   0.063487422   0.57450  -0.40293   0.34213  -0.54322
  50   36509.1    273.9   0.077809007   0.70162   0.71915   0.37460   0.21006
  51   36607.5    273.2   0.033148893   0.29811   0.27824   0.23590  -0.40625
  52   37077.4    269.7   0.011535676   0.10243  -0.26959   0.15027   0.08464
  53   37198.3    268.8   0.098079089   0.86802   0.56108  -0.46410   0.58122
  54   37265.0    268.3   0.083273614   0.73567   0.11130   0.05035   0.84897
  55   37529.1    266.5   0.069945740   0.61358   0.51320  -0.12754   0.57787
  56   37794.3    264.6   0.003316308   0.02889   0.10166   0.00071  -0.13620
  57   37854.3    264.2   0.028811464   0.25057  -0.46261  -0.09770  -0.16435
  58   38020.4    263.0   0.056631231   0.49036   0.17986   0.55712   0.38422
  59   38089.2    262.5   0.091502882   0.79088   0.35561   0.78342   0.22512
  60   38348.0    260.8   0.015977134   0.13716   0.17607   0.19619   0.26014
  61   38467.2    260.0   0.040198311   0.34403   0.33073   0.15079   0.46034
  62   38559.7    259.3   0.006706654   0.05726   0.07665  -0.21451   0.07329
  63   38694.9    258.4   0.065522992   0.55746   0.05651  -0.74058  -0.07621
  64   38795.8    257.8   0.001610712   0.01367   0.09638  -0.03334   0.05716
  65   39109.9    255.7   0.026901406   0.22645   0.23971  -0.14785   0.38357
  66   39301.3    254.4   0.228152208   1.91114  -0.11264  -1.37784  -0.00200
  67   39462.9    253.4   0.107030877   0.89288   0.50203   0.78378   0.16291
  68   39646.8    252.2   0.049506218   0.41108  -0.32929  -0.48868  -0.25266
  69   39869.9    250.8   0.027240607   0.22493  -0.26487   0.28252  -0.27377
  70   40085.9    249.5   0.051238287   0.42080  -0.03314  -0.62076   0.18535

-----------------------------------------------------------------------------
         ABSORPTION SPECTRUM VIA TRANSITION VELOCITY DIPOLE MOMENTS
-----------------------------------------------------------------------------
State   Energy  Wavelength   fosc         P2         PX        PY        PZ  
        (cm-1)    (nm)                  (au**2)     (au)      (au)      (au) 
-----------------------------------------------------------------------------
   0    8448.8   1183.6   1.194508323   0.06898   0.03203  -0.25616   0.04827
   1   18097.8    552.6   0.495154913   0.06125   0.09855  -0.22662  -0.01325
   2   18392.3    543.7   0.055137794   0.00693   0.01305   0.07522   0.03322
   3   20408.2    490.0   0.168064015   0.02344   0.02051  -0.15159  -0.00636
   4   21187.9    472.0   0.017696912   0.00256  -0.04193  -0.02760   0.00651
   5   21618.7    462.6   0.287394190   0.04246  -0.12598   0.02618   0.16095
   6   21678.3    461.3   0.045575948   0.00675  -0.00198   0.07852  -0.02416
   7   22265.0    449.1   0.111216551   0.01692   0.02798  -0.12684   0.00733
   8   23447.4    426.5   0.046430179   0.00744  -0.03438   0.07234  -0.03201
   9   24203.6    413.2   0.036794311   0.00609  -0.06696   0.00978  -0.03883
  10   24767.6    403.8   0.027165594   0.00460  -0.05158   0.02470   0.03644
  11   25329.8    394.8   0.088211369   0.01527   0.11894  -0.00975  -0.03209
  12   25465.6    392.7   0.071616458   0.01246   0.09921  -0.03951   0.03257
  13   26309.2    380.1   0.012708211   0.00229   0.01503  -0.03665  -0.02676
  14   26687.1    374.7   0.065830316   0.01201   0.06918  -0.05191  -0.06728
  15   26717.3    374.3   0.029686893   0.00542  -0.00999  -0.02744  -0.06759
  16   28094.5    355.9   0.016262024   0.00312  -0.00071   0.04596  -0.03178
  17   28123.7    355.6   0.034430947   0.00662   0.02509  -0.05051   0.05863
  18   28160.7    355.1   0.011692272   0.00225  -0.03667  -0.01670   0.02504
  19   28434.3    351.7   0.023194875   0.00451   0.03453  -0.04233  -0.03903
  20   28681.5    348.7   0.038358442   0.00752   0.00965  -0.07660  -0.03948
  21   29166.7    342.9   0.000421505   0.00008   0.00841  -0.00339  -0.00137
  22   29455.8    339.5   0.086271070   0.01737  -0.00977   0.11638   0.06106
  23   29661.5    337.1   0.131674675   0.02669   0.12116  -0.10362   0.03573
  24   29790.5    335.7   0.367154471   0.07475   0.00505   0.06340   0.26591
  25   29927.2    334.1   0.055544068   0.01136  -0.05756   0.05799   0.06845
  26   30181.9    331.3   0.209482569   0.04321   0.13519  -0.15526   0.02876
  27   30266.9    330.4   0.011423861   0.00236   0.01858   0.03859   0.02299
  28   30362.3    329.4   0.158374001   0.03286  -0.11250  -0.11537  -0.08305
  29   30718.2    325.5   0.143289093   0.03008   0.12619  -0.09279   0.07449
  30   30982.4    322.8   0.113752196   0.02409  -0.01629  -0.09146  -0.12433
  31   31327.3    319.2   0.012601986   0.00270   0.02292  -0.03859   0.02614
  32   31862.6    313.8   0.008852142   0.00193   0.02947   0.02020   0.02552
  33   32060.2    311.9   0.018329046   0.00402   0.05571  -0.02667   0.01417
  34   32132.9    311.2   0.058298710   0.01280  -0.02548   0.10789   0.02265
  35   32964.3    303.4   0.020783137   0.00468   0.04791  -0.03721  -0.03167
  36   33227.8    301.0   0.192103418   0.04363  -0.10597   0.11254   0.14047
  37   33502.3    298.5   0.039547162   0.00906   0.04855  -0.07308  -0.03684
  38   33785.5    296.0   0.138568717   0.03200  -0.12978   0.10825   0.05862
  39   33799.9    295.9   0.113455005   0.02621  -0.06622  -0.11279  -0.09540
  40   34094.1    293.3   0.104278184   0.02430  -0.05756  -0.10092   0.10393
  41   34294.4    291.6   0.097586933   0.02287   0.03124  -0.13589  -0.05857
  42   34652.9    288.6   0.543068676   0.12862   0.33835  -0.06324  -0.10067
  43   34710.1    288.1   0.341382442   0.08098   0.08622   0.10542   0.24987
  44   35020.8    285.5   0.069261622   0.01658   0.03526  -0.03909  -0.11750
  45   35153.1    284.5   0.130253643   0.03129  -0.08993   0.05154  -0.14336
  46   35702.2    280.1   0.070316751   0.01716  -0.07381  -0.00253  -0.10818
  47   35967.1    278.0   0.017640485   0.00434   0.03934  -0.02945   0.04383
  48   36063.6    277.3   0.039955526   0.00985   0.08738  -0.03881   0.02658
  49   36381.1    274.9   0.054873697   0.01364  -0.06283   0.05185  -0.08372
  50   36509.1    273.9   0.068409541   0.01707   0.11278   0.05747   0.03236
  51   36607.5    273.2   0.028478813   0.00713   0.04202   0.03519  -0.06420
  52   37077.4    269.7   0.010871454   0.00275  -0.04222   0.02619   0.01693
  53   37198.3    268.8   0.088749812   0.02256   0.09088  -0.07325   0.09454
  54   37265.0    268.3   0.075058705   0.01912   0.01950   0.00248   0.13686
  55   37529.1    266.5   0.063696665   0.01634   0.08397  -0.02278   0.09364
  56   37794.3    264.6   0.002484840   0.00064   0.01448   0.00299  -0.02058
  57   37854.3    264.2   0.024744958   0.00640  -0.07414  -0.01339  -0.02695
  58   38020.4    263.0   0.050526569   0.01313   0.03066   0.08982   0.06421
  59   38089.2    262.5   0.078746321   0.02050   0.05216   0.12759   0.03872
  60   38348.0    260.8   0.013940462   0.00365   0.02693   0.03201   0.04363
  61   38467.2    260.0   0.037440777   0.00984   0.05553   0.02500   0.07832
  62   38559.7    259.3   0.005418916   0.00143   0.01030  -0.03453   0.01139
  63   38694.9    258.4   0.054826292   0.01450   0.01028  -0.11915  -0.01402
  64   38795.8    257.8   0.001546213   0.00041   0.01573  -0.00753   0.01028
  65   39109.9    255.7   0.024667930   0.00659   0.04021  -0.02478   0.06605
  66   39301.3    254.4   0.187946758   0.05048  -0.01722  -0.22402  -0.00125
  67   39462.9    253.4   0.083772939   0.02259   0.08235   0.12239   0.02889
  68   39646.8    252.2   0.040838581   0.01107  -0.05707  -0.07836  -0.04084
  69   39869.9    250.8   0.022717751   0.00619  -0.04176   0.04683  -0.04747
  70   40085.9    249.5   0.043094857   0.01181  -0.00424  -0.10377   0.03195

-------------------------------------------------------------------
                             CD SPECTRUM
-------------------------------------------------------------------
State   Energy Wavelength       R         MX        MY        MZ   
        (cm-1)   (nm)       (1e40*cgs)   (au)      (au)      (au)  
-------------------------------------------------------------------
   0    8448.8   1183.6    -165.90865   0.22129  -0.58237  -2.90095
   1   18097.8    552.6    135.64868  -2.23981  -0.36025  -5.62574
   2   18392.3    543.7    100.59150  -0.10074  -0.36103  -0.38843
   3   20408.2    490.0    -20.62623  -0.23179  -0.05183  -0.98142
   4   21187.9    472.0     30.02875   0.32130   0.07683   0.39467
   5   21618.7    462.6    -428.76297   4.04995  -0.96523   4.85697
   6   21678.3    461.3    -13.89443  -0.10571   0.28907   0.91749
   7   22265.0    449.1     38.22547  -1.02551  -0.20579  -2.05967
   8   23447.4    426.5    -58.84104  -0.40780   0.43796   0.62222
   9   24203.6    413.2    -50.87404  -0.32714   0.55790   0.08400
  10   24767.6    403.8     10.66679   0.97882  -0.16608   1.40727
  11   25329.8    394.8     72.82131  -1.61071  -0.13795  -4.77695
  12   25465.6    392.7     87.43222   0.18080  -0.48092  -2.20065
  13   26309.2    380.1     46.39069  -1.04204   0.11674   0.36466
  14   26687.1    374.7    226.62511  -3.12346  -0.05653  -1.55011
  15   26717.3    374.3    -245.94708  -2.76295   0.19049  -1.47305
  16   28094.5    355.9     23.98760   0.15509   0.41036   0.90924
  17   28123.7    355.6     22.05912   0.89488  -0.35792  -0.84296
  18   28160.7    355.1      8.67877   0.87327  -0.02142   1.12717
  19   28434.3    351.7     39.71563  -1.84801   0.28225  -1.38257
  20   28681.5    348.7     23.82956  -1.26245   0.37790  -0.91551
  21   29166.7    342.9     -1.06855   0.07926   0.18229  -0.32650
  22   29455.8    339.5     14.21484   0.78116  -0.74025   1.45970
  23   29661.5    337.1    258.87558  -1.19451  -0.88410  -2.51678
  24   29790.5    335.7    -919.02307   6.06798  -1.78344   2.27028
  25   29927.2    334.1     66.34611   2.81355   0.14774   1.73277
  26   30181.9    331.3    158.29864  -1.02328  -0.74156  -2.54643
  27   30266.9    330.4     81.87220  -0.62373  -0.39029  -0.86282
  28   30362.3    329.4    -78.95133  -1.32427   0.93109  -0.05807
  29   30718.2    325.5    330.48432  -0.66028  -1.16415  -2.97542
  30   30982.4    322.8    -102.37464  -3.27540   0.83878  -0.66556
  31   31327.3    319.2    -10.68760   0.26073  -0.36517  -0.53351
  32   31862.6    313.8    -23.56036   0.97672  -0.08184  -0.43070
  33   32060.2    311.9    -19.63672   0.21145  -0.53551  -0.83928
  34   32132.9    311.2    -22.30791   1.21754   0.32820   0.49828
  35   32964.3    303.4      8.26952  -1.31640  -0.09889  -1.71505
  36   33227.8    301.0    188.07953   5.08651  -0.23158   3.27323
  37   33502.3    298.5     65.60568  -1.06143   0.34785  -1.03215
  38   33785.5    296.0    486.51837   2.82119   0.41325   0.38838
  39   33799.9    295.9    -363.46195  -3.24748  -0.03464  -0.08277
  40   34094.1    293.3    -70.78586   3.16989  -0.35542   1.87615
  41   34294.4    291.6     22.21088  -2.24738   0.47055  -2.02842
  42   34652.9    288.6    2941.58360  -7.15061  -1.30478  -4.65910
  43   34710.1    288.1    -2449.99331   6.66704  -1.51469   4.58541
  44   35020.8    285.5    -69.58265  -4.30575  -0.02531  -1.62260
  45   35153.1    284.5    -74.49293  -2.35557   1.22740   1.52258
  46   35702.2    280.1    -32.34573  -1.32427   1.05605   0.65542
  47   35967.1    278.0    -65.42338   0.83309  -0.05269   0.20818
  48   36063.6    277.3     92.66390  -0.52618  -0.50605  -1.32965
  49   36381.1    274.9    -233.83338  -1.24831   0.57704  -0.53676
  50   36509.1    273.9    284.05606  -0.96502  -0.97038  -0.70240
  51   36607.5    273.2    -55.32464  -1.82591   0.20488  -1.70930
  52   37077.4    269.7     16.83024   0.32730  -0.32929   0.78360
  53   37198.3    268.8    205.64317   0.80248  -0.92847  -3.01704
  54   37265.0    268.3    -355.39536   2.66229  -1.10977   1.49270
  55   37529.1    266.5     30.96435   1.43599  -1.18384  -1.76391
  56   37794.3    264.6     -7.04925  -0.73170   0.28999  -0.76418
  57   37854.3    264.2     55.59392  -0.14958   0.59341   1.50329
  58   38020.4    263.0    -50.74808   0.88399  -0.62476   1.05241
  59   38089.2    262.5     30.98617   0.46059  -0.47318   0.33518
  60   38348.0    260.8     43.63113   0.53557  -0.48245  -0.71018
  61   38467.2    260.0    -29.56630   1.08868  -0.79173  -0.25036
  62   38559.7    259.3      2.17376  -0.10734  -0.22805  -0.68099
  63   38694.9    258.4    -24.91644  -0.37686   0.01789  -1.84026
  64   38795.8    257.8     -3.62115   0.51557   0.03182  -0.58201
  65   39109.9    255.7    -45.35568   0.74727  -0.57770  -0.18805
  66   39301.3    254.4     27.80551   0.99007   0.00307   1.10324
  67   39462.9    253.4     22.15558   0.05499  -0.42545   1.30046
  68   39646.8    252.2     38.62030  -0.33717   0.62789  -0.12656
  69   39869.9    250.8    -21.68225  -0.22890   0.40998   0.30856
  70   40085.9    249.5     47.81891  -0.13144  -0.36018  -2.32423

sTD-DFT done

Total run time:        5.651 sec

           *** ORCA-CIS/TD-DFT FINISHED WITHOUT ERROR ***

-------------------------   --------------------
FINAL SINGLE POINT ENERGY     -5091.332310328853
-------------------------   --------------------


                            ***************************************
                            *     ORCA property calculations      *
                            ***************************************

                                    ---------------------
                                    Active property flags
                                    ---------------------
   (+) Dipole Moment


------------------------------------------------------------------------------
                       ORCA ELECTRIC PROPERTIES CALCULATION
------------------------------------------------------------------------------

Dipole Moment Calculation                       ... on
Quadrupole Moment Calculation                   ... off
Polarizability Calculation                      ... off
GBWName                                         ... xtbopt.gbw
Electron density file                           ... xtbopt.scfp
The origin for moment calculation is the CENTER OF MASS  = (-8.333831, -20.741664  0.434707)

-------------
DIPOLE MOMENT
-------------
                                X             Y             Z
Electronic contribution:     11.07555      52.52216     -38.74441
Nuclear contribution   :    -12.15967     -55.81216      40.03451
                        -----------------------------------------
Total Dipole Moment    :     -1.08412      -3.28999       1.29009
                        -----------------------------------------
Magnitude (a.u.)       :      3.69645
Magnitude (Debye)      :      9.39562



--------------------
Rotational spectrum 
--------------------
 
Rotational constants in cm-1:     0.000973     0.000176     0.000164 
Rotational constants in MHz :    29.179671     5.266225     4.917657 

 Dipole components along the rotational axes: 
x,y,z [a.u.] :    -2.625690     2.369537    -1.074603 
x,y,z [Debye]:    -6.673973     6.022885    -2.731424 

 

Timings for individual modules:

Sum of individual times         ...      904.482 sec (=  15.075 min)
GTO integral calculation        ...        4.324 sec (=   0.072 min)   0.5 %
SCF iterations                  ...      893.823 sec (=  14.897 min)  98.8 %
CIS module                      ...        6.335 sec (=   0.106 min)   0.7 %
                             ****ORCA TERMINATED NORMALLY****
TOTAL RUN TIME: 0 days 0 hours 15 minutes 5 seconds 690 msec
