
                                 *****************
                                 * O   R   C   A *
                                 *****************

           --- An Ab Initio, DFT and Semiempirical electronic structure package ---

                  #######################################################
                  #                        -***-                        #
                  #          Department of theory and spectroscopy      #
                  #               Directorship: Frank Neese             #
                  #        Max Planck Institute fuer Kohlenforschung    #
                  #                Kaiser Wilhelm Platz 1               #
                  #                 D-45470 Muelheim/Ruhr               #
                  #                      Germany                        #
                  #                                                     #
                  #                  All rights reserved                #
                  #                        -***-                        #
                  #######################################################


                         Program Version 4.2.0 -  RELEASE  -


 With contributions from (in alphabetic order):
   Daniel Aravena         : Magnetic Suceptibility
   Michael Atanasov       : Ab Initio Ligand Field Theory (pilot matlab implementation)
   Alexander A. Auer      : GIAO ZORA, VPT2
   Ute Becker             : Parallelization
   Giovanni Bistoni       : ED, misc. LED, open-shell LED, HFLED
   Martin Brehm           : Molecular dynamics
   Dmytro Bykov           : SCF Hessian
   Vijay G. Chilkuri      : MRCI spin determinant printing, contributions to CSF-ICE
   Dipayan Datta          : RHF DLPNO-CCSD density
   Achintya Kumar Dutta   : EOM-CC, STEOM-CC
   Dmitry Ganyushin       : Spin-Orbit,Spin-Spin,Magnetic field MRCI
   Miquel Garcia          : C-PCM Hessian, Gaussian charge scheme
   Yang Guo               : DLPNO-NEVPT2, CIM, IAO-localization
   Andreas Hansen         : Spin unrestricted coupled pair/coupled cluster methods
   Benjamin Helmich-Paris : CASSCF linear response (MC-RPA)
   Lee Huntington         : MR-EOM, pCC
   Robert Izsak           : Overlap fitted RIJCOSX, COSX-SCS-MP3, EOM
   Christian Kollmar      : KDIIS, OOCD, Brueckner-CCSD(T), CCSD density
   Simone Kossmann        : Meta GGA functionals, TD-DFT gradient, OOMP2, MP2 Hessian
   Martin Krupicka        : AUTO-CI
   Lucas Lang             : DCDCAS
   Dagmar Lenk            : GEPOL surface, SMD
   Dimitrios Liakos       : Extrapolation schemes; Compound Job, initial MDCI parallelization
   Dimitrios Manganas     : Further ROCIS development; embedding schemes
   Dimitrios Pantazis     : SARC Basis sets
   Taras Petrenko         : DFT Hessian,TD-DFT gradient, ASA, ECA, R-Raman, ABS, FL, XAS/XES, NRVS
   Peter Pinski           : DLPNO-MP2, DLPNO-MP2 Gradient
   Christoph Reimann      : Effective Core Potentials
   Marius Retegan         : Local ZFS, SOC
   Christoph Riplinger    : Optimizer, TS searches, QM/MM, DLPNO-CCSD(T), (RO)-DLPNO pert. Triples
   Tobias Risthaus        : Range-separated hybrids, TD-DFT gradient, RPA, STAB
   Michael Roemelt        : Original ROCIS implementation
   Masaaki Saitow         : Open-shell DLPNO-CCSD energy and density
   Barbara Sandhoefer     : DKH picture change effects
   Avijit Sen             : IP-ROCIS
   Kantharuban Sivalingam : CASSCF convergence, NEVPT2, FIC-MRCI
   Bernardo de Souza      : ESD, SOC TD-DFT
   Georgi Stoychev        : AutoAux, RI-MP2 NMR
   Willem Van den Heuvel  : Paramagnetic NMR
   Boris Wezisla          : Elementary symmetry handling
   Frank Wennmohs         : Technical directorship


 We gratefully acknowledge several colleagues who have allowed us to
 interface, adapt or use parts of their codes:
   Stefan Grimme, W. Hujo, H. Kruse,             : VdW corrections, initial TS optimization,
                  C. Bannwarth                     DFT functionals, gCP, sTDA/sTD-DF
   Ed Valeev, F. Pavosevic, A. Kumar             : LibInt (2-el integral package), F12 methods
   Garnet Chan, S. Sharma, J. Yang, R. Olivares  : DMRG
   Ulf Ekstrom                                   : XCFun DFT Library
   Mihaly Kallay                                 : mrcc  (arbitrary order and MRCC methods)
   Andreas Klamt, Michael Diedenhofen            : otool_cosmo (COSMO solvation model)
   Jiri Pittner, Ondrej Demel                    : Mk-CCSD
   Frank Weinhold                                : gennbo (NPA and NBO analysis)
   Christopher J. Cramer and Donald G. Truhlar   : smd solvation model
   Lars Goerigk                                  : TD-DFT with DH, B97 family of functionals
   V. Asgeirsson, H. Jonsson                     : NEB implementation
   FAccTs GmbH                                   : IRC, NEB, NEB-TS, Multilevel, MM, QM/MM, CI optimization
   S Lehtola, MJT Oliveira, MAL Marques          : LibXC Library


 Your calculation uses the libint2 library for the computation of 2-el integrals
 For citations please refer to: http://libint.valeyev.net

 Your ORCA version has been built with support for libXC version: 4.2.3
 For citations please refer to: https://tddft.org/programs/libxc/

 This ORCA versions uses:
   CBLAS   interface :  Fast vector & matrix operations
   LAPACKE interface :  Fast linear algebra routines
   SCALAPACK package :  Parallel linear algebra routines


XCFun DFT library Copyright 2009-2010 Ulf Ekstrom and contributors.
See http://admol.org/xcfun for more information. This is free soft-
ware; see the source code for copying conditions. There is ABSOLUTELY
NO WARRANTY; not even for MERCHANTABILITY or FITNESS FOR A PARTICULAR
PURPOSE. For details see the documentation. Scientific users of this 
library should cite U. Ekstrom, L. Visscher, R. Bast, A. J. Thorvald-
sen and K. Ruud; J.Chem.Theor.Comp. 2010, DOI: 10.1021/ct100117s
XCFun Version 0.99 
----- Orbital basis set information -----
Your calculation utilizes the basis: def2-SVP
   F. Weigend and R. Ahlrichs, Phys. Chem. Chem. Phys. 7, 3297 (2005).

----- AuxJ basis set information -----
Your calculation utilizes the auxiliary basis: def2/J
   F. Weigend, Phys. Chem. Chem. Phys. 8, 1057 (2006).

================================================================================
                                        WARNINGS
                       Please study these warnings very carefully!
================================================================================

INFO   : Checking CIS options ...

WARNING: CIS/ROCIS methods need fully converged wavefunctions
  ===> : Setting SCFConvForced true
         You can overwrite this default with %scf ConvForced false 


INFO   : the flag for use of LIBINT has been found!

================================================================================
                                       INPUT FILE
================================================================================
NAME = xtbopt.inp
|  1> # ORCA input file
|  2> # SCF done       -199.339974454776          0.000415228265
|  3> ! CAM-B3LYP def2-SVP def2/J RIJCOSX Grid4 TightSCF
|  4> %maxcore 5000
|  5> %tddft
|  6>     Mode sTDDFT
|  7>     Ethresh 5.0
|  8>     maxcore 5000
|  9> end
| 10> 
| 11> %pal
| 12>   nprocs 6
| 13>   end
| 14> * xyz 0 1
| 15>    C        2.69873         1.24798         0.64687
| 16>    C        3.75055         1.50860         1.47988
| 17>    F        4.42397         2.66097         1.37381
| 18>    C        4.14027         0.57162         2.45815
| 19>    F        5.17506         0.85338         3.26062
| 20>    C        3.47260        -0.61379         2.58955
| 21>    C        2.38565        -0.91192         1.74515
| 22>    C        1.98997         0.03468         0.75611
| 23>    C        0.90267        -0.24274        -0.10417
| 24>    C        0.23313        -1.43187         0.01803
| 25>    C        0.63873        -2.37152         1.00643
| 26>    C        1.68118        -2.13132         1.85423
| 27>    C       -0.22295        -3.56327         0.92304
| 28>    O       -0.15775        -4.55035         1.63169
| 29>    C       -1.15952        -3.31439        -0.18305
| 30>    C       -0.89984        -1.98973        -0.71807
| 31>    C       -1.58217        -1.34593        -1.71749
| 32>    C       -2.68971        -1.85645        -2.42734
| 33>    N       -3.59400        -2.19367        -3.04988
| 34>    C       -1.26967        -0.04823        -2.17673
| 35>    N       -1.06844         1.00094        -2.59638
| 36>    C       -2.09422        -4.19921        -0.65500
| 37>    C       -2.41607        -5.50057        -0.23561
| 38>    C       -3.38927        -6.25566        -0.90195
| 39>    C       -3.55231        -7.50909        -0.35007
| 40>    C       -2.71280        -7.73930         0.76045
| 41>    S       -1.70524        -6.38065         1.10913
| 42>    C       -2.87037        -9.00083         1.31679
| 43>    C       -3.82288        -9.75403         0.64222
| 44>    S       -4.54209        -8.88929        -0.70332
| 45>    C       -4.21769       -11.08510         0.94030
| 46>    C       -5.17882       -11.75436         0.14759
| 47>    C       -5.58679       -13.10860         0.40756
| 48>    N       -6.48624       -13.69142        -0.39296
| 49>    C       -6.99708       -13.02966        -1.40067
| 50>    C       -6.60080       -11.67473        -1.65153
| 51>    N       -5.71629       -11.09124        -0.88230
| 52>    C       -7.15835       -10.95550        -2.73834
| 53>    N       -7.62593       -10.40513        -3.62672
| 54>    C       -7.93884       -13.67024        -2.24445
| 55>    N       -8.69766       -14.16144        -2.94724
| 56>    C       -5.06850       -13.86607         1.48276
| 57>    C       -4.11339       -13.19914         2.28515
| 58>    C       -3.69500       -11.83865         2.01803
| 59>    N       -2.78648       -11.42679         2.90356
| 60>    S       -2.48852       -12.60145         3.95090
| 61>    N       -3.48560       -13.70163         3.34956
| 62>    C       -5.49787       -15.20067         1.70833
| 63>    C       -5.07044       -16.04966         2.72023
| 64>    C       -5.69090       -17.28812         2.64678
| 65>    C       -6.60499       -17.40443         1.58214
| 66>    S       -6.68392       -15.94605         0.65370
| 67>    C       -7.24253       -18.63457         1.52491
| 68>    C       -6.82468       -19.48776         2.53752
| 69>    S       -5.60273       -18.74639         3.55940
| 70>    C       -7.18433       -20.83012         2.78424
| 71>    C       -8.26526       -21.53528         2.34584
| 72>    C       -8.19780       -23.02487         2.35783
| 73>    O       -7.37120       -23.70481         2.91886
| 74>    C       -9.31179       -23.46963         1.49741
| 75>    C       -9.61977       -24.73115         1.07661
| 76>    C      -10.72619       -24.91726         0.21780
| 77>    C      -11.49030       -23.78666        -0.19404
| 78>    C      -12.58618       -23.97848        -1.05919
| 79>    C      -12.91057       -25.23367        -1.49186
| 80>    C      -12.15576       -26.35137        -1.08186
| 81>    C      -11.08624       -26.19796        -0.24485
| 82>    F      -12.49614       -27.56954        -1.52230
| 83>    F      -13.95238       -25.41443        -2.31296
| 84>    C      -11.15256       -22.49282         0.26536
| 85>    C      -10.08280       -22.33813         1.10558
| 86>    C       -9.52726       -21.15135         1.75339
| 87>    C      -10.21085       -19.98347         1.97229
| 88>    C       -9.74911       -18.95466         2.81732
| 89>    N       -9.42599       -18.10765         3.52123
| 90>    C      -11.49533       -19.71974         1.45302
| 91>    N      -12.53336       -19.45567         1.04134
| 92>    H        2.41340         1.97624        -0.09618
| 93>    H        3.78331        -1.32058         3.34294
| 94>    H        0.63141         0.49501        -0.84143
| 95>    H        1.96534        -2.86293         2.59522
| 96>    H       -2.68850        -3.87383        -1.50042
| 97>    H       -3.93359        -5.88033        -1.74974
| 98>    H       -2.33202        -9.37794         2.16569
| 99>    H       -4.34678       -15.75509         3.45638
|100>    H       -7.94217       -18.91677         0.75950
|101>    H       -6.46341       -21.41513         3.34830
|102>    H       -9.02675       -25.57555         1.39321
|103>    H      -13.17668       -23.13446        -1.37975
|104>    H      -10.51842       -27.06323         0.05941
|105>    H      -11.74281       -21.65412        -0.06800
|106> *
|107> 
|108>                          ****END OF INPUT****
================================================================================

                       ****************************
                       * Single Point Calculation *
                       ****************************

---------------------------------
CARTESIAN COORDINATES (ANGSTROEM)
---------------------------------
  C      2.698730    1.247980    0.646870
  C      3.750550    1.508600    1.479880
  F      4.423970    2.660970    1.373810
  C      4.140270    0.571620    2.458150
  F      5.175060    0.853380    3.260620
  C      3.472600   -0.613790    2.589550
  C      2.385650   -0.911920    1.745150
  C      1.989970    0.034680    0.756110
  C      0.902670   -0.242740   -0.104170
  C      0.233130   -1.431870    0.018030
  C      0.638730   -2.371520    1.006430
  C      1.681180   -2.131320    1.854230
  C     -0.222950   -3.563270    0.923040
  O     -0.157750   -4.550350    1.631690
  C     -1.159520   -3.314390   -0.183050
  C     -0.899840   -1.989730   -0.718070
  C     -1.582170   -1.345930   -1.717490
  C     -2.689710   -1.856450   -2.427340
  N     -3.594000   -2.193670   -3.049880
  C     -1.269670   -0.048230   -2.176730
  N     -1.068440    1.000940   -2.596380
  C     -2.094220   -4.199210   -0.655000
  C     -2.416070   -5.500570   -0.235610
  C     -3.389270   -6.255660   -0.901950
  C     -3.552310   -7.509090   -0.350070
  C     -2.712800   -7.739300    0.760450
  S     -1.705240   -6.380650    1.109130
  C     -2.870370   -9.000830    1.316790
  C     -3.822880   -9.754030    0.642220
  S     -4.542090   -8.889290   -0.703320
  C     -4.217690  -11.085100    0.940300
  C     -5.178820  -11.754360    0.147590
  C     -5.586790  -13.108600    0.407560
  N     -6.486240  -13.691420   -0.392960
  C     -6.997080  -13.029660   -1.400670
  C     -6.600800  -11.674730   -1.651530
  N     -5.716290  -11.091240   -0.882300
  C     -7.158350  -10.955500   -2.738340
  N     -7.625930  -10.405130   -3.626720
  C     -7.938840  -13.670240   -2.244450
  N     -8.697660  -14.161440   -2.947240
  C     -5.068500  -13.866070    1.482760
  C     -4.113390  -13.199140    2.285150
  C     -3.695000  -11.838650    2.018030
  N     -2.786480  -11.426790    2.903560
  S     -2.488520  -12.601450    3.950900
  N     -3.485600  -13.701630    3.349560
  C     -5.497870  -15.200670    1.708330
  C     -5.070440  -16.049660    2.720230
  C     -5.690900  -17.288120    2.646780
  C     -6.604990  -17.404430    1.582140
  S     -6.683920  -15.946050    0.653700
  C     -7.242530  -18.634570    1.524910
  C     -6.824680  -19.487760    2.537520
  S     -5.602730  -18.746390    3.559400
  C     -7.184330  -20.830120    2.784240
  C     -8.265260  -21.535280    2.345840
  C     -8.197800  -23.024870    2.357830
  O     -7.371200  -23.704810    2.918860
  C     -9.311790  -23.469630    1.497410
  C     -9.619770  -24.731150    1.076610
  C    -10.726190  -24.917260    0.217800
  C    -11.490300  -23.786660   -0.194040
  C    -12.586180  -23.978480   -1.059190
  C    -12.910570  -25.233670   -1.491860
  C    -12.155760  -26.351370   -1.081860
  C    -11.086240  -26.197960   -0.244850
  F    -12.496140  -27.569540   -1.522300
  F    -13.952380  -25.414430   -2.312960
  C    -11.152560  -22.492820    0.265360
  C    -10.082800  -22.338130    1.105580
  C     -9.527260  -21.151350    1.753390
  C    -10.210850  -19.983470    1.972290
  C     -9.749110  -18.954660    2.817320
  N     -9.425990  -18.107650    3.521230
  C    -11.495330  -19.719740    1.453020
  N    -12.533360  -19.455670    1.041340
  H      2.413400    1.976240   -0.096180
  H      3.783310   -1.320580    3.342940
  H      0.631410    0.495010   -0.841430
  H      1.965340   -2.862930    2.595220
  H     -2.688500   -3.873830   -1.500420
  H     -3.933590   -5.880330   -1.749740
  H     -2.332020   -9.377940    2.165690
  H     -4.346780  -15.755090    3.456380
  H     -7.942170  -18.916770    0.759500
  H     -6.463410  -21.415130    3.348300
  H     -9.026750  -25.575550    1.393210
  H    -13.176680  -23.134460   -1.379750
  H    -10.518420  -27.063230    0.059410
  H    -11.742810  -21.654120   -0.068000

----------------------------
CARTESIAN COORDINATES (A.U.)
----------------------------
  NO LB      ZA    FRAG     MASS         X           Y           Z
   0 C     6.0000    0    12.011    5.099861    2.358340    1.222407
   1 C     6.0000    0    12.011    7.087512    2.850841    2.796568
   2 F     9.0000    0    18.998    8.360092    5.028505    2.596125
   3 C     6.0000    0    12.011    7.823976    1.080205    4.645230
   4 F     9.0000    0    18.998    9.779446    1.612654    6.161679
   5 C     6.0000    0    12.011    6.562263   -1.159895    4.893540
   6 C     6.0000    0    12.011    4.508225   -1.723279    3.297856
   7 C     6.0000    0    12.011    3.760498    0.065536    1.428841
   8 C     6.0000    0    12.011    1.705799   -0.458712   -0.196853
   9 C     6.0000    0    12.011    0.440552   -2.705842    0.034072
  10 C     6.0000    0    12.011    1.207025   -4.481523    1.901877
  11 C     6.0000    0    12.011    3.176970   -4.027611    3.503987
  12 C     6.0000    0    12.011   -0.421314   -6.733604    1.744293
  13 O     8.0000    0    15.999   -0.298104   -8.598915    3.083447
  14 C     6.0000    0    12.011   -2.191175   -6.263289   -0.345914
  15 C     6.0000    0    12.011   -1.700451   -3.760045   -1.356956
  16 C     6.0000    0    12.011   -2.989868   -2.543439   -3.245586
  17 C     6.0000    0    12.011   -5.082815   -3.508182   -4.587008
  18 N     7.0000    0    14.007   -6.791676   -4.145436   -5.763438
  19 C     6.0000    0    12.011   -2.399329   -0.091141   -4.113424
  20 N     7.0000    0    14.007   -2.019059    1.891502   -4.906447
  21 C     6.0000    0    12.011   -3.957502   -7.935357   -1.237771
  22 C     6.0000    0    12.011   -4.565711  -10.394571   -0.445238
  23 C     6.0000    0    12.011   -6.404792  -11.821484   -1.704438
  24 C     6.0000    0    12.011   -6.712893  -14.190124   -0.661536
  25 C     6.0000    0    12.011   -5.126449  -14.625157    1.437042
  26 S    16.0000    0    32.060   -3.222437  -12.057681    2.095952
  27 C     6.0000    0    12.011   -5.424213  -17.009104    2.488372
  28 C     6.0000    0    12.011   -7.224196  -18.432445    1.213620
  29 S    16.0000    0    32.060   -8.583306  -16.798324   -1.329082
  30 C     6.0000    0    12.011   -7.970279  -20.947803    1.776909
  31 C     6.0000    0    12.011   -9.786551  -22.212521    0.278905
  32 C     6.0000    0    12.011  -10.557503  -24.771664    0.770177
  33 N     7.0000    0    14.007  -12.257217  -25.873034   -0.742587
  34 C     6.0000    0    12.011  -13.222565  -24.622489   -2.646883
  35 C     6.0000    0    12.011  -12.473704  -22.062042   -3.120939
  36 N     7.0000    0    14.007  -10.802223  -20.959406   -1.667305
  37 C     6.0000    0    12.011  -13.527321  -20.702895   -5.174713
  38 N     7.0000    0    14.007  -14.410919  -19.662846   -6.853508
  39 C     6.0000    0    12.011  -15.002233  -25.833010   -4.241396
  40 N     7.0000    0    14.007  -16.436195  -26.761243   -5.569476
  41 C     6.0000    0    12.011   -9.578077  -26.203075    2.802010
  42 C     6.0000    0    12.011   -7.773181  -24.942760    4.318308
  43 C     6.0000    0    12.011   -6.982538  -22.371806    3.813524
  44 N     7.0000    0    14.007   -5.265684  -21.593504    5.486933
  45 S    16.0000    0    32.060   -4.702621  -23.813289    7.466119
  46 N     7.0000    0    14.007   -6.586829  -25.892328    6.329751
  47 C     6.0000    0    12.011  -10.389469  -28.725103    3.228276
  48 C     6.0000    0    12.011   -9.581743  -30.329462    5.140490
  49 C     6.0000    0    12.011  -10.754242  -32.669812    5.001689
  50 C     6.0000    0    12.011  -12.481622  -32.889606    2.989811
  51 S    16.0000    0    32.060  -12.630778  -30.133667    1.235314
  52 C     6.0000    0    12.011  -13.686398  -35.214234    2.881662
  53 C     6.0000    0    12.011  -12.896776  -36.826529    4.795218
  54 S    16.0000    0    32.060  -10.587625  -35.425543    6.726291
  55 C     6.0000    0    12.011  -13.576416  -39.363222    5.261451
  56 C     6.0000    0    12.011  -15.619078  -40.695781    4.432995
  57 C     6.0000    0    12.011  -15.491597  -43.510699    4.455653
  58 O     8.0000    0    15.999  -13.929549  -44.795599    5.515846
  59 C     6.0000    0    12.011  -17.596733  -44.351173    2.829695
  60 C     6.0000    0    12.011  -18.178731  -46.735100    2.034498
  61 C     6.0000    0    12.011  -20.269562  -47.086797    0.411582
  62 C     6.0000    0    12.011  -21.713520  -44.950273   -0.366682
  63 C     6.0000    0    12.011  -23.784433  -45.312760   -2.001579
  64 C     6.0000    0    12.011  -24.397442  -47.684726   -2.819207
  65 C     6.0000    0    12.011  -22.971057  -49.796873   -2.044419
  66 C     6.0000    0    12.011  -20.949957  -49.506970   -0.462699
  67 F     9.0000    0    18.998  -23.614282  -52.098880   -2.876730
  68 F     9.0000    0    18.998  -26.366177  -48.026313   -4.370861
  69 C     6.0000    0    12.011  -21.075284  -42.505270    0.501458
  70 C     6.0000    0    12.011  -19.053731  -42.212948    2.089243
  71 C     6.0000    0    12.011  -18.003912  -39.970259    3.313427
  72 C     6.0000    0    12.011  -19.295710  -37.763286    3.727088
  73 C     6.0000    0    12.011  -18.423148  -35.819116    5.323963
  74 N     7.0000    0    14.007  -17.812540  -34.218499    6.654160
  75 C     6.0000    0    12.011  -21.723026  -37.264908    2.745810
  76 N     7.0000    0    14.007  -23.684618  -36.765888    1.967847
  77 H     1.0000    0     1.008    4.560665    3.734552   -0.181754
  78 H     1.0000    0     1.008    7.149420   -2.495535    6.317241
  79 H     1.0000    0     1.008    1.193192    0.935433   -1.590072
  80 H     1.0000    0     1.008    3.713954   -5.410154    4.904255
  81 H     1.0000    0     1.008   -5.080529   -7.320478   -2.835383
  82 H     1.0000    0     1.008   -7.433408  -11.112213   -3.306529
  83 H     1.0000    0     1.008   -4.406879  -17.721738    4.092561
  84 H     1.0000    0     1.008   -8.214224  -29.772805    6.531612
  85 H     1.0000    0     1.008  -15.008526  -35.747515    1.435247
  86 H     1.0000    0     1.008  -12.214075  -40.468731    6.327370
  87 H     1.0000    0     1.008  -17.058085  -48.330785    2.632785
  88 H     1.0000    0     1.008  -24.900317  -43.717794   -2.607350
  89 H     1.0000    0     1.008  -19.876933  -51.142093    0.112269
  90 H     1.0000    0     1.008  -22.190695  -40.920356   -0.128501

--------------------------------
INTERNAL COORDINATES (ANGSTROEM)
--------------------------------
 C      0   0   0     0.000000000000     0.00000000     0.00000000
 C      1   0   0     1.366804213082     0.00000000     0.00000000
 F      2   1   0     1.338918204447   120.19071888     0.00000000
 C      2   1   3     1.409547938773   120.59727912   180.02909274
 F      4   2   1     1.339454046468   119.31186878   179.97998285
 C      4   2   1     1.366837977596   120.54178473     0.00000000
 C      6   4   2     1.408315717231   120.19631893     0.04768729
 C      1   2   3     1.409386747916   120.25868681   179.91697532
 C      8   1   2     1.413953614798   120.56092321   180.13416138
 C      9   8   1     1.370126566599   119.45865982   179.72099517
 C     10   9   8     1.422809910881   119.72440680     0.00000000
 C     11  10   9     1.364977246147   122.20622745     0.22318529
 C     11  10   9     1.472995036312   109.16155298   180.64701123
 O     13  11  10     1.216865969982   126.29722717   180.80024068
 C     13  11  10     1.470557617844   106.15396173     1.02628896
 C     15  13  11     1.452034510058   108.52015820   358.01006720
 C     16  15  13     1.370727181207   127.45263357   182.91116836
 C     17  16  15     1.411085590778   125.98430037     0.17893101
 N     18  17  16     1.148483253731   175.49664130   178.38915299
 C     17  16  15     1.411588791965   123.97216864   179.61000854
 N     20  17  16     1.147761876131   176.48064147   179.46050889
 C     15  13  11     1.370878304190   125.72884408   176.26847149
 C     22  15  13     1.404639898408   130.64888155     0.90992122
 C     23  22  15     1.400459975758   121.11080484   182.37529505
 C     24  23  22     1.379217292851   112.44271443   179.39783458
 C     25  24  23     1.411038041514   113.13245643     0.45207868
 S     26  25  24     1.727045082938   112.18801046   359.61939186
 C     26  25  24     1.387732121629   113.34548071   180.18287343
 C     28  26  25     1.389111307635   112.09128119     0.24851316
 S     25  24  23     1.734762822665   135.15504558   181.03686757
 C     29  28  26     1.420026044620   126.65243387   179.36306466
 C     31  29  28     1.414237946245   120.98924992   181.75591019
 C     32  31  29     1.438050729077   122.48794766   179.01048525
 N     33  32  31     1.337730064438   119.52836293   181.01657973
 C     34  33  32     1.309336949490   120.17808152   359.57037987
 C     35  34  33     1.433807477627   120.29393798   359.77594560
 N     36  35  34     1.309401891361   120.33242825     0.59178771
 C     36  35  34     1.417501242151   120.32558733   180.31327841
 N     38  36  35     1.144883058526   178.16630828   354.52029108
 C     35  34  33     1.417469337376   119.27158100   179.38490953
 N     40  35  34     1.144988653437   178.30882710   189.32074679
 C     33  32  31     1.413662040588   122.55292368     0.70378057
 C     42  33  32     1.414517744357   115.23688607   359.76276774
 C     31  29  28     1.415112854687   123.80136858     1.37350039
 N     44  31  29     1.333866796536   126.35319674     0.63023796
 S     45  44  31     1.601726366393   109.53366651   179.87633329
 N     43  42  33     1.334010919108   126.35413996   180.02359099
 C     42  33  32     1.419999148521   120.90106468   179.90581870
 C     48  42  33     1.388316258999   126.68650861   179.92628446
 C     49  48  42     1.387136866246   111.69552503   180.19876586
 C     50  49  48     1.408029429309   113.83922205   359.78178861
 S     51  50  49     1.730636588918   111.44678316     0.30292404
 C     51  50  49     1.386714442162   113.76279116   181.12467331
 C     53  51  50     1.388492279669   112.12560840   359.61667386
 S     50  49  48     1.722556415970   134.82038214   179.42501351
 C     54  53  51     1.411435174034   129.43465375   183.18173772
 C     56  54  53     1.363031492850   129.63391538   340.44447827
 C     57  56  54     1.491164974039   118.57687950   159.82333017
 O     58  57  56     1.208445540560   126.63679242    13.17627403
 C     58  57  56     1.476180122512   105.19745545   195.55945925
 C     60  58  57     1.365048362074   128.93082452   173.42844518
 C     61  60  58     1.412924897013   119.06341270   181.70097964
 C     62  61  60     1.425388591823   119.40127211     0.28943246
 C     63  62  61     1.409337578191   119.09438311   179.50336512
 C     64  63  62     1.366723870100   120.25793798     0.18512451
 C     65  64  63     1.409642304310   120.59873327   359.93525924
 C     66  65  64     1.366745550057   120.53995506   359.97553124
 F     66  65  64     1.339322249087   119.30378954   180.04092991
 F     65  64  63     1.338748469168   120.19025005   179.95587561
 C     63  62  61     1.413908983351   120.25838831   359.28630862
 C     70  63  62     1.369045325071   119.30480708     0.19115448
 C     57  56  54     1.446043999123   133.35519736   344.52070640
 C     72  57  56     1.370823180611   126.58230215   330.03050941
 C     73  72  57     1.409159162267   123.66668623     1.08895507
 N     74  73  72     1.147746384268   177.20611525   216.60329431
 C     73  72  57     1.410348792391   123.68903645   185.77577247
 N     76  73  72     1.147484060107   177.44586725   195.44099589
 H      1   2   3     1.078841572707   119.64180404   359.94845683
 H      6   4   2     1.078744316462   119.64818002   179.98020043
 H      9   8   1     1.077687040703   118.39010499   359.95889014
 H     12  11  10     1.079382359407   120.54191563   179.92720876
 H     22  15  13     1.083409359014   116.66667378   181.92666132
 H     24  23  22     1.075130110917   122.60117763   359.60984367
 H     28  26  25     1.073621853634   125.40538068   180.08965630
 H     49  48  42     1.073485958455   122.65416686     0.23925550
 H     53  51  50     1.074702487994   124.16851234   182.49111078
 H     56  54  53     1.086336057627   115.71051827   155.59745499
 H     61  60  58     1.079314430738   120.57221078     1.60996903
 H     64  63  62     1.078804302921   120.10231132   179.89321163
 H     67  66  65     1.078742727855   119.64340452   180.02727093
 H     70  63  62     1.078397719814   118.71813246   179.52932138

---------------------------
INTERNAL COORDINATES (A.U.)
---------------------------
 C      0   0   0     0.000000000000     0.00000000     0.00000000
 C      1   0   0     2.582885641416     0.00000000     0.00000000
 F      2   1   0     2.530188722127   120.19071888     0.00000000
 C      2   1   3     2.663659576915   120.59727912   180.02909274
 F      4   2   1     2.531201316798   119.31186878   179.97998285
 C      4   2   1     2.582949447100   120.54178473     0.00000000
 C      6   4   2     2.661331015664   120.19631893     0.04768729
 C      1   2   3     2.663354970338   120.25868681   179.91697532
 C      8   1   2     2.671985098036   120.56092321   180.13416138
 C      9   8   1     2.589163979682   119.45865982   179.72099517
 C     10   9   8     2.688721072193   119.72440680     0.00000000
 C     11  10   9     2.579433174253   122.20622745     0.22318529
 C     11  10   9     2.783557215255   109.16155298   180.64701123
 O     13  11  10     2.299543424954   126.29722717   180.80024068
 C     13  11  10     2.778951161877   106.15396173     1.02628896
 C     15  13  11     2.743947561013   108.52015820   358.01006720
 C     16  15  13     2.590298976803   127.45263357   182.91116836
 C     17  16  15     2.666565318092   125.98430037     0.17893101
 N     18  17  16     2.170318818946   175.49664130   178.38915299
 C     17  16  15     2.667516230526   123.97216864   179.61000854
 N     20  17  16     2.168955612843   176.48064147   179.46050889
 C     15  13  11     2.590584557854   125.72884408   176.26847149
 C     22  15  13     2.654384724770   130.64888155     0.90992122
 C     23  22  15     2.646485815701   121.11080484   182.37529505
 C     24  23  22     2.606342962657   112.44271443   179.39783458
 C     25  24  23     2.666475463006   113.13245643     0.45207868
 S     26  25  24     3.263642227688   112.18801046   359.61939186
 C     26  25  24     2.622433657124   113.34548071   180.18287343
 C     28  26  25     2.625039940964   112.09128119     0.24851316
 S     25  24  23     3.278226642145   135.15504558   181.03686757
 C     29  28  26     2.683460327368   126.65243387   179.36306466
 C     31  29  28     2.672522406603   120.98924992   181.75591019
 C     32  31  29     2.717522044642   122.48794766   179.01048525
 N     33  32  31     2.527943462900   119.52836293   181.01657973
 C     34  33  32     2.474288251560   120.17808152   359.57037987
 C     35  34  33     2.709503461484   120.29393798   359.77594560
 N     36  35  34     2.474410973911   120.33242825     0.59178771
 C     36  35  34     2.678689142159   120.32558733   180.31327841
 N     38  36  35     2.163515435980   178.16630828   354.52029108
 C     35  34  33     2.678628850871   119.27158100   179.38490953
 N     40  35  34     2.163714981444   178.30882710   189.32074679
 C     33  32  31     2.671434102632   122.55292368     0.70378057
 C     42  33  32     2.673051148406   115.23688607   359.76276774
 C     31  29  28     2.674175743950   123.80136858     1.37350039
 N     44  31  29     2.520642944583   126.35319674     0.63023796
 S     45  44  31     3.026824173964   109.53366651   179.87633329
 N     43  42  33     2.520915296775   126.35413996   180.02359099
 C     42  33  32     2.683409501106   120.90106468   179.90581870
 C     48  42  33     2.623537516778   126.68650861   179.92628446
 C     49  48  42     2.621308787472   111.69552503   180.19876586
 C     50  49  48     2.660790009895   113.83922205   359.78178861
 S     51  50  49     3.270429190398   111.44678316     0.30292404
 C     51  50  49     2.620510521639   113.76279116   181.12467331
 C     53  51  50     2.623870147638   112.12560840   359.61667386
 S     50  49  48     3.255159876413   134.82038214   179.42501351
 C     54  53  51     2.667225934707   129.43465375   183.18173772
 C     56  54  53     2.575756233396   129.63391538   340.44447827
 C     57  56  54     2.817893421429   118.57687950   159.82333017
 O     58  57  56     2.283631119417   126.63679242    13.17627403
 C     58  57  56     2.789576155886   105.19745545   195.55945925
 C     60  58  57     2.579567563877   128.93082452   173.42844518
 C     61  60  58     2.670041103154   119.06341270   181.70097964
 C     62  61  60     2.693594072962   119.40127211     0.28943246
 C     63  62  61     2.663262053024   119.09438311   179.50336512
 C     64  63  62     2.582733815181   120.25793798     0.18512451
 C     65  64  63     2.663837901935   120.59873327   359.93525924
 C     66  65  64     2.582774784363   120.53995506   359.97553124
 F     66  65  64     2.530952255842   119.30378954   180.04092991
 F     65  64  63     2.529867968934   120.19025005   179.95587561
 C     63  62  61     2.671900756824   120.25838831   359.28630862
 C     70  63  62     2.587120729310   119.30480708     0.19115448
 C     57  56  54     2.732627135943   133.35519736   344.52070640
 C     72  57  56     2.590480389385   126.58230215   330.03050941
 C     73  72  57     2.662924895790   123.66668623     1.08895507
 N     74  73  72     2.168926337465   177.20611525   216.60329431
 C     73  72  57     2.665172970926   123.68903645   185.77577247
 N     76  73  72     2.168430616643   177.44586725   195.44099589
 H      1   2   3     2.038715114304   119.64180404   359.94845683
 H      6   4   2     2.038531326638   119.64818002   179.98020043
 H      9   8   1     2.036533365005   118.39010499   359.95889014
 H     12  11  10     2.039737053066   120.54191563   179.92720876
 H     22  15  13     2.047346979464   116.66667378   181.92666132
 H     24  23  22     2.031701467965   122.60117763   359.60984367
 H     28  26  25     2.028851274761   125.40538068   180.08965630
 H     49  48  42     2.028594470090   122.65416686     0.23925550
 H     53  51  50     2.030893377752   124.16851234   182.49111078
 H     56  54  53     2.052877638318   115.71051827   155.59745499
 H     61  60  58     2.039608686485   120.57221078     1.60996903
 H     64  63  62     2.038644684616   120.10231132   179.89321163
 H     67  66  65     2.038528324605   119.64340452   180.02727093
 H     70  63  62     2.037876353894   118.71813246   179.52932138

---------------------
BASIS SET INFORMATION
---------------------
There are 6 groups of distinct atoms

 Group   1 Type C   : 7s4p1d contracted to 3s2p1d pattern {511/31/1}
 Group   2 Type F   : 7s4p1d contracted to 3s2p1d pattern {511/31/1}
 Group   3 Type O   : 7s4p1d contracted to 3s2p1d pattern {511/31/1}
 Group   4 Type N   : 7s4p1d contracted to 3s2p1d pattern {511/31/1}
 Group   5 Type S   : 10s7p1d contracted to 4s3p1d pattern {5311/511/1}
 Group   6 Type H   : 4s1p contracted to 2s1p pattern {31/1}

Atom   0C    basis set group =>   1
Atom   1C    basis set group =>   1
Atom   2F    basis set group =>   2
Atom   3C    basis set group =>   1
Atom   4F    basis set group =>   2
Atom   5C    basis set group =>   1
Atom   6C    basis set group =>   1
Atom   7C    basis set group =>   1
Atom   8C    basis set group =>   1
Atom   9C    basis set group =>   1
Atom  10C    basis set group =>   1
Atom  11C    basis set group =>   1
Atom  12C    basis set group =>   1
Atom  13O    basis set group =>   3
Atom  14C    basis set group =>   1
Atom  15C    basis set group =>   1
Atom  16C    basis set group =>   1
Atom  17C    basis set group =>   1
Atom  18N    basis set group =>   4
Atom  19C    basis set group =>   1
Atom  20N    basis set group =>   4
Atom  21C    basis set group =>   1
Atom  22C    basis set group =>   1
Atom  23C    basis set group =>   1
Atom  24C    basis set group =>   1
Atom  25C    basis set group =>   1
Atom  26S    basis set group =>   5
Atom  27C    basis set group =>   1
Atom  28C    basis set group =>   1
Atom  29S    basis set group =>   5
Atom  30C    basis set group =>   1
Atom  31C    basis set group =>   1
Atom  32C    basis set group =>   1
Atom  33N    basis set group =>   4
Atom  34C    basis set group =>   1
Atom  35C    basis set group =>   1
Atom  36N    basis set group =>   4
Atom  37C    basis set group =>   1
Atom  38N    basis set group =>   4
Atom  39C    basis set group =>   1
Atom  40N    basis set group =>   4
Atom  41C    basis set group =>   1
Atom  42C    basis set group =>   1
Atom  43C    basis set group =>   1
Atom  44N    basis set group =>   4
Atom  45S    basis set group =>   5
Atom  46N    basis set group =>   4
Atom  47C    basis set group =>   1
Atom  48C    basis set group =>   1
Atom  49C    basis set group =>   1
Atom  50C    basis set group =>   1
Atom  51S    basis set group =>   5
Atom  52C    basis set group =>   1
Atom  53C    basis set group =>   1
Atom  54S    basis set group =>   5
Atom  55C    basis set group =>   1
Atom  56C    basis set group =>   1
Atom  57C    basis set group =>   1
Atom  58O    basis set group =>   3
Atom  59C    basis set group =>   1
Atom  60C    basis set group =>   1
Atom  61C    basis set group =>   1
Atom  62C    basis set group =>   1
Atom  63C    basis set group =>   1
Atom  64C    basis set group =>   1
Atom  65C    basis set group =>   1
Atom  66C    basis set group =>   1
Atom  67F    basis set group =>   2
Atom  68F    basis set group =>   2
Atom  69C    basis set group =>   1
Atom  70C    basis set group =>   1
Atom  71C    basis set group =>   1
Atom  72C    basis set group =>   1
Atom  73C    basis set group =>   1
Atom  74N    basis set group =>   4
Atom  75C    basis set group =>   1
Atom  76N    basis set group =>   4
Atom  77H    basis set group =>   6
Atom  78H    basis set group =>   6
Atom  79H    basis set group =>   6
Atom  80H    basis set group =>   6
Atom  81H    basis set group =>   6
Atom  82H    basis set group =>   6
Atom  83H    basis set group =>   6
Atom  84H    basis set group =>   6
Atom  85H    basis set group =>   6
Atom  86H    basis set group =>   6
Atom  87H    basis set group =>   6
Atom  88H    basis set group =>   6
Atom  89H    basis set group =>   6
Atom  90H    basis set group =>   6
---------------------------------
AUXILIARY/J BASIS SET INFORMATION
---------------------------------
There are 6 groups of distinct atoms

 Group   1 Type C   : 12s5p4d2f1g contracted to 6s4p3d1f1g pattern {711111/2111/211/2/1}
 Group   2 Type F   : 12s5p4d2f1g contracted to 6s4p3d1f1g pattern {711111/2111/211/2/1}
 Group   3 Type O   : 12s5p4d2f1g contracted to 6s4p3d1f1g pattern {711111/2111/211/2/1}
 Group   4 Type N   : 12s5p4d2f1g contracted to 6s4p3d1f1g pattern {711111/2111/211/2/1}
 Group   5 Type S   : 14s5p5d2f1g contracted to 8s4p3d1f1g pattern {71111111/2111/311/2/1}
 Group   6 Type H   : 5s2p1d contracted to 3s1p1d pattern {311/2/1}

Atom   0C    basis set group =>   1
Atom   1C    basis set group =>   1
Atom   2F    basis set group =>   2
Atom   3C    basis set group =>   1
Atom   4F    basis set group =>   2
Atom   5C    basis set group =>   1
Atom   6C    basis set group =>   1
Atom   7C    basis set group =>   1
Atom   8C    basis set group =>   1
Atom   9C    basis set group =>   1
Atom  10C    basis set group =>   1
Atom  11C    basis set group =>   1
Atom  12C    basis set group =>   1
Atom  13O    basis set group =>   3
Atom  14C    basis set group =>   1
Atom  15C    basis set group =>   1
Atom  16C    basis set group =>   1
Atom  17C    basis set group =>   1
Atom  18N    basis set group =>   4
Atom  19C    basis set group =>   1
Atom  20N    basis set group =>   4
Atom  21C    basis set group =>   1
Atom  22C    basis set group =>   1
Atom  23C    basis set group =>   1
Atom  24C    basis set group =>   1
Atom  25C    basis set group =>   1
Atom  26S    basis set group =>   5
Atom  27C    basis set group =>   1
Atom  28C    basis set group =>   1
Atom  29S    basis set group =>   5
Atom  30C    basis set group =>   1
Atom  31C    basis set group =>   1
Atom  32C    basis set group =>   1
Atom  33N    basis set group =>   4
Atom  34C    basis set group =>   1
Atom  35C    basis set group =>   1
Atom  36N    basis set group =>   4
Atom  37C    basis set group =>   1
Atom  38N    basis set group =>   4
Atom  39C    basis set group =>   1
Atom  40N    basis set group =>   4
Atom  41C    basis set group =>   1
Atom  42C    basis set group =>   1
Atom  43C    basis set group =>   1
Atom  44N    basis set group =>   4
Atom  45S    basis set group =>   5
Atom  46N    basis set group =>   4
Atom  47C    basis set group =>   1
Atom  48C    basis set group =>   1
Atom  49C    basis set group =>   1
Atom  50C    basis set group =>   1
Atom  51S    basis set group =>   5
Atom  52C    basis set group =>   1
Atom  53C    basis set group =>   1
Atom  54S    basis set group =>   5
Atom  55C    basis set group =>   1
Atom  56C    basis set group =>   1
Atom  57C    basis set group =>   1
Atom  58O    basis set group =>   3
Atom  59C    basis set group =>   1
Atom  60C    basis set group =>   1
Atom  61C    basis set group =>   1
Atom  62C    basis set group =>   1
Atom  63C    basis set group =>   1
Atom  64C    basis set group =>   1
Atom  65C    basis set group =>   1
Atom  66C    basis set group =>   1
Atom  67F    basis set group =>   2
Atom  68F    basis set group =>   2
Atom  69C    basis set group =>   1
Atom  70C    basis set group =>   1
Atom  71C    basis set group =>   1
Atom  72C    basis set group =>   1
Atom  73C    basis set group =>   1
Atom  74N    basis set group =>   4
Atom  75C    basis set group =>   1
Atom  76N    basis set group =>   4
Atom  77H    basis set group =>   6
Atom  78H    basis set group =>   6
Atom  79H    basis set group =>   6
Atom  80H    basis set group =>   6
Atom  81H    basis set group =>   6
Atom  82H    basis set group =>   6
Atom  83H    basis set group =>   6
Atom  84H    basis set group =>   6
Atom  85H    basis set group =>   6
Atom  86H    basis set group =>   6
Atom  87H    basis set group =>   6
Atom  88H    basis set group =>   6
Atom  89H    basis set group =>   6
Atom  90H    basis set group =>   6


           ************************************************************
           *        Program running with 6 parallel MPI-processes     *
           *              working on a common directory               *
           ************************************************************
------------------------------------------------------------------------------
                           ORCA GTO INTEGRAL CALCULATION
                           -- RI-GTO INTEGRALS CHOSEN --
------------------------------------------------------------------------------

                         BASIS SET STATISTICS AND STARTUP INFO

Gaussian basis set:
 # of primitive gaussian shells          ... 1024
 # of primitive gaussian functions       ... 2006
 # of contracted shells                  ...  514
 # of contracted basis functions         ... 1168
 Highest angular momentum                ...    2
 Maximum contraction depth               ...    5
Auxiliary gaussian basis set:
 # of primitive gaussian shells          ... 1975
 # of primitive gaussian functions       ... 5649
 # of contracted shells                  ... 1235
 # of contracted aux-basis functions     ... 3937
 Highest angular momentum                ...    4
 Maximum contraction depth               ...    7
Ratio of auxiliary to basis functions    ...  3.37
Integral package used                  ... LIBINT
 One Electron integrals                  ... done
 Ordering auxiliary basis shells         ... done
 Integral threshhold             Thresh  ...  2.500e-11
 Primitive cut-off               TCut    ...  2.500e-12
 Pre-screening matrix                    ... done
 Shell pair data                         ... 
 Ordering of the shell pairs             ... done (   0.009 sec) 38908 of 132355 pairs
 Determination of significant pairs      ... done (   0.000 sec)
 Creation of shell pair data             ... done (   0.004 sec)
 Storage of shell pair data              ... done (   0.006 sec)
 Shell pair data done in (   0.020 sec)
 Computing two index integrals           ... done
 Cholesky decomposition of the V-matrix  ... done


Timings:
 Total evaluation time                   ...   3.022 sec (  0.050 min)
 One electron matrix time                ...   0.435 sec (  0.007 min) = 14.4%
 Schwartz matrix evaluation time         ...   0.686 sec (  0.011 min) = 22.7%
 Two index repulsion integral time       ...   0.338 sec (  0.006 min) = 11.2%
 Cholesky decomposition of V             ...   1.527 sec (  0.025 min) = 50.5%
 Three index repulsion integral time     ...   0.000 sec (  0.000 min) =  0.0%



           ************************************************************
           *        Program running with 6 parallel MPI-processes     *
           *              working on a common directory               *
           ************************************************************
-------------------------------------------------------------------------------
                                 ORCA SCF
-------------------------------------------------------------------------------

------------
SCF SETTINGS
------------
Hamiltonian:
 Density Functional     Method          .... DFT(GTOs)
 Exchange Functional    Exchange        .... WB88
 Correlation Functional Correlation     .... LYP
 LDA part of GGA corr.  LDAOpt          .... VWN-5
 Gradients option       PostSCFGGA      .... off
 Hybrid DFT is turned on
   Fraction HF Exchange ScalHFX         ....  0.190000
   Scaling of DF-GGA-X  ScalDFX         ....  0.350000
   Scaling of DF-GGA-C  ScalDFC         ....  0.810000
   Scaling of DF-LDA-C  ScalLDAC        ....  1.000000
   Perturbative correction              ....  0.000000
   Density functional embedding theory  .... OFF
 Long-range corrected/Screened/Range-Separated Hybrid DFT is turned on
   Amount of maximum screened exact exchange              ....  0.460000
   Range separation parameter mu (erf(mu*r12)/r12)        ....  0.330000
 RI-approximation to the Coulomb term is turned on
   Number of auxiliary basis functions  .... 3937
   RIJ-COSX (HFX calculated with COS-X)).... on


General Settings:
 Integral files         IntName         .... xtbopt
 Hartree-Fock type      HFTyp           .... RHF
 Total Charge           Charge          ....    0
 Multiplicity           Mult            ....    1
 Number of Electrons    NEL             ....  552
 Basis Dimension        Dim             .... 1168
 Nuclear Repulsion      ENuc            ....  11094.0722447948 Eh

Convergence Acceleration:
 DIIS                   CNVDIIS         .... on
   Start iteration      DIISMaxIt       ....    12
   Startup error        DIISStart       ....  0.200000
   # of expansion vecs  DIISMaxEq       ....     5
   Bias factor          DIISBfac        ....   1.050
   Max. coefficient     DIISMaxC        ....  10.000
 Newton-Raphson         CNVNR           .... off
 SOSCF                  CNVSOSCF        .... on
   Start iteration      SOSCFMaxIt      ....   150
   Startup grad/error   SOSCFStart      ....  0.003300
 Level Shifting         CNVShift        .... on
   Level shift para.    LevelShift      ....    0.2500
   Turn off err/grad.   ShiftErr        ....    0.0010
 Zerner damping         CNVZerner       .... off
 Static damping         CNVDamp         .... on
   Fraction old density DampFac         ....    0.7000
   Max. Damping (<1)    DampMax         ....    0.9800
   Min. Damping (>=0)   DampMin         ....    0.0000
   Turn off err/grad.   DampErr         ....    0.1000
 Fernandez-Rico         CNVRico         .... off

SCF Procedure:
 Maximum # iterations   MaxIter         ....   125
 SCF integral mode      SCFMode         .... Direct
   Integral package                     .... LIBINT
 Reset frequency        DirectResetFreq ....    20
 Integral Threshold     Thresh          ....  2.500e-11 Eh
 Primitive CutOff       TCut            ....  2.500e-12 Eh

Convergence Tolerance:
 Convergence Check Mode ConvCheckMode   .... Total+1el-Energy
 Convergence forced     ConvForced      .... 1
 Energy Change          TolE            ....  1.000e-08 Eh
 1-El. energy change                    ....  1.000e-05 Eh
 Orbital Gradient       TolG            ....  1.000e-05
 Orbital Rotation angle TolX            ....  1.000e-05
 DIIS Error             TolErr          ....  5.000e-07


Diagonalization of the overlap matrix:
Smallest eigenvalue                        ... 1.073e-04
Time for diagonalization                   ...    0.310 sec
Threshold for overlap eigenvalues          ... 1.000e-08
Number of eigenvalues below threshold      ... 0
Time for construction of square roots      ...    0.257 sec
Total time needed                          ...    0.571 sec

-------------------
DFT GRID GENERATION
-------------------

General Integration Accuracy     IntAcc      ...  4.670
Radial Grid Type                 RadialGrid  ... Gauss-Chebyshev
Angular Grid (max. acc.)         AngularGrid ... Lebedev-302
Angular grid pruning method      GridPruning ... 3 (G Style)
Weight generation scheme         WeightScheme... Becke
Basis function cutoff            BFCut       ...    1.0000e-11
Integration weight cutoff        WCut        ...    1.0000e-14
Grids for H and He will be reduced by one unit

# of grid points (after initial pruning)     ... 529250 (   0.0 sec)
# of grid points (after weights+screening)   ... 459510 (   4.9 sec)
nearest neighbour list constructed           ...    0.0 sec
Grid point re-assignment to atoms done       ...    0.1 sec
Grid point division into batches done        ...    1.9 sec
Reduced shell lists constructed in    2.7 sec

Total number of grid points                  ...   459510
Total number of batches                      ...     7223
Average number of points per batch           ...       63
Average number of grid points per atom       ...     5050
Average number of shells per batch           ...    81.15 (15.79%)
Average number of basis functions per batch  ...   176.79 (15.14%)
Average number of large shells per batch     ...    54.78 (67.51%)
Average number of large basis fcns per batch ...   119.94 (67.84%)
Maximum spatial batch extension              ...  20.63, 16.35, 17.10 au
Average spatial batch extension              ...   0.35,  0.33,  0.36 au

Time for grid setup =    7.925 sec

------------------------------
INITIAL GUESS: MODEL POTENTIAL
------------------------------
Loading Hartree-Fock densities                     ... done
Calculating cut-offs                               ... done
Setting up the integral package                    ... done
Initializing the effective Hamiltonian             ... done
Starting the Coulomb interaction                   ... done (   1.2 sec)
Reading the grid                                   ... done
Mapping shells                                     ... done
Starting the XC term evaluation                    ... done (   1.2 sec)
  promolecular density results
     # of electrons  =    551.992418716
     EX              =   -536.905920054
     EC              =    -19.276064883
     EX+EC           =   -556.181984937
Transforming the Hamiltonian                       ... done (   0.2 sec)
Diagonalizing the Hamiltonian                      ... done (   0.3 sec)
Back transforming the eigenvectors                 ... done (   0.1 sec)
Now organizing SCF variables                       ... done
                      ------------------
                      INITIAL GUESS DONE (  11.0 sec)
                      ------------------
--------------------
COSX GRID GENERATION
--------------------

General Integration Accuracy     IntAcc      ...  3.340
Radial Grid Type                 RadialGrid  ... Gauss-Chebyshev
Angular Grid (max. acc.)         AngularGrid ... Lebedev-50
Angular grid pruning method      GridPruning ... 3 (G Style)
Weight generation scheme         WeightScheme... Becke
Basis function cutoff            BFCut       ...    1.0000e-11
Integration weight cutoff        WCut        ...    1.0000e-14
Grids for H and He will be reduced by one unit

# of grid points (after initial pruning)     ...  49630 (   0.0 sec)
# of grid points (after weights+screening)   ...  44954 (   0.5 sec)
nearest neighbour list constructed           ...    0.0 sec
Grid point re-assignment to atoms done       ...    0.0 sec
Grid point division into batches done        ...    0.0 sec
Reduced shell lists constructed in    0.1 sec

Total number of grid points                  ...    44954
Total number of batches                      ...      753
Average number of points per batch           ...       59
Average number of grid points per atom       ...      494
Average number of shells per batch           ...    94.97 (18.48%)
Average number of basis functions per batch  ...   209.05 (17.90%)
Average number of large shells per batch     ...    64.98 (68.43%)
Average number of large basis fcns per batch ...   144.37 (69.06%)
Maximum spatial batch extension              ...  19.27, 17.76, 17.86 au
Average spatial batch extension              ...   0.88,  0.72,  0.86 au

Overlap Fitting                  UseSFitting ... on
Constructing numerical overlap ... done (      0.1 sec)
Inverting numerical overlap    ... done (      0.1 sec)
Obtaining analytic overlap     ... done (      0.0 sec)
Final contraction and storage  ... done (      0.3 sec)


General Integration Accuracy     IntAcc      ...  3.670
Radial Grid Type                 RadialGrid  ... Gauss-Chebyshev
Angular Grid (max. acc.)         AngularGrid ... Lebedev-50
Angular grid pruning method      GridPruning ... 3 (G Style)
Weight generation scheme         WeightScheme... Becke
Basis function cutoff            BFCut       ...    1.0000e-11
Integration weight cutoff        WCut        ...    1.0000e-14
Grids for H and He will be reduced by one unit

# of grid points (after initial pruning)     ...  61334 (   0.0 sec)
# of grid points (after weights+screening)   ...  55354 (   0.6 sec)
nearest neighbour list constructed           ...    0.0 sec
Grid point re-assignment to atoms done       ...    0.0 sec
Grid point division into batches done        ...    0.0 sec
Reduced shell lists constructed in    0.1 sec

Total number of grid points                  ...    55354
Total number of batches                      ...      915
Average number of points per batch           ...       60
Average number of grid points per atom       ...      608
Average number of shells per batch           ...    94.03 (18.29%)
Average number of basis functions per batch  ...   207.10 (17.73%)
Average number of large shells per batch     ...    63.75 (67.80%)
Average number of large basis fcns per batch ...   141.97 (68.55%)
Maximum spatial batch extension              ...  22.63, 19.22, 21.30 au
Average spatial batch extension              ...   0.82,  0.68,  0.83 au

Overlap Fitting                  UseSFitting ... on
Constructing numerical overlap ... done (      0.2 sec)
Inverting numerical overlap    ... done (      0.1 sec)
Obtaining analytic overlap     ... done (      0.0 sec)
Final contraction and storage  ... done (      0.4 sec)


General Integration Accuracy     IntAcc      ...  4.010
Radial Grid Type                 RadialGrid  ... Gauss-Chebyshev
Angular Grid (max. acc.)         AngularGrid ... Lebedev-110
Angular grid pruning method      GridPruning ... 3 (G Style)
Weight generation scheme         WeightScheme... Becke
Basis function cutoff            BFCut       ...    1.0000e-11
Integration weight cutoff        WCut        ...    1.0000e-14
Grids for H and He will be reduced by one unit

# of grid points (after initial pruning)     ... 123028 (   0.0 sec)
# of grid points (after weights+screening)   ... 109862 (   1.2 sec)
nearest neighbour list constructed           ...    0.0 sec
Grid point re-assignment to atoms done       ...    0.0 sec
Grid point division into batches done        ...    0.1 sec
Reduced shell lists constructed in    0.3 sec

Total number of grid points                  ...   109862
Total number of batches                      ...     1771
Average number of points per batch           ...       62
Average number of grid points per atom       ...     1207
Average number of shells per batch           ...    89.41 (17.39%)
Average number of basis functions per batch  ...   196.17 (16.80%)
Average number of large shells per batch     ...    61.17 (68.42%)
Average number of large basis fcns per batch ...   135.18 (68.91%)
Maximum spatial batch extension              ...  19.99, 17.41, 19.30 au
Average spatial batch extension              ...   0.63,  0.54,  0.64 au

Overlap Fitting                  UseSFitting ... on
Constructing numerical overlap ... done (      0.3 sec)
Inverting numerical overlap    ... done (      0.1 sec)
Obtaining analytic overlap     ... done (      0.0 sec)
Final contraction and storage  ... done (      0.3 sec)

Time for X-Grid setup             =    8.133 sec
--------------
SCF ITERATIONS
--------------
ITER       Energy         Delta-E        Max-DP      RMS-DP      [F,P]     Damp
               ***  Starting incremental Fock matrix formation  ***
  0  -5224.5442706543   0.000000000000 0.09647210  0.00106124  0.2190039 0.7000
  1  -5225.1749459494  -0.630675295031 0.04618586  0.00073489  0.0950573 0.7000
                               ***Turning on DIIS***
  2  -5225.4283526977  -0.253406748296 0.09155672  0.00132393  0.0310834 0.0000
  3  -5225.8616163761  -0.433263678464 0.08554101  0.00050505  0.0537437 0.0000
  4  -5225.9381338381  -0.076517461997 0.01662569  0.00017581  0.0189058 0.0000
  5  -5225.9455628097  -0.007428971541 0.00698051  0.00007469  0.0054311 0.0000
                      *** Initiating the SOSCF procedure ***
                           *** Shutting down DIIS ***
                      *** Re-Reading the Fockian *** 
                      *** Removing any level shift *** 
ITER      Energy       Delta-E        Grad      Rot      Max-DP    RMS-DP
  6  -5225.94671555  -0.0011527429  0.003242  0.003242  0.002723  0.000037
               *** Restarting incremental Fock matrix formation ***
  7  -5225.94715164  -0.0004360849  0.002335  0.015268  0.002101  0.000041
  8  -5225.94750103  -0.0003493912  0.000819  0.014730  0.003439  0.000047
  9  -5225.94753354  -0.0000325136  0.001001  0.002300  0.001941  0.000015
 10  -5225.94760356  -0.0000700219  0.000292  0.002207  0.000871  0.000010
 11  -5225.94760432  -0.0000007527  0.000197  0.000893  0.000458  0.000005
 12  -5225.94761117  -0.0000068550  0.000040  0.000329  0.000174  0.000003
 13  -5225.94761111   0.0000000631  0.000037  0.000109  0.000105  0.000001
 14  -5225.94761153  -0.0000004250  0.000009  0.000053  0.000054  0.000001
 15  -5225.94761154  -0.0000000070  0.000013  0.000036  0.000029  0.000000
 16  -5225.94761152   0.0000000162  0.000003  0.000025  0.000020  0.000000
 17  -5225.94761152   0.0000000060  0.000003  0.000010  0.000010  0.000000
                  ***Gradient check signals convergence***
              ***Rediagonalizing the Fockian in SOSCF/NRSCF***

               *****************************************************
               *                     SUCCESS                       *
               *           SCF CONVERGED AFTER  18 CYCLES          *
               *****************************************************

Setting up the final grid:

General Integration Accuracy     IntAcc      ...  5.010
Radial Grid Type                 RadialGrid  ... Gauss-Chebyshev
Angular Grid (max. acc.)         AngularGrid ... Lebedev-434
Angular grid pruning method      GridPruning ... 3 (G Style)
Weight generation scheme         WeightScheme... Becke
Basis function cutoff            BFCut       ...    1.0000e-11
Integration weight cutoff        WCut        ...    1.0000e-14
Grids for H and He will be reduced by one unit

# of grid points (after initial pruning)     ... 922332 (   0.0 sec)
# of grid points (after weights+screening)   ... 798005 (   8.4 sec)
nearest neighbour list constructed           ...    0.0 sec
Grid point re-assignment to atoms done       ...    0.1 sec
Grid point division into batches done        ...    6.0 sec
Reduced shell lists constructed in    7.2 sec

Total number of grid points                  ...   798005
Total number of batches                      ...    12511
Average number of points per batch           ...       63
Average number of grid points per atom       ...     8769
Average number of shells per batch           ...    79.01 (15.37%)
Average number of basis functions per batch  ...   171.78 (14.71%)
Average number of large shells per batch     ...    53.24 (67.38%)
Average number of large basis fcns per batch ...   116.39 (67.76%)
Maximum spatial batch extension              ...  18.76, 18.44, 23.66 au
Average spatial batch extension              ...   0.29,  0.27,  0.29 au

Final grid set up in   17.2 sec
Final integration                            ... done (   2.8 sec)
Change in XC energy                          ...    -0.000032607
Integrated number of electrons               ...   551.999874807
Previous integrated no of electrons          ...   551.999762516
Old exchange energy                            =   -146.619004883 Eh
New exchange energy                            =   -146.617568811 Eh
Exchange energy change after final integration =      0.001436072 Eh
Total energy after final integration           =  -5225.946208053 Eh
Final COS-X integration done in                =    53.925 sec

----------------
TOTAL SCF ENERGY
----------------

Total Energy       :        -5225.94620805 Eh         -142205.22590 eV

Components:
Nuclear Repulsion  :        11094.07224479 Eh          301885.05332 eV
Electronic Energy  :       -16320.01845285 Eh         -444090.27922 eV
One Electron Energy:       -29251.75290420 Eh         -795980.66340 eV
Two Electron Energy:        12931.73445135 Eh          351890.38418 eV

Virial components:
Potential Energy   :       -10419.62122507 Eh         -283532.30804 eV
Kinetic Energy     :         5193.67501702 Eh          141327.08214 eV
Virial Ratio       :            2.00621356


DFT components:
N(Alpha)           :      275.999937403479 electrons
N(Beta)            :      275.999937403479 electrons
N(Total)           :      551.999874806958 electrons
E(XC)              :     -417.429195341054 Eh       
DFET-embed. en.    :        0.000000000000 Eh       

---------------
SCF CONVERGENCE
---------------

  Last Energy change         ...   -1.5098e-10  Tolerance :   1.0000e-08
  Last MAX-Density change    ...    1.0214e-14  Tolerance :   1.0000e-07
  Last RMS-Density change    ...    4.2121e-17  Tolerance :   5.0000e-09
  Last Orbital Gradient      ...    4.7340e-07  Tolerance :   1.0000e-05
  Last Orbital Rotation      ...    3.5210e-06  Tolerance :   1.0000e-05

             **** THE GBW FILE WAS UPDATED (xtbopt.gbw) ****
             **** DENSITY FILE WAS UPDATED (xtbopt.scfp) ****
             **** ENERGY FILE WAS UPDATED (xtbopt.en.tmp) ****
             **** THE GBW FILE WAS UPDATED (xtbopt.gbw) ****
             **** DENSITY FILE WAS UPDATED (xtbopt.scfp) ****
----------------
ORBITAL ENERGIES
----------------

  NO   OCC          E(Eh)            E(eV) 
   0   2.0000     -89.064394     -2423.5654 
   1   2.0000     -88.975263     -2421.1400 
   2   2.0000     -88.970995     -2421.0238 
   3   2.0000     -88.968134     -2420.9460 
   4   2.0000     -88.968028     -2420.9431 
   5   2.0000     -24.800924      -674.8674 
   6   2.0000     -24.800240      -674.8488 
   7   2.0000     -24.799777      -674.8362 
   8   2.0000     -24.799585      -674.8310 
   9   2.0000     -19.226161      -523.1704 
  10   2.0000     -19.220396      -523.0136 
  11   2.0000     -14.481632      -394.0652 
  12   2.0000     -14.481181      -394.0530 
  13   2.0000     -14.473010      -393.8306 
  14   2.0000     -14.472452      -393.8154 
  15   2.0000     -14.442556      -393.0019 
  16   2.0000     -14.442426      -392.9984 
  17   2.0000     -14.420996      -392.4153 
  18   2.0000     -14.420615      -392.4049 
  19   2.0000     -14.420354      -392.3978 
  20   2.0000     -14.417668      -392.3247 
  21   2.0000     -10.400522      -283.0126 
  22   2.0000     -10.400223      -283.0045 
  23   2.0000     -10.384169      -282.5676 
  24   2.0000     -10.383636      -282.5531 
  25   2.0000     -10.383266      -282.5430 
  26   2.0000     -10.383146      -282.5398 
  27   2.0000     -10.374683      -282.3095 
  28   2.0000     -10.371670      -282.2275 
  29   2.0000     -10.365547      -282.0609 
  30   2.0000     -10.365213      -282.0518 
  31   2.0000     -10.363695      -282.0105 
  32   2.0000     -10.363463      -282.0042 
  33   2.0000     -10.349393      -281.6213 
  34   2.0000     -10.347893      -281.5805 
  35   2.0000     -10.346101      -281.5317 
  36   2.0000     -10.345533      -281.5163 
  37   2.0000     -10.338691      -281.3301 
  38   2.0000     -10.337385      -281.2945 
  39   2.0000     -10.335498      -281.2432 
  40   2.0000     -10.335272      -281.2371 
  41   2.0000     -10.332539      -281.1627 
  42   2.0000     -10.332335      -281.1571 
  43   2.0000     -10.328655      -281.0570 
  44   2.0000     -10.328480      -281.0522 
  45   2.0000     -10.327970      -281.0384 
  46   2.0000     -10.325837      -280.9803 
  47   2.0000     -10.323677      -280.9215 
  48   2.0000     -10.323020      -280.9037 
  49   2.0000     -10.321073      -280.8507 
  50   2.0000     -10.320785      -280.8428 
  51   2.0000     -10.319383      -280.8047 
  52   2.0000     -10.313500      -280.6446 
  53   2.0000     -10.313269      -280.6383 
  54   2.0000     -10.313103      -280.6338 
  55   2.0000     -10.312899      -280.6283 
  56   2.0000     -10.311739      -280.5967 
  57   2.0000     -10.311470      -280.5894 
  58   2.0000     -10.310375      -280.5596 
  59   2.0000     -10.309725      -280.5419 
  60   2.0000     -10.309167      -280.5267 
  61   2.0000     -10.306949      -280.4664 
  62   2.0000     -10.306484      -280.4537 
  63   2.0000     -10.306078      -280.4426 
  64   2.0000     -10.305789      -280.4348 
  65   2.0000     -10.305674      -280.4316 
  66   2.0000     -10.305195      -280.4186 
  67   2.0000     -10.304876      -280.4099 
  68   2.0000     -10.303806      -280.3808 
  69   2.0000     -10.303699      -280.3779 
  70   2.0000     -10.303449      -280.3711 
  71   2.0000     -10.302695      -280.3506 
  72   2.0000     -10.302526      -280.3460 
  73   2.0000     -10.301983      -280.3312 
  74   2.0000     -10.298320      -280.2315 
  75   2.0000     -10.297347      -280.2050 
  76   2.0000     -10.296500      -280.1820 
  77   2.0000      -8.155642      -221.9263 
  78   2.0000      -8.070761      -219.6166 
  79   2.0000      -8.064493      -219.4460 
  80   2.0000      -8.061686      -219.3696 
  81   2.0000      -8.061505      -219.3647 
  82   2.0000      -6.126731      -166.7168 
  83   2.0000      -6.118773      -166.5003 
  84   2.0000      -6.118551      -166.4942 
  85   2.0000      -6.040200      -164.3622 
  86   2.0000      -6.036249      -164.2547 
  87   2.0000      -6.034306      -164.2018 
  88   2.0000      -6.032342      -164.1484 
  89   2.0000      -6.031509      -164.1257 
  90   2.0000      -6.031143      -164.1157 
  91   2.0000      -6.029747      -164.0778 
  92   2.0000      -6.026972      -164.0022 
  93   2.0000      -6.026696      -163.9947 
  94   2.0000      -6.025971      -163.9750 
  95   2.0000      -6.023146      -163.8981 
  96   2.0000      -6.023075      -163.8962 
  97   2.0000      -1.323463       -36.0132 
  98   2.0000      -1.323074       -36.0027 
  99   2.0000      -1.308579       -35.6083 
 100   2.0000      -1.308186       -35.5976 
 101   2.0000      -1.161941       -31.6180 
 102   2.0000      -1.142143       -31.0793 
 103   2.0000      -1.142046       -31.0767 
 104   2.0000      -1.136196       -30.9175 
 105   2.0000      -1.070022       -29.1168 
 106   2.0000      -1.030297       -28.0358 
 107   2.0000      -1.027155       -27.9503 
 108   2.0000      -1.023935       -27.8627 
 109   2.0000      -1.023200       -27.8427 
 110   2.0000      -1.020695       -27.7745 
 111   2.0000      -1.016213       -27.6526 
 112   2.0000      -1.013223       -27.5712 
 113   2.0000      -1.007924       -27.4270 
 114   2.0000      -1.007674       -27.4202 
 115   2.0000      -0.999389       -27.1948 
 116   2.0000      -0.997982       -27.1565 
 117   2.0000      -0.997069       -27.1316 
 118   2.0000      -0.985411       -26.8144 
 119   2.0000      -0.984944       -26.8017 
 120   2.0000      -0.967423       -26.3249 
 121   2.0000      -0.958347       -26.0779 
 122   2.0000      -0.935084       -25.4449 
 123   2.0000      -0.933750       -25.4086 
 124   2.0000      -0.926550       -25.2127 
 125   2.0000      -0.915093       -24.9009 
 126   2.0000      -0.907517       -24.6948 
 127   2.0000      -0.901935       -24.5429 
 128   2.0000      -0.895713       -24.3736 
 129   2.0000      -0.894774       -24.3480 
 130   2.0000      -0.883736       -24.0477 
 131   2.0000      -0.880461       -23.9585 
 132   2.0000      -0.873551       -23.7705 
 133   2.0000      -0.870051       -23.6753 
 134   2.0000      -0.854661       -23.2565 
 135   2.0000      -0.843712       -22.9586 
 136   2.0000      -0.843570       -22.9547 
 137   2.0000      -0.834259       -22.7014 
 138   2.0000      -0.830691       -22.6042 
 139   2.0000      -0.822049       -22.3691 
 140   2.0000      -0.815494       -22.1907 
 141   2.0000      -0.809855       -22.0373 
 142   2.0000      -0.803230       -21.8570 
 143   2.0000      -0.777453       -21.1556 
 144   2.0000      -0.771939       -21.0055 
 145   2.0000      -0.769677       -20.9440 
 146   2.0000      -0.760930       -20.7060 
 147   2.0000      -0.750473       -20.4214 
 148   2.0000      -0.741745       -20.1839 
 149   2.0000      -0.731219       -19.8975 
 150   2.0000      -0.724089       -19.7035 
 151   2.0000      -0.721118       -19.6226 
 152   2.0000      -0.719008       -19.5652 
 153   2.0000      -0.714032       -19.4298 
 154   2.0000      -0.712307       -19.3829 
 155   2.0000      -0.698889       -19.0177 
 156   2.0000      -0.690155       -18.7801 
 157   2.0000      -0.687477       -18.7072 
 158   2.0000      -0.678231       -18.4556 
 159   2.0000      -0.677686       -18.4408 
 160   2.0000      -0.670670       -18.2499 
 161   2.0000      -0.667205       -18.1556 
 162   2.0000      -0.659754       -17.9528 
 163   2.0000      -0.658419       -17.9165 
 164   2.0000      -0.653599       -17.7853 
 165   2.0000      -0.648988       -17.6599 
 166   2.0000      -0.645452       -17.5637 
 167   2.0000      -0.645143       -17.5552 
 168   2.0000      -0.643631       -17.5141 
 169   2.0000      -0.639207       -17.3937 
 170   2.0000      -0.632321       -17.2063 
 171   2.0000      -0.625594       -17.0233 
 172   2.0000      -0.618758       -16.8373 
 173   2.0000      -0.615731       -16.7549 
 174   2.0000      -0.607765       -16.5381 
 175   2.0000      -0.599426       -16.3112 
 176   2.0000      -0.596240       -16.2245 
 177   2.0000      -0.591864       -16.1054 
 178   2.0000      -0.591108       -16.0849 
 179   2.0000      -0.589669       -16.0457 
 180   2.0000      -0.587841       -15.9960 
 181   2.0000      -0.587496       -15.9866 
 182   2.0000      -0.585735       -15.9387 
 183   2.0000      -0.582046       -15.8383 
 184   2.0000      -0.576310       -15.6822 
 185   2.0000      -0.575887       -15.6707 
 186   2.0000      -0.571712       -15.5571 
 187   2.0000      -0.557882       -15.1807 
 188   2.0000      -0.557348       -15.1662 
 189   2.0000      -0.554718       -15.0947 
 190   2.0000      -0.549862       -14.9625 
 191   2.0000      -0.549412       -14.9503 
 192   2.0000      -0.549040       -14.9401 
 193   2.0000      -0.545867       -14.8538 
 194   2.0000      -0.545310       -14.8386 
 195   2.0000      -0.540941       -14.7197 
 196   2.0000      -0.536999       -14.6125 
 197   2.0000      -0.535946       -14.5838 
 198   2.0000      -0.532771       -14.4974 
 199   2.0000      -0.531302       -14.4575 
 200   2.0000      -0.529418       -14.4062 
 201   2.0000      -0.527939       -14.3659 
 202   2.0000      -0.525949       -14.3118 
 203   2.0000      -0.520284       -14.1576 
 204   2.0000      -0.519350       -14.1322 
 205   2.0000      -0.518038       -14.0965 
 206   2.0000      -0.512481       -13.9453 
 207   2.0000      -0.509349       -13.8601 
 208   2.0000      -0.506187       -13.7741 
 209   2.0000      -0.504341       -13.7238 
 210   2.0000      -0.503999       -13.7145 
 211   2.0000      -0.501995       -13.6600 
 212   2.0000      -0.499502       -13.5921 
 213   2.0000      -0.497665       -13.5422 
 214   2.0000      -0.494997       -13.4696 
 215   2.0000      -0.493546       -13.4301 
 216   2.0000      -0.489605       -13.3228 
 217   2.0000      -0.489413       -13.3176 
 218   2.0000      -0.486821       -13.2471 
 219   2.0000      -0.482164       -13.1203 
 220   2.0000      -0.478792       -13.0286 
 221   2.0000      -0.473292       -12.8789 
 222   2.0000      -0.472858       -12.8671 
 223   2.0000      -0.471262       -12.8237 
 224   2.0000      -0.468914       -12.7598 
 225   2.0000      -0.467508       -12.7215 
 226   2.0000      -0.466735       -12.7005 
 227   2.0000      -0.465512       -12.6672 
 228   2.0000      -0.464975       -12.6526 
 229   2.0000      -0.461410       -12.5556 
 230   2.0000      -0.456428       -12.4200 
 231   2.0000      -0.455412       -12.3924 
 232   2.0000      -0.453253       -12.3336 
 233   2.0000      -0.452827       -12.3221 
 234   2.0000      -0.449938       -12.2434 
 235   2.0000      -0.448900       -12.2152 
 236   2.0000      -0.447338       -12.1727 
 237   2.0000      -0.446891       -12.1605 
 238   2.0000      -0.443770       -12.0756 
 239   2.0000      -0.439784       -11.9671 
 240   2.0000      -0.437737       -11.9114 
 241   2.0000      -0.435402       -11.8479 
 242   2.0000      -0.433439       -11.7945 
 243   2.0000      -0.433092       -11.7850 
 244   2.0000      -0.432783       -11.7766 
 245   2.0000      -0.431934       -11.7535 
 246   2.0000      -0.430693       -11.7197 
 247   2.0000      -0.428395       -11.6572 
 248   2.0000      -0.425316       -11.5734 
 249   2.0000      -0.424391       -11.5483 
 250   2.0000      -0.417534       -11.3617 
 251   2.0000      -0.413084       -11.2406 
 252   2.0000      -0.409874       -11.1532 
 253   2.0000      -0.400744       -10.9048 
 254   2.0000      -0.398566       -10.8455 
 255   2.0000      -0.397803       -10.8248 
 256   2.0000      -0.389553       -10.6003 
 257   2.0000      -0.387678       -10.5493 
 258   2.0000      -0.387335       -10.5399 
 259   2.0000      -0.374928       -10.2023 
 260   2.0000      -0.372679       -10.1411 
 261   2.0000      -0.366414        -9.9706 
 262   2.0000      -0.366013        -9.9597 
 263   2.0000      -0.359469        -9.7817 
 264   2.0000      -0.354943        -9.6585 
 265   2.0000      -0.341627        -9.2961 
 266   2.0000      -0.339076        -9.2267 
 267   2.0000      -0.325204        -8.8493 
 268   2.0000      -0.321289        -8.7427 
 269   2.0000      -0.320227        -8.7138 
 270   2.0000      -0.309979        -8.4349 
 271   2.0000      -0.306680        -8.3452 
 272   2.0000      -0.303994        -8.2721 
 273   2.0000      -0.302229        -8.2241 
 274   2.0000      -0.286870        -7.8061 
 275   2.0000      -0.252517        -6.8713 
 276   0.0000      -0.147254        -4.0070 
 277   0.0000      -0.099039        -2.6950 
 278   0.0000      -0.096303        -2.6205 
 279   0.0000      -0.068729        -1.8702 
 280   0.0000      -0.064433        -1.7533 
 281   0.0000      -0.060764        -1.6535 
 282   0.0000      -0.054298        -1.4775 
 283   0.0000      -0.040889        -1.1127 
 284   0.0000      -0.033366        -0.9079 
 285   0.0000      -0.010480        -0.2852 
 286   0.0000       0.008803         0.2395 
 287   0.0000       0.026702         0.7266 
 288   0.0000       0.032234         0.8771 
 289   0.0000       0.032701         0.8899 
 290   0.0000       0.033726         0.9177 
 291   0.0000       0.035517         0.9665 
 292   0.0000       0.035711         0.9717 
 293   0.0000       0.037460         1.0193 
 294   0.0000       0.039451         1.0735 
 295   0.0000       0.051272         1.3952 
 296   0.0000       0.053048         1.4435 
 297   0.0000       0.055099         1.4993 
 298   0.0000       0.062814         1.7093 
 299   0.0000       0.067300         1.8313 
 300   0.0000       0.080523         2.1911 
 301   0.0000       0.081218         2.2100 
 302   0.0000       0.081750         2.2245 
 303   0.0000       0.083889         2.2827 
 304   0.0000       0.090184         2.4540 
 305   0.0000       0.092069         2.5053 
 306   0.0000       0.092347         2.5129 
 307   0.0000       0.092917         2.5284 
 308   0.0000       0.098612         2.6834 
 309   0.0000       0.105849         2.8803 
 310   0.0000       0.106022         2.8850 
 311   0.0000       0.106967         2.9107 
 312   0.0000       0.107597         2.9279 
 313   0.0000       0.112163         3.0521 
 314   0.0000       0.114822         3.1245 
 315   0.0000       0.117267         3.1910 
 316   0.0000       0.118318         3.2196 
 317   0.0000       0.120910         3.2901 
 318   0.0000       0.124095         3.3768 
 319   0.0000       0.131544         3.5795 
 320   0.0000       0.133646         3.6367 
 321   0.0000       0.140163         3.8140 
 322   0.0000       0.146687         3.9916 
 323   0.0000       0.147864         4.0236 
 324   0.0000       0.150309         4.0901 
 325   0.0000       0.153539         4.1780 
 326   0.0000       0.155909         4.2425 
 327   0.0000       0.158082         4.3016 
 328   0.0000       0.163041         4.4366 
 329   0.0000       0.164120         4.4659 
 330   0.0000       0.166152         4.5212 
 331   0.0000       0.166314         4.5256 
 332   0.0000       0.170300         4.6341 
 333   0.0000       0.173917         4.7325 
 334   0.0000       0.180147         4.9021 
 335   0.0000       0.183044         4.9809 
 336   0.0000       0.185240         5.0406 
 337   0.0000       0.188705         5.1349 
 338   0.0000       0.196902         5.3580 
 339   0.0000       0.200589         5.4583 
 340   0.0000       0.205097         5.5810 
 341   0.0000       0.213693         5.8149 
 342   0.0000       0.215066         5.8522 
 343   0.0000       0.215727         5.8702 
[...]
  48   4.627     267.9   0.010644   0.010488   3.398799   6.487774     0.17 ( 102-> 106)    0.10 (  96-> 106)    0.09 ( 100-> 108)
  49   4.634     267.5   0.006537   0.005381   4.077444   3.679160     0.19 ( 103-> 109)    0.11 (  99-> 109)    0.10 ( 100-> 111)
  50   4.660     266.1   0.005445   0.003875  17.203366  17.207086     0.20 (  96-> 107)    0.05 ( 101-> 107)    0.05 ( 102-> 107)
  51   4.692     264.3   0.102777   0.088952  -17.886727  -14.186251     0.31 ( 103-> 110)    0.06 (  96-> 109)    0.06 ( 104-> 109)
  52   4.710     263.2   0.029344   0.022822  -15.836462  -12.708432     0.28 ( 100-> 111)    0.13 ( 102-> 111)    0.07 (  99-> 108)
  53   4.755     260.8   0.005115   0.007892  -1.457997   0.379547     0.84 (  77-> 105)    0.02 (  77-> 107)    0.02 (  79-> 105)
  54   4.768     260.0   0.000723   0.000671   2.646609   4.762340     0.37 (  92-> 108)    0.27 (  92-> 106)    0.07 (  92-> 110)
  55   4.776     259.6   0.012639   0.011538   6.165885  11.539274     0.29 (  99-> 111)    0.14 (  99-> 110)    0.05 ( 101-> 111)
  56   4.826     256.9   0.004297   0.003893  -44.713229  -42.137668     0.17 ( 101-> 107)    0.15 (  99-> 111)    0.12 (  99-> 110)
  57   4.838     256.3   0.075798   0.061164  34.390415  25.006584     0.12 (  99-> 110)    0.11 (  98-> 110)    0.06 (  98-> 109)
  58   4.858     255.2   0.168941   0.143335  154.275719  146.280831     0.25 (  97-> 109)    0.07 ( 104-> 114)    0.06 (  99-> 111)
  59   4.875     254.3   0.011276   0.008131  -129.142451  -112.323370     0.43 ( 104-> 114)    0.06 ( 103-> 113)    0.04 (  97-> 109)
  60   4.880     254.1   0.006435   0.005797  -45.783115  -47.827753     0.32 (  92-> 107)    0.23 (  92-> 111)    0.06 (  92-> 105)
  61   4.927     251.6   0.037877   0.032224  -24.730559  -24.777046     0.19 (  99-> 107)    0.14 ( 101-> 107)    0.13 (  96-> 106)
  62   4.944     250.8   0.045990   0.035836  -116.144937  -97.922592     0.14 ( 100-> 106)    0.13 ( 102-> 106)    0.12 (  96-> 107)

-----------------------------------------------------------------------------
         ABSORPTION SPECTRUM VIA TRANSITION ELECTRIC DIPOLE MOMENTS
-----------------------------------------------------------------------------
State   Energy  Wavelength   fosc         T2         TX        TY        TZ  
        (cm-1)    (nm)                  (au**2)     (au)      (au)      (au) 
-----------------------------------------------------------------------------
   0    8192.3   1220.7   0.866182981  34.80792  -2.22792  -5.41526   0.72063
   1   16434.2    608.5   0.004507395   0.09029  -0.10599  -0.14818  -0.23896
   2   17922.1    558.0   0.008893442   0.16336   0.24342   0.32198  -0.02089
   3   18702.7    534.7   0.017477110   0.30764  -0.17559   0.42411  -0.31135
   4   19280.2    518.7   0.914782831  15.62001  -2.11646  -3.32656   0.27321
   5   20247.7    493.9   0.613516246   9.97531   1.25952   2.89497  -0.08990
   6   23223.0    430.6   0.025986182   0.36838  -0.23896  -0.45581   0.32175
   7   23479.1    425.9   0.002540679   0.03562   0.13050   0.04063  -0.13016
   8   24091.6    415.1   0.003208239   0.04384  -0.13621   0.08475   0.13455
   9   24608.3    406.4   0.107553039   1.43886   0.42116  -0.93573   0.62120
  10   24981.1    400.3   0.046830191   0.61715   0.42500   0.62536   0.21318
  11   25669.0    389.6   0.080538824   1.03293  -0.68034  -0.73425  -0.17595
  12   26405.7    378.7   0.000170857   0.00213   0.01278  -0.04001  -0.01913
  13   26954.0    371.0   0.009295626   0.11354   0.32359  -0.05853   0.07347
  14   27134.8    368.5   0.101065802   1.22618  -0.54280  -0.88711  -0.38023
  15   27460.2    364.2   0.087716443   1.05160  -0.73409  -0.57741  -0.42345
  16   27758.2    360.3   0.125434698   1.48766   0.23968   1.19356  -0.07494
  17   28166.9    355.0   0.137173629   1.60327   0.39594  -1.10169   0.48247
  18   28227.1    354.3   0.010693307   0.12472  -0.28124   0.18120  -0.11307
  19   28355.6    352.7   0.041787790   0.48516  -0.43539   0.00015  -0.54369
  20   28985.8    345.0   0.016543872   0.18790  -0.18813   0.05271   0.38695
  21   29279.6    341.5   0.079756367   0.89676   0.70842  -0.41820   0.46905
  22   30136.3    331.8   0.350797807   3.83216   0.94800   1.50790   0.81221
  23   30799.7    324.7   0.097032334   1.03716  -0.52348  -0.84119   0.23563
  24   30869.7    323.9   0.003618647   0.03859   0.15964   0.10661   0.04171
  25   30914.7    323.5   0.033401618   0.35570  -0.34334  -0.44050  -0.20921
  26   31205.5    320.5   0.146179469   1.54217  -0.80208  -0.53988  -0.77934
  27   31243.6    320.1   0.008135756   0.08573   0.12867   0.24729   0.08954
  28   31347.5    319.0   0.658912322   6.91991   1.72163   0.15270   1.98307
  29   31948.5    313.0   0.035592664   0.36676  -0.39612   0.12829  -0.43977
  30   32356.8    309.1   0.150401389   1.53025  -0.35868  -1.14097   0.31588
  31   33055.3    302.5   0.068517657   0.68240   0.20769  -0.77094   0.21192
  32   33218.9    301.0   0.002403678   0.02382   0.01701  -0.15232   0.01818
  33   33577.0    297.8   0.074894561   0.73432  -0.15992  -0.80436   0.24847
  34   33699.9    296.7   0.057003487   0.55686   0.39056   0.63286   0.06179
  35   33882.3    295.1   0.006643730   0.06455  -0.08407   0.23347  -0.05457
  36   34007.0    294.1   0.068560160   0.66371   0.17457   0.63833   0.47516
  37   34207.4    292.3   0.100584444   0.96802  -0.15760   0.92883   0.28366
  38   34746.2    287.8   0.115484886   1.09419   0.78213  -0.17568   0.67201
  39   34898.3    286.5   0.013469367   0.12706   0.31571  -0.15460   0.05904
  40   35067.2    285.2   0.249345701   2.34087  -1.12952   0.13234  -1.02349
  41   35216.5    284.0   0.068864485   0.64376   0.69801   0.18481   0.34983
  42   35334.7    283.0   0.923857209   8.60754  -1.44335  -1.81392  -1.79832
  43   35453.6    282.1   0.050166644   0.46583   0.50672  -0.12673   0.43933
  44   35791.1    279.4   0.028649641   0.26352   0.38815  -0.31289  -0.12232
  45   35910.8    278.5   0.154751694   1.41868  -0.41063   1.06396  -0.34360
  46   36614.7    273.1   0.119967270   1.07866   0.80333  -0.00462   0.65826
  47   36953.0    270.6   0.013114474   0.11684  -0.13602   0.11381  -0.29221
  48   37322.5    267.9   0.010644185   0.09389   0.18303  -0.09914   0.22485
  49   37376.7    267.5   0.006536572   0.05757  -0.06686   0.16459  -0.16128
  50   37582.2    266.1   0.005445438   0.04770   0.00097   0.16052  -0.14810
  51   37842.2    264.3   0.102777175   0.89412  -0.54784  -0.73390  -0.23532
  52   37990.7    263.2   0.029343506   0.25428   0.13565  -0.25580   0.41285
  53   38349.9    260.8   0.005115331   0.04391   0.13902  -0.07388  -0.13830
  54   38458.8    260.0   0.000723478   0.00619   0.03811  -0.05859   0.03616
  55   38520.4    259.6   0.012638649   0.10802  -0.11958   0.30219  -0.04898
  56   38924.1    256.9   0.004296738   0.03634  -0.02588   0.02064  -0.18774
  57   39021.2    256.3   0.075798332   0.63949   0.64762   0.17580   0.43495
  58   39180.9    255.2   0.168941081   1.41951   0.15005  -1.05903   0.52482
  59   39319.3    254.3   0.011276015   0.09441   0.12799   0.14482  -0.23887
  60   39360.6    254.1   0.006435399   0.05383   0.21154  -0.05401  -0.07848
  61   39738.0    251.6   0.037877212   0.31380   0.01316   0.41599  -0.37494
  62   39877.1    250.8   0.045989806   0.37968   0.55638   0.25956   0.05244

-----------------------------------------------------------------------------
         ABSORPTION SPECTRUM VIA TRANSITION VELOCITY DIPOLE MOMENTS
-----------------------------------------------------------------------------
State   Energy  Wavelength   fosc         P2         PX        PY        PZ  
        (cm-1)    (nm)                  (au**2)     (au)      (au)      (au) 
-----------------------------------------------------------------------------
   0    8192.3   1220.7   2.107178678   0.11798  -0.12478  -0.31656   0.04694
   1   16434.2    608.5   0.004817286   0.00054  -0.00788  -0.01248  -0.01798
   2   17922.1    558.0   0.009357793   0.00115   0.01909   0.02771  -0.00376
   3   18702.7    534.7   0.014013559   0.00179  -0.00874   0.03716  -0.01827
   4   19280.2    518.7   0.943879513   0.12438  -0.19210  -0.29489   0.02265
   5   20247.7    493.9   0.639053296   0.08843   0.11698   0.27322  -0.01001
   6   23223.0    430.6   0.020536581   0.00326  -0.02172  -0.04135   0.03283
   7   23479.1    425.9   0.004365886   0.00070   0.01886   0.00063  -0.01856
   8   24091.6    415.1   0.003384646   0.00056  -0.01625   0.00975   0.01407
   9   24608.3    406.4   0.120484146   0.02026   0.05383  -0.10660   0.07748
  10   24981.1    400.3   0.048552580   0.00829   0.04932   0.07208   0.02572
  11   25669.0    389.6   0.067919908   0.01192  -0.07554  -0.07520  -0.02354
  12   26405.7    378.7   0.000204906   0.00004   0.00116  -0.00522  -0.00289
  13   26954.0    371.0   0.009815327   0.00181   0.04080  -0.00554   0.01063
  14   27134.8    368.5   0.090417402   0.01677  -0.06413  -0.10242  -0.04653
  15   27460.2    364.2   0.080675792   0.01514  -0.08901  -0.06553  -0.05408
  16   27758.2    360.3   0.108228274   0.02053   0.02630   0.14034  -0.01206
  17   28166.9    355.0   0.123093528   0.02370   0.04841  -0.13521   0.05542
  18   28227.1    354.3   0.010329283   0.00199  -0.03645   0.02118  -0.01467
  19   28355.6    352.7   0.031335587   0.00607  -0.04859  -0.00157  -0.06090
  20   28985.8    345.0   0.017519768   0.00347  -0.02761  -0.00024   0.05204
  21   29279.6    341.5   0.082207754   0.01645   0.09250  -0.06096   0.06464
  22   30136.3    331.8   0.333143815   0.06862   0.12581   0.20289   0.10780
  23   30799.7    324.7   0.090345122   0.01902  -0.07328  -0.11320   0.02888
  24   30869.7    323.9   0.003737920   0.00079   0.02305   0.01474   0.00632
  25   30914.7    323.5   0.030488919   0.00644  -0.04617  -0.05895  -0.02889
  26   31205.5    320.5   0.132454817   0.02825  -0.10857  -0.07367  -0.10505
  27   31243.6    320.1   0.007190145   0.00154   0.01645   0.03367   0.01144
  28   31347.5    319.0   0.611739104   0.13106   0.23765   0.02128   0.27227
  29   31948.5    313.0   0.033628679   0.00734  -0.05526   0.01901  -0.06267
  30   32356.8    309.1   0.142219862   0.03145  -0.04996  -0.16399   0.04542
  31   33055.3    302.5   0.063378121   0.01432   0.03078  -0.11117   0.03179
  32   33218.9    301.0   0.002335074   0.00053   0.00253  -0.02282   0.00166
  33   33577.0    297.8   0.071442297   0.01639  -0.02577  -0.12053   0.03469
  34   33699.9    296.7   0.055771480   0.01285   0.05716   0.09765   0.00651
  35   33882.3    295.1   0.006576141   0.00152  -0.01144   0.03616  -0.00920
  36   34007.0    294.1   0.058418656   0.01358   0.02326   0.09113   0.06879
  37   34207.4    292.3   0.093962274   0.02197  -0.02270   0.14068   0.04075
  38   34746.2    287.8   0.102071759   0.02424   0.11496  -0.03106   0.10029
  39   34898.3    286.5   0.011123006   0.00265   0.04514  -0.02397   0.00635
  40   35067.2    285.2   0.219920135   0.05271  -0.17176   0.01506  -0.15159
  41   35216.5    284.0   0.060521279   0.01457   0.10506   0.02647   0.05318
  42   35334.7    283.0   0.812370394   0.19618  -0.21987  -0.26882  -0.27492
  43   35453.6    282.1   0.043210461   0.01047   0.07460  -0.02146   0.06667
  44   35791.1    279.4   0.024332650   0.00595   0.05700  -0.04848  -0.01877
  45   35910.8    278.5   0.124424672   0.03054  -0.06339   0.15473  -0.05079
  46   36614.7    273.1   0.103669784   0.02594   0.12312  -0.00461   0.10374
  47   36953.0    270.6   0.012130105   0.00306  -0.02065   0.02223  -0.04629
  48   37322.5    267.9   0.010487748   0.00268   0.03154  -0.01347   0.03872
  49   37376.7    267.5   0.005381100   0.00137  -0.00886   0.02687  -0.02396
  50   37582.2    266.1   0.003875063   0.00100  -0.00290   0.01958  -0.02457
  51   37842.2    264.3   0.088952330   0.02301  -0.08672  -0.11877  -0.03713
  52   37990.7    263.2   0.022822352   0.00593   0.02087  -0.03804   0.06359
  53   38349.9    260.8   0.007892381   0.00207   0.03094  -0.01661  -0.02890
  54   38458.8    260.0   0.000670743   0.00018   0.00535  -0.00910   0.00806
  55   38520.4    259.6   0.011538041   0.00304  -0.02105   0.04979  -0.01073
  56   38924.1    256.9   0.003893370   0.00104  -0.00415   0.00472  -0.03156
  57   39021.2    256.3   0.061163714   0.01631   0.10394   0.02798   0.06874
  58   39180.9    255.2   0.143335448   0.03838   0.02432  -0.17379   0.08710
  59   39319.3    254.3   0.008130757   0.00218   0.01876   0.02129  -0.03715
  60   39360.6    254.1   0.005796650   0.00156   0.03499  -0.01005  -0.01529
  61   39738.0    251.6   0.032223953   0.00875  -0.00058   0.06743  -0.06484
  62   39877.1    250.8   0.035836366   0.00977   0.09038   0.03854   0.01060

-------------------------------------------------------------------
                             CD SPECTRUM
-------------------------------------------------------------------
State   Energy Wavelength       R         MX        MY        MZ   
        (cm-1)   (nm)       (1e40*cgs)   (au)      (au)      (au)  
-------------------------------------------------------------------
   0    8192.3   1220.7     41.79053   0.45520  -0.12314   0.23590
   1   16434.2    608.5    -42.29461  -0.03521  -0.11723  -0.66256
   2   17922.1    558.0     18.37974  -0.59380   0.21176   0.07704
   3   18702.7    534.7      9.56276  -0.84836   0.45458   1.22799
   4   19280.2    518.7    -18.29509  -0.80981   0.79097   3.64144
   5   20247.7    493.9    -68.42863   0.01456   0.10854   0.47019
   6   23223.0    430.6    -38.33454   0.61342  -0.10619   0.81058
   7   23479.1    425.9     -6.08667  -0.35941   0.09625  -0.52870
   8   24091.6    415.1     49.05165   1.20762  -0.48196  -0.02045
   9   24608.3    406.4     81.30105   1.39433  -0.84456  -2.77273
  10   24981.1    400.3    -20.16076   0.85809  -0.33919  -0.31452
  11   25669.0    389.6    -10.14058  -1.13385   0.62088   1.54877
  12   26405.7    378.7     -0.23876   0.07131   0.03841  -0.08567
  13   26954.0    371.0     44.72203  -0.37025   0.09216  -0.87819
  14   27134.8    368.5    -106.97638  -0.79615   0.19614  -0.51462
  15   27460.2    364.2    -28.41164  -0.40727   0.11686   0.26204
  16   27758.2    360.3    -22.38577   0.34058   0.06545   0.86451
  17   28166.9    355.0    118.19005   0.78946  -0.66864  -3.21387
  18   28227.1    354.3    -12.40324  -0.50708   0.51313   1.61822
  19   28355.6    352.7    -39.32547  -0.86853   0.29621   0.38876
  20   28985.8    345.0    -111.39302   1.41920  -0.41512   1.96777
  21   29279.6    341.5    216.23339   0.33259  -0.34731  -2.76770
  22   30136.3    331.8     39.70165   5.39101  -2.35015  -2.13650
  23   30799.7    324.7    167.82451   2.58158  -1.26379  -1.79792
  24   30869.7    323.9      0.76361  -0.16591   0.19872   0.04944
  25   30914.7    323.5    -21.01343  -0.91172   0.33475   0.36534
  26   31205.5    320.5    -22.59247  -1.99289   0.81417   1.36404
  27   31243.6    320.1    -31.46746   0.55233  -0.09432   0.95765
  28   31347.5    319.0    -142.95579   6.23156  -2.77564  -4.89046
  29   31948.5    313.0     30.63331  -1.73420   0.86662   2.11041
  30   32356.8    309.1     27.05742   0.84634  -0.27739  -0.40430
  31   33055.3    302.5     63.34291   0.03733  -0.26714  -2.27640
  32   33218.9    301.0     13.32581   0.15667   0.31187  -0.64324
  33   33577.0    297.8     27.14903   0.22657   0.00844  -0.29037
  34   33699.9    296.7     19.63693   0.10107  -0.16298  -0.31779
  35   33882.3    295.1     -3.66373  -0.03286   0.13756   0.35434
  36   34007.0    294.1    -71.44702   2.76080  -1.11160   1.11692
  37   34207.4    292.3    116.86880   2.86108  -0.99411   3.09694
  38   34746.2    287.8    145.59742   0.21750   0.03020  -1.16437
  39   34898.3    286.5    182.68715  -2.07603   1.03315   0.67997
  40   35067.2    285.2    159.30479  -0.28574  -0.18333   0.95194
  41   35216.5    284.0    163.12682  -0.91785   0.52416  -0.42369
  42   35334.7    283.0    -1590.68879  -7.16050   2.92514  -0.95589
  43   35453.6    282.1      5.20761   1.34291  -0.67724  -1.79454
  44   35791.1    279.4    222.24552  -2.19690   0.92845  -1.63843
  45   35910.8    278.5    602.50833   2.28182  -1.07752   1.37540
  46   36614.7    273.1     66.92854   2.34845  -1.33721  -3.30674
  47   36953.0    270.6     19.72190  -1.82329   0.94733   1.50398
  48   37322.5    267.9      3.39880   1.19379  -0.61447  -1.30682
  49   37376.7    267.5      4.07744  -0.38775   0.13548   0.40625
  50   37582.2    266.1     17.20337  -1.26470   0.60332   1.13842
  51   37842.2    264.3    -17.88673  -1.68123   0.69623   1.42020
  52   37990.7    263.2    -15.83646   1.67692  -0.71541  -0.83153
  53   38349.9    260.8     -1.45800  -0.78924   0.07423  -0.87775
  54   38458.8    260.0      2.64661   0.25408  -0.06067  -0.67658
  55   38520.4    259.6      6.16588  -0.12590   0.13495   1.67399
  56   38924.1    256.9    -44.71323   0.21036  -0.18466  -1.05968
  57   39021.2    256.3     34.39041   2.79639  -1.25273  -3.99280
  58   39180.9    255.2    154.27572   1.50428  -0.64920  -2.98716
  59   39319.3    254.3    -129.14245   0.51178  -0.61216  -2.39051
  60   39360.6    254.1    -45.78312   0.25473   0.27516  -1.97755
  61   39738.0    251.6    -24.73056  -0.93276   0.39354   0.12408
  62   39877.1    250.8    -116.14494   1.75771  -1.05502  -4.03090

sTD-DFT done

Total run time:        3.754 sec

           *** ORCA-CIS/TD-DFT FINISHED WITHOUT ERROR ***

-------------------------   --------------------
FINAL SINGLE POINT ENERGY     -5225.946208053265
-------------------------   --------------------


                            ***************************************
                            *     ORCA property calculations      *
                            ***************************************

                                    ---------------------
                                    Active property flags
                                    ---------------------
   (+) Dipole Moment


------------------------------------------------------------------------------
                       ORCA ELECTRIC PROPERTIES CALCULATION
------------------------------------------------------------------------------

Dipole Moment Calculation                       ... on
Quadrupole Moment Calculation                   ... off
Polarizability Calculation                      ... off
GBWName                                         ... xtbopt.gbw
Electron density file                           ... xtbopt.scfp
The origin for moment calculation is the CENTER OF MASS  = (-9.239240, -23.067198  1.291428)

-------------
DIPOLE MOMENT
-------------
                                X             Y             Z
Electronic contribution:      0.94825       0.58844      -1.03367
Nuclear contribution   :      2.11433      -2.61958       3.43688
                        -----------------------------------------
Total Dipole Moment    :      3.06258      -2.03114       2.40321
                        -----------------------------------------
Magnitude (a.u.)       :      4.39094
Magnitude (Debye)      :     11.16088



--------------------
Rotational spectrum 
--------------------
 
Rotational constants in cm-1:     0.002516     0.000163     0.000155 
Rotational constants in MHz :    75.415123     4.895880     4.646888 

 Dipole components along the rotational axes: 
x,y,z [a.u.] :    -0.405997    -4.185076    -1.265170 
x,y,z [Debye]:    -1.031962   -10.637619    -3.215807 

 

Timings for individual modules:

Sum of individual times         ...      611.279 sec (=  10.188 min)
GTO integral calculation        ...        3.764 sec (=   0.063 min)   0.6 %
SCF iterations                  ...      603.049 sec (=  10.051 min)  98.7 %
CIS module                      ...        4.465 sec (=   0.074 min)   0.7 %
                             ****ORCA TERMINATED NORMALLY****
TOTAL RUN TIME: 0 days 0 hours 10 minutes 12 seconds 309 msec
