
                                 *****************
                                 * O   R   C   A *
                                 *****************

           --- An Ab Initio, DFT and Semiempirical electronic structure package ---

                  #######################################################
                  #                        -***-                        #
                  #          Department of theory and spectroscopy      #
                  #               Directorship: Frank Neese             #
                  #        Max Planck Institute fuer Kohlenforschung    #
                  #                Kaiser Wilhelm Platz 1               #
                  #                 D-45470 Muelheim/Ruhr               #
                  #                      Germany                        #
                  #                                                     #
                  #                  All rights reserved                #
                  #                        -***-                        #
                  #######################################################


                         Program Version 4.2.0 -  RELEASE  -


 With contributions from (in alphabetic order):
   Daniel Aravena         : Magnetic Suceptibility
   Michael Atanasov       : Ab Initio Ligand Field Theory (pilot matlab implementation)
   Alexander A. Auer      : GIAO ZORA, VPT2
   Ute Becker             : Parallelization
   Giovanni Bistoni       : ED, misc. LED, open-shell LED, HFLED
   Martin Brehm           : Molecular dynamics
   Dmytro Bykov           : SCF Hessian
   Vijay G. Chilkuri      : MRCI spin determinant printing, contributions to CSF-ICE
   Dipayan Datta          : RHF DLPNO-CCSD density
   Achintya Kumar Dutta   : EOM-CC, STEOM-CC
   Dmitry Ganyushin       : Spin-Orbit,Spin-Spin,Magnetic field MRCI
   Miquel Garcia          : C-PCM Hessian, Gaussian charge scheme
   Yang Guo               : DLPNO-NEVPT2, CIM, IAO-localization
   Andreas Hansen         : Spin unrestricted coupled pair/coupled cluster methods
   Benjamin Helmich-Paris : CASSCF linear response (MC-RPA)
   Lee Huntington         : MR-EOM, pCC
   Robert Izsak           : Overlap fitted RIJCOSX, COSX-SCS-MP3, EOM
   Christian Kollmar      : KDIIS, OOCD, Brueckner-CCSD(T), CCSD density
   Simone Kossmann        : Meta GGA functionals, TD-DFT gradient, OOMP2, MP2 Hessian
   Martin Krupicka        : AUTO-CI
   Lucas Lang             : DCDCAS
   Dagmar Lenk            : GEPOL surface, SMD
   Dimitrios Liakos       : Extrapolation schemes; Compound Job, initial MDCI parallelization
   Dimitrios Manganas     : Further ROCIS development; embedding schemes
   Dimitrios Pantazis     : SARC Basis sets
   Taras Petrenko         : DFT Hessian,TD-DFT gradient, ASA, ECA, R-Raman, ABS, FL, XAS/XES, NRVS
   Peter Pinski           : DLPNO-MP2, DLPNO-MP2 Gradient
   Christoph Reimann      : Effective Core Potentials
   Marius Retegan         : Local ZFS, SOC
   Christoph Riplinger    : Optimizer, TS searches, QM/MM, DLPNO-CCSD(T), (RO)-DLPNO pert. Triples
   Tobias Risthaus        : Range-separated hybrids, TD-DFT gradient, RPA, STAB
   Michael Roemelt        : Original ROCIS implementation
   Masaaki Saitow         : Open-shell DLPNO-CCSD energy and density
   Barbara Sandhoefer     : DKH picture change effects
   Avijit Sen             : IP-ROCIS
   Kantharuban Sivalingam : CASSCF convergence, NEVPT2, FIC-MRCI
   Bernardo de Souza      : ESD, SOC TD-DFT
   Georgi Stoychev        : AutoAux, RI-MP2 NMR
   Willem Van den Heuvel  : Paramagnetic NMR
   Boris Wezisla          : Elementary symmetry handling
   Frank Wennmohs         : Technical directorship


 We gratefully acknowledge several colleagues who have allowed us to
 interface, adapt or use parts of their codes:
   Stefan Grimme, W. Hujo, H. Kruse,             : VdW corrections, initial TS optimization,
                  C. Bannwarth                     DFT functionals, gCP, sTDA/sTD-DF
   Ed Valeev, F. Pavosevic, A. Kumar             : LibInt (2-el integral package), F12 methods
   Garnet Chan, S. Sharma, J. Yang, R. Olivares  : DMRG
   Ulf Ekstrom                                   : XCFun DFT Library
   Mihaly Kallay                                 : mrcc  (arbitrary order and MRCC methods)
   Andreas Klamt, Michael Diedenhofen            : otool_cosmo (COSMO solvation model)
   Jiri Pittner, Ondrej Demel                    : Mk-CCSD
   Frank Weinhold                                : gennbo (NPA and NBO analysis)
   Christopher J. Cramer and Donald G. Truhlar   : smd solvation model
   Lars Goerigk                                  : TD-DFT with DH, B97 family of functionals
   V. Asgeirsson, H. Jonsson                     : NEB implementation
   FAccTs GmbH                                   : IRC, NEB, NEB-TS, Multilevel, MM, QM/MM, CI optimization
   S Lehtola, MJT Oliveira, MAL Marques          : LibXC Library


 Your calculation uses the libint2 library for the computation of 2-el integrals
 For citations please refer to: http://libint.valeyev.net

 Your ORCA version has been built with support for libXC version: 4.2.3
 For citations please refer to: https://tddft.org/programs/libxc/

 This ORCA versions uses:
   CBLAS   interface :  Fast vector & matrix operations
   LAPACKE interface :  Fast linear algebra routines
   SCALAPACK package :  Parallel linear algebra routines


XCFun DFT library Copyright 2009-2010 Ulf Ekstrom and contributors.
See http://admol.org/xcfun for more information. This is free soft-
ware; see the source code for copying conditions. There is ABSOLUTELY
NO WARRANTY; not even for MERCHANTABILITY or FITNESS FOR A PARTICULAR
PURPOSE. For details see the documentation. Scientific users of this 
library should cite U. Ekstrom, L. Visscher, R. Bast, A. J. Thorvald-
sen and K. Ruud; J.Chem.Theor.Comp. 2010, DOI: 10.1021/ct100117s
XCFun Version 0.99 
----- Orbital basis set information -----
Your calculation utilizes the basis: def2-SVP
   F. Weigend and R. Ahlrichs, Phys. Chem. Chem. Phys. 7, 3297 (2005).

----- AuxJ basis set information -----
Your calculation utilizes the auxiliary basis: def2/J
   F. Weigend, Phys. Chem. Chem. Phys. 8, 1057 (2006).

================================================================================
                                        WARNINGS
                       Please study these warnings very carefully!
================================================================================

INFO   : Checking CIS options ...

WARNING: CIS/ROCIS methods need fully converged wavefunctions
  ===> : Setting SCFConvForced true
         You can overwrite this default with %scf ConvForced false 


INFO   : the flag for use of LIBINT has been found!

================================================================================
                                       INPUT FILE
================================================================================
NAME = xtbopt.inp
|  1> # ORCA input file
|  2> # SCF done       -226.898973186854          0.000709694185
|  3> ! CAM-B3LYP def2-SVP def2/J RIJCOSX Grid4 TightSCF
|  4> %maxcore 5000
|  5> %tddft
|  6>     Mode sTDDFT
|  7>     Ethresh 5.0
|  8>     maxcore 5000
|  9> end
| 10> 
| 11> %pal
| 12>   nprocs 6
| 13>   end
| 14> * xyz 0 1
| 15>    C       -5.37390         5.87961        11.43318
| 16>    C       -5.95052         5.03316        10.51877
| 17>    C       -7.33728         4.94486        10.29516
| 18>    N       -8.45633         4.85461        10.05287
| 19>    C       -5.21633         4.08551         9.77882
| 20>    N       -4.65845         3.26758         9.19661
| 21>    C       -6.09211         6.61919        12.46597
| 22>    C       -5.17670         6.92645        13.51494
| 23>    C       -5.57673         7.57315        14.64773
| 24>    C       -6.93026         7.95977        14.77936
| 25>    C       -7.84539         7.67206        13.72604
| 26>    C       -7.40451         6.99183        12.56690
| 27>    C       -9.19002         8.07008        13.86788
| 28>    C       -9.61397         8.71698        14.99673
| 29>    C       -8.71288         8.99751        16.03434
| 30>    C       -7.39974         8.62682        15.92775
| 31>    C       -3.82935         6.45342        13.14151
| 32>    O       -2.81446         6.49943        13.79799
| 33>    C       -3.96639         5.96367        11.74215
| 34>    C       -2.84769         5.79843        10.97863
| 35>    C       -2.71068         5.78474         9.57950
| 36>    S       -3.91349         6.33958         8.42466
| 37>    C       -2.91088         6.07068         7.02495
| 38>    C       -1.66555         5.58130         7.44357
| 39>    C       -1.57430         5.45009         8.85644
| 40>    O       -0.37428         4.97697         9.22325
| 41>    C        0.31224         4.79699         8.06133
| 42>    N        1.63354         4.30254         8.12819
| 43>    O        2.20731         4.16295         7.06167
| 44>    O        2.10061         4.05754         9.21896
| 45>    C       -0.41405         5.14382         6.94992
| 46>    C       -3.44142         6.32732         5.74832
| 47>    C       -2.76437         6.17217         4.57790
| 48>    C       -3.30205         6.34930         3.26445
| 49>    C       -4.61975         6.70806         3.04263
| 50>    C       -5.12511         6.79327         1.73501
| 51>    C       -6.40048         7.08888         1.25779
| 52>    C       -7.63141         7.49584         1.99523
| 53>    C       -8.28106         6.33757         2.78849
| 54>    N       -7.39891         5.80151         3.80858
| 55>    C       -7.37677         8.71354         2.90096
| 56>    N       -6.95283         9.83480         2.07908
| 57>    C       -6.33517         6.97021        -0.18154
| 58>    C       -7.29007         7.09896        -1.12008
| 59>    C       -6.99225         6.89449        -2.56844
| 60>    C       -5.55824         6.61290        -2.87675
| 61>    C       -4.62043         6.46712        -1.92349
| 62>    C       -4.95877         6.62087        -0.55621
| 63>    C       -4.23528         6.51220         0.61172
| 64>    C       -2.88131         6.18228         0.86324
| 65>    C       -2.43807         6.10538         2.14107
| 66>    C       -7.57812         8.05254        -3.32956
| 67>    C       -6.87435         8.98057        -3.98383
| 68>    C       -7.47505        10.07154        -4.68480
| 69>    S       -9.19632        10.36622        -4.70925
| 70>    C       -9.07892        11.77838        -5.73397
| 71>    C       -7.73437        12.00156        -6.03936
| 72>    C       -6.86242        11.04575        -5.44475
| 73>    O       -5.57823        11.29995        -5.76946
| 74>    C       -5.62336        12.40476        -6.56194
| 75>    N       -4.39776        12.90735        -7.06381
| 76>    O       -4.46875        13.89887        -7.76453
| 77>    O       -3.38053        12.32084        -6.76517
| 78>    C       -6.89375        12.87933        -6.76517
| 79>    C      -10.20560        12.51424        -6.13708
| 80>    C      -11.48212        12.21880        -5.75658
| 81>    C      -12.58999        12.98025        -6.17505
| 82>    C      -13.88468        12.73717        -5.80167
| 83>    C      -15.06009        13.48804        -6.19838
| 84>    C      -15.10656        14.55589        -7.05900
| 85>    C      -16.28960        15.24172        -7.40578
| 86>    N      -17.21163        15.84261        -7.73293
| 87>    C      -14.00261        15.12478        -7.72663
| 88>    N      -13.15815        15.64456        -8.30700
| 89>    C      -16.21292        12.90067        -5.52305
| 90>    C      -15.76853        11.79815        -4.73887
| 91>    C      -14.31176        11.64670        -4.88560
| 92>    O      -13.61643        10.80186        -4.35827
| 93>    C      -16.63012        11.05000        -3.98960
| 94>    C      -18.00453        11.37640        -3.98807
| 95>    C      -18.45811        12.47822        -4.76918
| 96>    C      -17.54161        13.23413        -5.53598
| 97>    C      -19.83132        12.79680        -4.76027
| 98>    C      -20.71522        12.06372        -4.01602
| 99>    C      -20.26736        10.97920        -3.24711
|100>    C      -18.94082        10.64272        -3.23355
|101>    H       -4.87078         7.78686        15.43641
|102>    H       -8.11513         6.79058        11.78018
|103>    H       -9.88111         7.84837        13.06780
|104>    H      -10.64692         9.01525        15.09675
|105>    H       -9.06395         9.50872        16.91826
|106>    H       -6.70112         8.84027        16.72352
|107>    H       -1.90985         5.75717        11.52545
|108>    H       -0.05950         5.07380         5.94282
|109>    H       -4.47266         6.65035         5.74167
|110>    H       -1.72977         5.86369         4.62435
|111>    H       -5.28646         6.88155         3.86997
|112>    H       -8.37072         7.81645         1.25484
|113>    H       -8.61142         5.57572         2.06381
|114>    H       -9.16912         6.73792         3.28371
|115>    H       -6.74065         5.14717         3.39988
|116>    H       -7.92843         5.30657         4.51614
|117>    H       -6.66145         8.44556         3.68887
|118>    H       -8.31770         8.99481         3.38178
|119>    H       -6.06401         9.62454         1.63557
|120>    H       -6.83036        10.66498         2.64769
|121>    H       -8.31062         7.35516        -0.87127
|122>    H       -7.57196         6.00628        -2.87910
|123>    H       -5.31615         6.49262        -3.92162
|124>    H       -3.59890         6.23542        -2.18664
|125>    H       -2.22022         5.98577         0.03241
|126>    H       -1.40966         5.84430         2.34381
|127>    H       -8.65782         8.12694        -3.30175
|128>    H       -5.79448         8.94500        -4.02355
|129>    H       -7.15631        13.73371        -7.35414
|130>    H      -10.01759        13.36218        -6.78412
|131>    H      -11.65864        11.37336        -5.10612
|132>    H      -12.38243        13.81467        -6.83237
|133>    H      -16.26606        10.21904        -3.40364
|134>    H      -17.91874        14.06205        -6.11465
|135>    H      -20.17150        13.63262        -5.35383
|136>    H      -21.76504        12.31579        -4.01566
|137>    H      -20.97858        10.41184        -2.66563
|138>    H      -18.59001         9.80870        -2.64338
|139> *
|140> 
|141>                          ****END OF INPUT****
================================================================================

                       ****************************
                       * Single Point Calculation *
                       ****************************

---------------------------------
CARTESIAN COORDINATES (ANGSTROEM)
---------------------------------
  C     -5.373900    5.879610   11.433180
  C     -5.950520    5.033160   10.518770
  C     -7.337280    4.944860   10.295160
  N     -8.456330    4.854610   10.052870
  C     -5.216330    4.085510    9.778820
  N     -4.658450    3.267580    9.196610
  C     -6.092110    6.619190   12.465970
  C     -5.176700    6.926450   13.514940
  C     -5.576730    7.573150   14.647730
  C     -6.930260    7.959770   14.779360
  C     -7.845390    7.672060   13.726040
  C     -7.404510    6.991830   12.566900
  C     -9.190020    8.070080   13.867880
  C     -9.613970    8.716980   14.996730
  C     -8.712880    8.997510   16.034340
  C     -7.399740    8.626820   15.927750
  C     -3.829350    6.453420   13.141510
  O     -2.814460    6.499430   13.797990
  C     -3.966390    5.963670   11.742150
  C     -2.847690    5.798430   10.978630
  C     -2.710680    5.784740    9.579500
  S     -3.913490    6.339580    8.424660
  C     -2.910880    6.070680    7.024950
  C     -1.665550    5.581300    7.443570
  C     -1.574300    5.450090    8.856440
  O     -0.374280    4.976970    9.223250
  C      0.312240    4.796990    8.061330
  N      1.633540    4.302540    8.128190
  O      2.207310    4.162950    7.061670
  O      2.100610    4.057540    9.218960
  C     -0.414050    5.143820    6.949920
  C     -3.441420    6.327320    5.748320
  C     -2.764370    6.172170    4.577900
  C     -3.302050    6.349300    3.264450
  C     -4.619750    6.708060    3.042630
  C     -5.125110    6.793270    1.735010
  C     -6.400480    7.088880    1.257790
  C     -7.631410    7.495840    1.995230
  C     -8.281060    6.337570    2.788490
  N     -7.398910    5.801510    3.808580
  C     -7.376770    8.713540    2.900960
  N     -6.952830    9.834800    2.079080
  C     -6.335170    6.970210   -0.181540
  C     -7.290070    7.098960   -1.120080
  C     -6.992250    6.894490   -2.568440
  C     -5.558240    6.612900   -2.876750
  C     -4.620430    6.467120   -1.923490
  C     -4.958770    6.620870   -0.556210
  C     -4.235280    6.512200    0.611720
  C     -2.881310    6.182280    0.863240
  C     -2.438070    6.105380    2.141070
  C     -7.578120    8.052540   -3.329560
  C     -6.874350    8.980570   -3.983830
  C     -7.475050   10.071540   -4.684800
  S     -9.196320   10.366220   -4.709250
  C     -9.078920   11.778380   -5.733970
  C     -7.734370   12.001560   -6.039360
  C     -6.862420   11.045750   -5.444750
  O     -5.578230   11.299950   -5.769460
  C     -5.623360   12.404760   -6.561940
  N     -4.397760   12.907350   -7.063810
  O     -4.468750   13.898870   -7.764530
  O     -3.380530   12.320840   -6.765170
  C     -6.893750   12.879330   -6.765170
  C    -10.205600   12.514240   -6.137080
  C    -11.482120   12.218800   -5.756580
  C    -12.589990   12.980250   -6.175050
  C    -13.884680   12.737170   -5.801670
  C    -15.060090   13.488040   -6.198380
  C    -15.106560   14.555890   -7.059000
  C    -16.289600   15.241720   -7.405780
  N    -17.211630   15.842610   -7.732930
  C    -14.002610   15.124780   -7.726630
  N    -13.158150   15.644560   -8.307000
  C    -16.212920   12.900670   -5.523050
  C    -15.768530   11.798150   -4.738870
  C    -14.311760   11.646700   -4.885600
  O    -13.616430   10.801860   -4.358270
  C    -16.630120   11.050000   -3.989600
  C    -18.004530   11.376400   -3.988070
  C    -18.458110   12.478220   -4.769180
  C    -17.541610   13.234130   -5.535980
  C    -19.831320   12.796800   -4.760270
  C    -20.715220   12.063720   -4.016020
  C    -20.267360   10.979200   -3.247110
  C    -18.940820   10.642720   -3.233550
  H     -4.870780    7.786860   15.436410
  H     -8.115130    6.790580   11.780180
  H     -9.881110    7.848370   13.067800
  H    -10.646920    9.015250   15.096750
  H     -9.063950    9.508720   16.918260
  H     -6.701120    8.840270   16.723520
  H     -1.909850    5.757170   11.525450
  H     -0.059500    5.073800    5.942820
  H     -4.472660    6.650350    5.741670
  H     -1.729770    5.863690    4.624350
  H     -5.286460    6.881550    3.869970
  H     -8.370720    7.816450    1.254840
  H     -8.611420    5.575720    2.063810
  H     -9.169120    6.737920    3.283710
  H     -6.740650    5.147170    3.399880
  H     -7.928430    5.306570    4.516140
  H     -6.661450    8.445560    3.688870
  H     -8.317700    8.994810    3.381780
  H     -6.064010    9.624540    1.635570
  H     -6.830360   10.664980    2.647690
  H     -8.310620    7.355160   -0.871270
  H     -7.571960    6.006280   -2.879100
  H     -5.316150    6.492620   -3.921620
  H     -3.598900    6.235420   -2.186640
  H     -2.220220    5.985770    0.032410
  H     -1.409660    5.844300    2.343810
  H     -8.657820    8.126940   -3.301750
  H     -5.794480    8.945000   -4.023550
  H     -7.156310   13.733710   -7.354140
  H    -10.017590   13.362180   -6.784120
  H    -11.658640   11.373360   -5.106120
  H    -12.382430   13.814670   -6.832370
  H    -16.266060   10.219040   -3.403640
  H    -17.918740   14.062050   -6.114650
  H    -20.171500   13.632620   -5.353830
  H    -21.765040   12.315790   -4.015660
  H    -20.978580   10.411840   -2.665630
  H    -18.590010    9.808700   -2.643380

----------------------------
CARTESIAN COORDINATES (A.U.)
----------------------------
  NO LB      ZA    FRAG     MASS         X           Y           Z
   0 C     6.0000    0    12.011  -10.155199   11.110853   21.605579
   1 C     6.0000    0    12.011  -11.244853    9.511294   19.877595
   2 C     6.0000    0    12.011  -13.865450    9.344431   19.455033
   3 N     7.0000    0    14.007  -15.980148    9.173883   18.997171
   4 C     6.0000    0    12.011   -9.857435    7.720495   18.479292
   5 N     7.0000    0    14.007   -8.803195    6.174831   17.379074
   6 C     6.0000    0    12.011  -11.512419   12.508456   23.557269
   7 C     6.0000    0    12.011   -9.782545   13.089094   25.539535
   8 C     6.0000    0    12.011  -10.538492   14.311179   27.680198
   9 C     6.0000    0    12.011  -13.096293   15.041785   27.928943
  10 C     6.0000    0    12.011  -14.825639   14.498092   25.938457
  11 C     6.0000    0    12.011  -13.992496   13.212644   23.747999
  12 C     6.0000    0    12.011  -17.366621   15.250241   26.206495
  13 C     6.0000    0    12.011  -18.167770   16.472705   28.339713
  14 C     6.0000    0    12.011  -16.464957   17.002830   30.300511
  15 C     6.0000    0    12.011  -13.983482   16.302327   30.099085
  16 C     6.0000    0    12.011   -7.236423   12.195196   24.833855
  17 O     8.0000    0    15.999   -5.318559   12.282143   26.074422
  18 C     6.0000    0    12.011   -7.495391   11.269703   22.189448
  19 C     6.0000    0    12.011   -5.381354   10.957445   20.746604
  20 C     6.0000    0    12.011   -5.122443   10.931574   18.102631
  21 S    16.0000    0    32.060   -7.395424   11.980070   15.920300
  22 C     6.0000    0    12.011   -5.500766   11.471923   13.275232
  23 C     6.0000    0    12.011   -3.147433   10.547128   14.066309
  24 C     6.0000    0    12.011   -2.974996   10.299178   16.736246
  25 O     8.0000    0    15.999   -0.707287    9.405110   17.429417
  26 C     6.0000    0    12.011    0.590048    9.064997   15.233706
  27 N     7.0000    0    14.007    3.086943    8.130622   15.360053
  28 O     8.0000    0    15.999    4.171211    7.866835   13.344622
  29 O     8.0000    0    15.999    3.969578    7.667639   17.421310
  30 C     6.0000    0    12.011   -0.782441    9.720411   13.133445
  31 C     6.0000    0    12.011   -6.503341   11.956902   10.862751
  32 C     6.0000    0    12.011   -5.223902   11.663711    8.650977
  33 C     6.0000    0    12.011   -6.239970   11.998438    6.168916
  34 C     6.0000    0    12.011   -8.730062   12.676396    5.749737
  35 C     6.0000    0    12.011   -9.685054   12.837420    3.278694
  36 C     6.0000    0    12.011  -12.095154   13.396042    2.376879
  37 C     6.0000    0    12.011  -14.421275   14.165085    3.770438
  38 C     6.0000    0    12.011  -15.648935   11.976272    5.269482
  39 N     7.0000    0    14.007  -13.981914   10.963265    7.197173
  40 C     6.0000    0    12.011  -13.940075   16.466204    5.482020
  41 N     7.0000    0    14.007  -13.138945   18.585079    3.928892
  42 C     6.0000    0    12.011  -11.971736   13.171788   -0.343061
  43 C     6.0000    0    12.011  -13.776236   13.415090   -2.116644
  44 C     6.0000    0    12.011  -13.213438   13.028698   -4.853648
  45 C     6.0000    0    12.011  -10.503551   12.496570   -5.436270
  46 C     6.0000    0    12.011   -8.731347   12.221086   -3.634869
  47 C     6.0000    0    12.011   -9.370717   12.511631   -1.051085
  48 C     6.0000    0    12.011   -8.003519   12.306275    1.155983
  49 C     6.0000    0    12.011   -5.444887   11.682816    1.631287
  50 C     6.0000    0    12.011   -4.607285   11.537496    4.046036
  51 C     6.0000    0    12.011  -14.320571   15.217095   -6.291957
  52 C     6.0000    0    12.011  -12.990639   16.970818   -7.528348
  53 C     6.0000    0    12.011  -14.125797   19.032452   -8.852989
  54 S    16.0000    0    32.060  -17.378526   19.589317   -8.899193
  55 C     6.0000    0    12.011  -17.156672   22.257913  -10.835633
  56 C     6.0000    0    12.011  -14.615841   22.679662  -11.412736
  57 C     6.0000    0    12.011  -12.968094   20.873442  -10.289086
  58 O     8.0000    0    15.999  -10.541327   21.353811  -10.902699
  59 C     6.0000    0    12.011  -10.626610   23.441599  -12.400270
  60 N     7.0000    0    14.007   -8.310562   24.391357  -13.348666
  61 O     8.0000    0    15.999   -8.444714   26.265058  -14.672835
  62 O     8.0000    0    15.999   -6.388276   23.283013  -12.784319
  63 C     6.0000    0    12.011  -13.027300   24.338406  -12.784319
  64 C     6.0000    0    12.011  -19.285789   23.648486  -11.597400
  65 C     6.0000    0    12.011  -21.698062   23.090186  -10.878360
  66 C     6.0000    0    12.011  -23.791633   24.529118  -11.669153
  67 C     6.0000    0    12.011  -26.238243   24.069763  -10.963567
  68 C     6.0000    0    12.011  -28.459446   25.488702  -11.713241
  69 C     6.0000    0    12.011  -28.547261   27.506646  -13.339577
  70 C     6.0000    0    12.011  -30.782883   28.802677  -13.994896
  71 N     7.0000    0    14.007  -32.525267   29.938194  -14.613120
  72 C     6.0000    0    12.011  -26.461098   28.581692  -14.601215
  73 N     7.0000    0    14.007  -24.865300   29.563934  -15.697955
  74 C     6.0000    0    12.011  -30.637979   24.378733  -10.437052
  75 C     6.0000    0    12.011  -29.798203   22.295272   -8.955166
  76 C     6.0000    0    12.011  -27.045307   22.009073   -9.232446
  77 O     8.0000    0    15.999  -25.731324   20.412557   -8.235937
  78 C     6.0000    0    12.011  -31.426372   20.881474   -7.539251
  79 C     6.0000    0    12.011  -34.023631   21.498280   -7.536360
  80 C     6.0000    0    12.011  -34.880773   23.580418   -9.012444
  81 C     6.0000    0    12.011  -33.148839   25.008881  -10.461486
  82 C     6.0000    0    12.011  -37.475764   24.182447   -8.995607
  83 C     6.0000    0    12.011  -39.146093   22.797127   -7.589178
  84 C     6.0000    0    12.011  -38.299760   20.747681   -6.136149
  85 C     6.0000    0    12.011  -35.792963   20.111826   -6.110524
  86 H     1.0000    0     1.008   -9.204440   14.715033   29.170587
  87 H     1.0000    0     1.008  -15.335373   12.832336   22.261314
  88 H     1.0000    0     1.008  -18.672592   14.831270   24.694563
  89 H     1.0000    0     1.008  -20.119763   17.036354   28.528723
  90 H     1.0000    0     1.008  -17.128383   17.968877   31.970878
  91 H     1.0000    0     1.008  -12.663282   16.705689   31.602873
  92 H     1.0000    0     1.008   -3.609093   10.879475   21.779944
  93 H     1.0000    0     1.008   -0.112439    9.588092   11.230302
  94 H     1.0000    0     1.008   -8.452102   12.567340   10.850184
  95 H     1.0000    0     1.008   -3.268792   11.080768    8.738755
  96 H     1.0000    0     1.008   -9.989962   13.004245    7.313183
  97 H     1.0000    0     1.008  -15.818368   14.770950    2.371304
  98 H     1.0000    0     1.008  -16.273225   10.536584    3.900036
  99 H     1.0000    0     1.008  -17.327126   12.732824    6.205313
 100 H     1.0000    0     1.008  -12.737982    9.726742    6.424842
 101 H     1.0000    0     1.008  -14.982561   10.027964    8.534268
 102 H     1.0000    0     1.008  -12.588316   15.959795    6.970954
 103 H     1.0000    0     1.008  -15.718175   16.997728    6.390638
 104 H     1.0000    0     1.008  -11.459318   18.187745    3.090779
 105 H     1.0000    0     1.008  -12.907510   20.153891    5.003409
 106 H     1.0000    0     1.008  -15.704796   13.899238   -1.646462
 107 H     1.0000    0     1.008  -14.308931   11.350224   -5.440711
 108 H     1.0000    0     1.008  -10.046068   12.269274   -7.410788
 109 H     1.0000    0     1.008   -6.800935   11.783236   -4.132151
 110 H     1.0000    0     1.008   -4.195608   11.311466    0.061246
 111 H     1.0000    0     1.008   -2.663871   11.044126    4.429159
 112 H     1.0000    0     1.008  -16.360909   15.357691   -6.239403
 113 H     1.0000    0     1.008  -10.949980   16.903600   -7.603408
 114 H     1.0000    0     1.008  -13.523466   25.952951  -13.897311
 115 H     1.0000    0     1.008  -18.930502   25.250861  -12.820129
 116 H     1.0000    0     1.008  -22.031637   21.492536   -9.649168
 117 H     1.0000    0     1.008  -23.399402   26.105943  -12.911308
 118 H     1.0000    0     1.008  -30.738399   19.311187   -6.431947
 119 H     1.0000    0     1.008  -33.861511   26.573423  -11.555014
 120 H     1.0000    0     1.008  -38.118611   25.761918  -10.117272
 121 H     1.0000    0     1.008  -41.129965   23.273470   -7.588498
 122 H     1.0000    0     1.008  -39.643771   19.675526   -5.037311
 123 H     1.0000    0     1.008  -35.130028   18.535757   -4.995264

--------------------------------
INTERNAL COORDINATES (ANGSTROEM)
--------------------------------
 C      0   0   0     0.000000000000     0.00000000     0.00000000
 C      1   0   0     1.372994491977     0.00000000     0.00000000
 C      2   1   0     1.407445068093   123.93757612     0.00000000
 N      3   2   1     1.148530543390   176.81793442   152.11137741
 C      2   1   3     1.408758844196   123.06913808   185.12028310
 N      5   2   1     1.148567831432   176.78443915   126.32115986
 C      1   2   3     1.459266721542   125.24750479    11.93748211
 C      7   1   2     1.425735682586   108.29658211   156.54916718
 C      8   7   1     1.364352621209   121.65243027   182.54027459
 C      9   8   7     1.413805128793   119.18442994   359.38436707
 C     10   9   8     1.424683467792   119.39942683   359.71988753
 C      7   1   2     1.368006284525   131.48606140   338.22630423
 C     11  10   9     1.409456754533   118.77455043   180.35216679
 C     13  11  10     1.368398894694   120.80257715   359.77482693
 C     14  13  11     1.402602859365   120.38349122     0.10455461
 C     15  14  13     1.368615783849   120.30571330     0.00000000
 C      8   7   1     1.475994365945   109.32280425     3.11164997
 O     17   8   7     1.209580349791   128.05448610   182.67128741
 C      1   2   3     1.443472529908   126.01274121   176.98589843
 C     19   1   2     1.364462069095   132.27033931    33.61090866
 C     20  19   1     1.405889011658   129.64032054    16.03089017
 S     21  20  19     1.757343093223   125.74754724    14.75050445
 C     22  21  20     1.742619323375    94.89467089   176.44723957
 C     23  22  21     1.401992260214   108.97073010   359.13891341
 C     21  20  19     1.387863786724   126.91477456   188.53384383
 O     25  21  20     1.341059324154   132.47365966     5.36418973
 C     26  25  21     1.361528772079   105.33196918   177.76972573
 N     27  26  25     1.412368490197   118.52838484   179.81847583
 O     28  27  26     1.219082561355   116.03889361   180.22992459
 O     28  27  26     1.211593404488   118.29776513     0.08121834
 C     27  26  25     1.372231905000   113.01061081     0.07142942
 C     23  22  21     1.406101325687   118.94782272   177.78933759
 C     32  23  22     1.361011095252   124.90900856   179.33809192
 C     33  32  23     1.430253726372   126.05796346   176.04927597
 C     34  33  32     1.383562842808   122.50564552   359.84413844
 C     35  34  33     1.404464146249   120.51056111   183.80295820
 C     36  35  34     1.393446388420   131.38107029   177.87031341
 C     37  36  35     1.491516966078   130.08406728     4.26973471
 C     38  37  36     1.546898814726   113.31819719   286.96148913
 N     39  38  37     1.451252064322   112.44223930    61.42158734
 C     38  37  36     1.538824763415   111.73751589    53.41005900
 N     41  38  37     1.453422115423   109.02047523    60.64362683
 C     37  36  35     1.445689736389   106.39194317   182.47913089
 C     43  37  36     1.345090295891   130.90107149   177.19696067
 C     44  43  37     1.492732870577   121.48412889   181.63098256
 C     45  44  43     1.493563746313   114.68773151   356.97020616
 C     46  45  44     1.345155764995   122.92380754     4.15184465
 C     47  46  45     1.416886592674   120.37192892   357.96059553
 C     48  47  46     1.378153632183   133.14718081   178.78907022
 C     49  48  47     1.416101789315   132.13108491   358.80686395
 C     50  49  48     1.354704697157   119.57686371   182.21585536
 C     45  44  43     1.504535514303   107.92205438   228.05205987
 C     52  45  44     1.335889638668   125.26274512   113.31623858
 C     53  52  45     1.429130844884   123.30534634   180.56474953
 S     54  53  52     1.746483471952   123.36201820     2.95250909
 C     55  54  53     1.748722306142    94.49039421   180.60937860
 C     56  55  54     1.396741589200   108.77068996     0.00000000
 C     54  53  52     1.379102840074   128.52242611   183.49294084
 O     58  54  53     1.348776549396   133.53106804   359.77598024
 C     59  58  54     1.360392003578   105.17190479   179.50932332
 N     60  59  58     1.416532938198   117.76408539   180.15939343
 O     61  60  59     1.216207222845   116.28779776   180.29859989
 O     61  60  59     1.211584377004   117.86149183     0.40534801
 C     60  59  58     1.371280376108   113.46116011     0.00000000
 C     56  55  54     1.404775937330   122.50122671   180.07833390
 C     65  56  55     1.364393035016   123.84355876     1.15429372
 C     66  65  56     1.407941469060   122.42515759   179.76910644
 C     67  66  65     1.369205136895   124.54007463   181.18349397
 C     68  67  66     1.450094220766   126.86487084   179.84850014
 C     69  68  67     1.372271790791   127.01040550     2.43558620
 C     70  69  68     1.410745476300   124.11535261   179.83438498
 N     71  70  69     1.148144257269   176.29598689   181.70426006
 C     70  69  68     1.409989805460   125.76116478     0.12518005
 N     73  70  69     1.148961825693   175.67524841   179.59539736
 C     69  68  67     1.459483173832   107.77524528   182.02397078
 C     75  69  68     1.424068500775   108.65629211   359.21200329
 C     76  75  69     1.471952997993   109.48766876     0.13636315
 O     77  76  75     1.214625606267   126.50178936   180.40621709
 C     76  75  69     1.365090210755   121.97836485   179.94022655
 C     79  76  75     1.412636594811   119.21195080   359.93976945
 C     80  79  76     1.424736804080   119.19870344     0.02997532
 C     75  69  68     1.369956157182   131.58791643   179.08632712
 C     81  80  79     1.409708589958   118.77831960   180.05253891
 C     83  81  80     1.368427403591   120.76865440     0.00000000
 C     84  83  81     1.402848815126   120.40021997     0.00000000
 C     85  84  83     1.368616467678   120.32682693     0.00000000
 H      9   8   7     1.079839575585   120.56622630   179.27926287
 H     12   7   1     1.079078637218   121.81531313   356.88890488
 H     13  11  10     1.080226234916   118.54464725   180.11597798
 H     14  13  11     1.079793820968   120.22337876   180.17237141
 H     15  14  13     1.079768667539   119.43305729   179.99888160
 H     16  15  14     1.080222523279   120.63914593   179.99236993
 H     20  19   1     1.086396965018   115.51303527   190.05606327
 H     31  27  26     1.069980800248   124.77875693   180.26024293
 H     32  23  22     1.080670412753   114.84716053   358.04127539
 H     33  32  23     1.080608473454   118.15495065   357.63289378
 H     35  34  33     1.076611573317   120.55518227     0.93022407
 H     38  37  36     1.094325088948   107.63652244   169.57780250
 H     39  38  37     1.102140759840   107.83553689   296.31733806
 H     39  38  37     1.092782473551   107.41944080   180.23653337
 H     40  39  38     1.014151247694   110.46290571   278.60735625
 H     40  39  38     1.012915686323   110.71540699   159.28035230
 H     41  38  37     1.097405189937   109.70742347   295.35537449
 H     41  38  37     1.093457795345   108.66121352   177.56110441
 H     42  41  38     1.015338061977   110.03462942   295.88563113
 H     42  41  38     1.013664177822   110.47858439   176.73432525
 H     44  43  37     1.081234090565   122.15337184     1.65846949
 H     45  44  43     1.105210533699   106.15065852   115.00916545
 H     46  45  44     1.079272052543   115.86307235   181.84802749
 H     47  46  45     1.080026089222   120.66374781   178.20326661
 H     50  49  48     1.079784541980   119.41396905     1.58870590
 H     51  50  49     1.080228402746   120.14846731   179.35770711
 H     52  45  44     1.082617589964   115.35681398   295.12694434
 H     53  52  45     1.081185516089   121.42046421     1.18145940
 H     64  60  59     1.070415152593   125.80429439   180.05796575
 H     65  56  55     1.083056215208   116.25191508   180.89762293
 H     66  65  56     1.081215203186   119.32984058     0.06227178
 H     67  66  65     1.082315791440   116.52333890     0.80679017
 H     79  76  75     1.079992280898   120.44577072   180.01759665
 H     82  75  69     1.078210337643   122.08717757     0.03747388
 H     83  81  80     1.080106929151   118.56794777   180.01352186
 H     84  83  81     1.079658023126   120.21066944   179.98798765
 H     85  84  83     1.079745455374   119.41348255   179.98383741
 H     86  85  84     1.080258138317   120.66306937   179.99650970

---------------------------
INTERNAL COORDINATES (A.U.)
---------------------------
 C      0   0   0     0.000000000000     0.00000000     0.00000000
 C      1   0   0     2.594583573219     0.00000000     0.00000000
 C      2   1   0     2.659685727234   123.93757612     0.00000000
 N      3   2   1     2.170408183451   176.81793442   152.11137741
 C      2   1   3     2.662168404270   123.06913808   185.12028310
 N      5   2   1     2.170478647638   176.78443915   126.32115986
 C      1   2   3     2.757614460060   125.24750479    11.93748211
 C      7   1   2     2.694249979448   108.29658211   156.54916718
 C      8   7   1     2.578252804183   121.65243027   182.54027459
 C      9   8   7     2.671704500151   119.18442994   359.38436707
 C     10   9   8     2.692261581652   119.39942683   359.71988753
 C      7   1   2     2.585157227235   131.48606140   338.22630423
 C     11  10   9     2.663487263674   118.77455043   180.35216679
 C     13  11  10     2.585899152932   120.80257715   359.77482693
 C     14  13  11     2.650535278855   120.38349122     0.10455461
 C     15  14  13     2.586309014036   120.30571330     0.00000000
 C      8   7   1     2.789225126846   109.32280425     3.11164997
 O     17   8   7     2.285775598077   128.05448610   182.67128741
 C      1   2   3     2.727767763365   126.01274121   176.98589843
 C     19   1   2     2.578459630714   132.27033931    33.61090866
 C     20  19   1     2.656745206722   129.64032054    16.03089017
 S     21  20  19     3.320897169530   125.74754724    14.75050445
 C     22  21  20     3.293073276858    94.89467089   176.44723957
 C     23  22  21     2.649381413682   108.97073010   359.13891341
 C     21  20  19     2.622682468095   126.91477456   188.53384383
 O     25  21  20     2.534234851992   132.47365966     5.36418973
 C     26  25  21     2.572916502684   105.33196918   177.76972573
 N     27  26  25     2.668989646651   118.52838484   179.81847583
 O     28  27  26     2.303732175600   116.03889361   180.22992459
 O     28  27  26     2.289579720149   118.29776513     0.08121834
 C     27  26  25     2.593142492679   113.01061081     0.07142942
 C     23  22  21     2.657146422093   118.94782272   177.78933759
 C     32  23  22     2.571938235255   124.90900856   179.33809192
 C     33  32  23     2.702787844863   126.05796346   176.04927597
 C     34  33  32     2.614554861977   122.50564552   359.84413844
 C     35  34  33     2.654052601323   120.51056111   183.80295820
 C     36  35  34     2.633232056415   131.38107029   177.87031341
 C     37  36  35     2.818558589985   130.08406728     4.26973471
 C     38  37  36     2.923215116719   113.31819719   286.96148913
 N     39  38  37     2.742468952857   112.44223930    61.42158734
 C     38  37  36     2.907957370951   111.73751589    53.41005900
 N     41  38  37     2.746569755134   109.02047523    60.64362683
 C     37  36  35     2.731957676396   106.39194317   182.47913089
 C     43  37  36     2.541852284629   130.90107149   177.19696067
 C     44  43  37     2.820856316492   121.48412889   181.63098256
 C     45  44  43     2.822426444085   114.68773151   356.97020616
 C     46  45  44     2.541976003306   122.92380754     4.15184465
 C     47  46  45     2.677527622979   120.37192892   357.96059553
 C     48  47  46     2.604332935295   133.14718081   178.78907022
 C     49  48  47     2.676044559560   132.13108491   358.80686395
 C     50  49  48     2.560020869964   119.57686371   182.21585536
 C     45  44  43     2.843160080792   107.92205438   228.05205987
 C     52  45  44     2.524465562225   125.26274512   113.31623858
 C     53  52  45     2.700665906371   123.30534634   180.56474953
 S     54  53  52     3.300375459408   123.36201820     2.95250909
 C     55  54  53     3.304606242888    94.49039421   180.60937860
 C     56  55  54     2.639459083445   108.77068996     0.00000000
 C     54  53  52     2.606126678253   128.52242611   183.49294084
 O     58  54  53     2.548818294213   133.53106804   359.77598024
 C     59  58  54     2.570768321540   105.17190479   179.50932332
 N     60  59  58     2.676859312873   117.76408539   180.15939343
 O     61  60  59     2.298298573274   116.28779776   180.29859989
 O     61  60  59     2.289562660675   117.86149183     0.40534801
 C     60  59  58     2.591344363665   113.46116011     0.00000000
 C     56  55  54     2.654641801075   122.50122671   180.07833390
 C     65  56  55     2.578329175210   123.84355876     1.15429372
 C     66  65  56     2.660623789115   122.42515759   179.76910644
 C     67  66  65     2.587422729890   124.54007463   181.18349397
 C     68  67  66     2.740280945630   126.86487084   179.84850014
 C     69  68  67     2.593217865900   127.01040550     2.43558620
 C     70  69  68     2.665922594875   124.11535261   179.83438498
 N     71  70  69     2.169678208473   176.29598689   181.70426006
 C     70  69  68     2.664494583940   125.76116478     0.12518005
 N     73  70  69     2.171223188890   175.67524841   179.59539736
 C     69  68  67     2.758023495609   107.77524528   182.02397078
 C     75  69  68     2.691099462409   108.65629211   359.21200329
 C     76  75  69     2.781588048211   109.48766876     0.13636315
 O     77  76  75     2.295309751093   126.50178936   180.40621709
 C     76  75  69     2.579646646424   121.97836485   179.94022655
 C     79  76  75     2.669496290948   119.21195080   359.93976945
 C     80  79  76     2.692362372629   119.19870344     0.02997532
 C     75  69  68     2.588841952553   131.58791643   179.08632712
 C     81  80  79     2.663963163656   118.77831960   180.05253891
 C     83  81  80     2.585953026941   120.76865440     0.00000000
 C     84  83  81     2.651000067884   120.40021997     0.00000000
 C     85  84  83     2.586310306287   120.32682693     0.00000000
 H      9   8   7     2.040601066426   120.56622630   179.27926287
 H     12   7   1     2.039163101307   121.81531313   356.88890488
 H     13  11  10     2.041331746667   118.54464725   180.11597798
 H     14  13  11     2.040514602729   120.22337876   180.17237141
 H     15  14  13     2.040467069639   119.43305729   179.99888160
 H     16  15  14     2.041324732691   120.63914593   179.99236993
 H     20  19   1     2.052992736607   115.51303527   190.05606327
 H     31  27  26     2.021970681023   124.77875693   180.26024293
 H     32  23  22     2.042171121135   114.84716053   358.04127539
 H     33  32  23     2.042054072822   118.15495065   357.63289378
 H     35  34  33     2.034501026179   120.55518227     0.93022407
 H     38  37  36     2.067974719590   107.63652244   169.57780250
 H     39  38  37     2.082744197129   107.83553689   296.31733806
 H     39  38  37     2.065059598960   107.41944080   180.23653337
 H     40  39  38     1.916468116517   110.46290571   278.60735625
 H     40  39  38     1.914133243904   110.71540699   159.28035230
 H     41  38  37     2.073795266924   109.70742347   295.35537449
 H     41  38  37     2.066335772203   108.66121352   177.56110441
 H     42  41  38     1.918710870484   110.03462942   295.88563113
 H     42  41  38     1.915547687850   110.47858439   176.73432525
 H     44  43  37     2.043236317827   122.15337184     1.65846949
 H     45  44  43     2.088545229017   106.15065852   115.00916545
 H     46  45  44     2.039528603301   115.86307235   181.84802749
 H     47  46  45     2.040953526119   120.66374781   178.20326661
 H     50  49  48     2.040497067985   119.41396905     1.58870590
 H     51  50  49     2.041335843274   120.14846731   179.35770711
 H     52  45  44     2.045850752798   115.35681398   295.12694434
 H     53  52  45     2.043144525370   121.42046421     1.18145940
 H     64  60  59     2.022791488000   125.80429439   180.05796575
 H     65  56  55     2.046679634384   116.25191508   180.89762293
 H     66  65  56     2.043200625853   119.32984058     0.06227178
 H     67  66  65     2.045280436239   116.52333890     0.80679017
 H     79  76  75     2.040889637647   120.44577072   180.01759665
 H     82  75  69     2.037522252908   122.08717757     0.03747388
 H     83  81  80     2.041106291446   118.56794777   180.01352186
 H     84  83  81     2.040257981999   120.21066944   179.98798765
 H     85  84  83     2.040423205002   119.41348255   179.98383741
 H     86  85  84     2.041392035359   120.66306937   179.99650970

---------------------
BASIS SET INFORMATION
---------------------
There are 5 groups of distinct atoms

 Group   1 Type C   : 7s4p1d contracted to 3s2p1d pattern {511/31/1}
 Group   2 Type N   : 7s4p1d contracted to 3s2p1d pattern {511/31/1}
 Group   3 Type O   : 7s4p1d contracted to 3s2p1d pattern {511/31/1}
 Group   4 Type S   : 10s7p1d contracted to 4s3p1d pattern {5311/511/1}
 Group   5 Type H   : 4s1p contracted to 2s1p pattern {31/1}

Atom   0C    basis set group =>   1
Atom   1C    basis set group =>   1
Atom   2C    basis set group =>   1
Atom   3N    basis set group =>   2
Atom   4C    basis set group =>   1
Atom   5N    basis set group =>   2
Atom   6C    basis set group =>   1
Atom   7C    basis set group =>   1
Atom   8C    basis set group =>   1
Atom   9C    basis set group =>   1
Atom  10C    basis set group =>   1
Atom  11C    basis set group =>   1
Atom  12C    basis set group =>   1
Atom  13C    basis set group =>   1
Atom  14C    basis set group =>   1
Atom  15C    basis set group =>   1
Atom  16C    basis set group =>   1
Atom  17O    basis set group =>   3
Atom  18C    basis set group =>   1
Atom  19C    basis set group =>   1
Atom  20C    basis set group =>   1
Atom  21S    basis set group =>   4
Atom  22C    basis set group =>   1
Atom  23C    basis set group =>   1
Atom  24C    basis set group =>   1
Atom  25O    basis set group =>   3
Atom  26C    basis set group =>   1
Atom  27N    basis set group =>   2
Atom  28O    basis set group =>   3
Atom  29O    basis set group =>   3
Atom  30C    basis set group =>   1
Atom  31C    basis set group =>   1
Atom  32C    basis set group =>   1
Atom  33C    basis set group =>   1
Atom  34C    basis set group =>   1
Atom  35C    basis set group =>   1
Atom  36C    basis set group =>   1
Atom  37C    basis set group =>   1
Atom  38C    basis set group =>   1
Atom  39N    basis set group =>   2
Atom  40C    basis set group =>   1
Atom  41N    basis set group =>   2
Atom  42C    basis set group =>   1
Atom  43C    basis set group =>   1
Atom  44C    basis set group =>   1
Atom  45C    basis set group =>   1
Atom  46C    basis set group =>   1
Atom  47C    basis set group =>   1
Atom  48C    basis set group =>   1
Atom  49C    basis set group =>   1
Atom  50C    basis set group =>   1
Atom  51C    basis set group =>   1
Atom  52C    basis set group =>   1
Atom  53C    basis set group =>   1
Atom  54S    basis set group =>   4
Atom  55C    basis set group =>   1
Atom  56C    basis set group =>   1
Atom  57C    basis set group =>   1
Atom  58O    basis set group =>   3
Atom  59C    basis set group =>   1
Atom  60N    basis set group =>   2
Atom  61O    basis set group =>   3
Atom  62O    basis set group =>   3
Atom  63C    basis set group =>   1
Atom  64C    basis set group =>   1
Atom  65C    basis set group =>   1
Atom  66C    basis set group =>   1
Atom  67C    basis set group =>   1
Atom  68C    basis set group =>   1
Atom  69C    basis set group =>   1
Atom  70C    basis set group =>   1
Atom  71N    basis set group =>   2
Atom  72C    basis set group =>   1
Atom  73N    basis set group =>   2
Atom  74C    basis set group =>   1
Atom  75C    basis set group =>   1
Atom  76C    basis set group =>   1
Atom  77O    basis set group =>   3
Atom  78C    basis set group =>   1
Atom  79C    basis set group =>   1
Atom  80C    basis set group =>   1
Atom  81C    basis set group =>   1
Atom  82C    basis set group =>   1
Atom  83C    basis set group =>   1
Atom  84C    basis set group =>   1
Atom  85C    basis set group =>   1
Atom  86H    basis set group =>   5
Atom  87H    basis set group =>   5
Atom  88H    basis set group =>   5
Atom  89H    basis set group =>   5
Atom  90H    basis set group =>   5
Atom  91H    basis set group =>   5
Atom  92H    basis set group =>   5
Atom  93H    basis set group =>   5
Atom  94H    basis set group =>   5
Atom  95H    basis set group =>   5
Atom  96H    basis set group =>   5
Atom  97H    basis set group =>   5
Atom  98H    basis set group =>   5
Atom  99H    basis set group =>   5
Atom 100H    basis set group =>   5
Atom 101H    basis set group =>   5
Atom 102H    basis set group =>   5
Atom 103H    basis set group =>   5
Atom 104H    basis set group =>   5
Atom 105H    basis set group =>   5
Atom 106H    basis set group =>   5
Atom 107H    basis set group =>   5
Atom 108H    basis set group =>   5
Atom 109H    basis set group =>   5
Atom 110H    basis set group =>   5
Atom 111H    basis set group =>   5
Atom 112H    basis set group =>   5
Atom 113H    basis set group =>   5
Atom 114H    basis set group =>   5
Atom 115H    basis set group =>   5
Atom 116H    basis set group =>   5
Atom 117H    basis set group =>   5
Atom 118H    basis set group =>   5
Atom 119H    basis set group =>   5
Atom 120H    basis set group =>   5
Atom 121H    basis set group =>   5
Atom 122H    basis set group =>   5
Atom 123H    basis set group =>   5
---------------------------------
AUXILIARY/J BASIS SET INFORMATION
---------------------------------
There are 5 groups of distinct atoms

 Group   1 Type C   : 12s5p4d2f1g contracted to 6s4p3d1f1g pattern {711111/2111/211/2/1}
 Group   2 Type N   : 12s5p4d2f1g contracted to 6s4p3d1f1g pattern {711111/2111/211/2/1}
 Group   3 Type O   : 12s5p4d2f1g contracted to 6s4p3d1f1g pattern {711111/2111/211/2/1}
 Group   4 Type S   : 14s5p5d2f1g contracted to 8s4p3d1f1g pattern {71111111/2111/311/2/1}
 Group   5 Type H   : 5s2p1d contracted to 3s1p1d pattern {311/2/1}

Atom   0C    basis set group =>   1
Atom   1C    basis set group =>   1
Atom   2C    basis set group =>   1
Atom   3N    basis set group =>   2
Atom   4C    basis set group =>   1
Atom   5N    basis set group =>   2
Atom   6C    basis set group =>   1
Atom   7C    basis set group =>   1
Atom   8C    basis set group =>   1
Atom   9C    basis set group =>   1
Atom  10C    basis set group =>   1
Atom  11C    basis set group =>   1
Atom  12C    basis set group =>   1
Atom  13C    basis set group =>   1
Atom  14C    basis set group =>   1
Atom  15C    basis set group =>   1
Atom  16C    basis set group =>   1
Atom  17O    basis set group =>   3
Atom  18C    basis set group =>   1
Atom  19C    basis set group =>   1
Atom  20C    basis set group =>   1
Atom  21S    basis set group =>   4
Atom  22C    basis set group =>   1
Atom  23C    basis set group =>   1
Atom  24C    basis set group =>   1
Atom  25O    basis set group =>   3
Atom  26C    basis set group =>   1
Atom  27N    basis set group =>   2
Atom  28O    basis set group =>   3
Atom  29O    basis set group =>   3
Atom  30C    basis set group =>   1
Atom  31C    basis set group =>   1
Atom  32C    basis set group =>   1
Atom  33C    basis set group =>   1
Atom  34C    basis set group =>   1
Atom  35C    basis set group =>   1
Atom  36C    basis set group =>   1
Atom  37C    basis set group =>   1
Atom  38C    basis set group =>   1
Atom  39N    basis set group =>   2
Atom  40C    basis set group =>   1
Atom  41N    basis set group =>   2
Atom  42C    basis set group =>   1
Atom  43C    basis set group =>   1
Atom  44C    basis set group =>   1
Atom  45C    basis set group =>   1
Atom  46C    basis set group =>   1
Atom  47C    basis set group =>   1
Atom  48C    basis set group =>   1
Atom  49C    basis set group =>   1
Atom  50C    basis set group =>   1
Atom  51C    basis set group =>   1
Atom  52C    basis set group =>   1
Atom  53C    basis set group =>   1
Atom  54S    basis set group =>   4
Atom  55C    basis set group =>   1
Atom  56C    basis set group =>   1
Atom  57C    basis set group =>   1
Atom  58O    basis set group =>   3
Atom  59C    basis set group =>   1
Atom  60N    basis set group =>   2
Atom  61O    basis set group =>   3
Atom  62O    basis set group =>   3
Atom  63C    basis set group =>   1
Atom  64C    basis set group =>   1
Atom  65C    basis set group =>   1
Atom  66C    basis set group =>   1
Atom  67C    basis set group =>   1
Atom  68C    basis set group =>   1
Atom  69C    basis set group =>   1
Atom  70C    basis set group =>   1
Atom  71N    basis set group =>   2
Atom  72C    basis set group =>   1
Atom  73N    basis set group =>   2
Atom  74C    basis set group =>   1
Atom  75C    basis set group =>   1
Atom  76C    basis set group =>   1
Atom  77O    basis set group =>   3
Atom  78C    basis set group =>   1
Atom  79C    basis set group =>   1
Atom  80C    basis set group =>   1
Atom  81C    basis set group =>   1
Atom  82C    basis set group =>   1
Atom  83C    basis set group =>   1
Atom  84C    basis set group =>   1
Atom  85C    basis set group =>   1
Atom  86H    basis set group =>   5
Atom  87H    basis set group =>   5
Atom  88H    basis set group =>   5
Atom  89H    basis set group =>   5
Atom  90H    basis set group =>   5
Atom  91H    basis set group =>   5
Atom  92H    basis set group =>   5
Atom  93H    basis set group =>   5
Atom  94H    basis set group =>   5
Atom  95H    basis set group =>   5
Atom  96H    basis set group =>   5
Atom  97H    basis set group =>   5
Atom  98H    basis set group =>   5
Atom  99H    basis set group =>   5
Atom 100H    basis set group =>   5
Atom 101H    basis set group =>   5
Atom 102H    basis set group =>   5
Atom 103H    basis set group =>   5
Atom 104H    basis set group =>   5
Atom 105H    basis set group =>   5
Atom 106H    basis set group =>   5
Atom 107H    basis set group =>   5
Atom 108H    basis set group =>   5
Atom 109H    basis set group =>   5
Atom 110H    basis set group =>   5
Atom 111H    basis set group =>   5
Atom 112H    basis set group =>   5
Atom 113H    basis set group =>   5
Atom 114H    basis set group =>   5
Atom 115H    basis set group =>   5
Atom 116H    basis set group =>   5
Atom 117H    basis set group =>   5
Atom 118H    basis set group =>   5
Atom 119H    basis set group =>   5
Atom 120H    basis set group =>   5
Atom 121H    basis set group =>   5
Atom 122H    basis set group =>   5
Atom 123H    basis set group =>   5


           ************************************************************
           *        Program running with 6 parallel MPI-processes     *
           *              working on a common directory               *
           ************************************************************
------------------------------------------------------------------------------
                           ORCA GTO INTEGRAL CALCULATION
                           -- RI-GTO INTEGRALS CHOSEN --
------------------------------------------------------------------------------

                         BASIS SET STATISTICS AND STARTUP INFO

Gaussian basis set:
 # of primitive gaussian shells          ... 1234
 # of primitive gaussian functions       ... 2354
 # of contracted shells                  ...  634
 # of contracted basis functions         ... 1402
 Highest angular momentum                ...    2
 Maximum contraction depth               ...    5
Auxiliary gaussian basis set:
 # of primitive gaussian shells          ... 2374
 # of primitive gaussian functions       ... 6642
 # of contracted shells                  ... 1484
 # of contracted aux-basis functions     ... 4636
 Highest angular momentum                ...    4
 Maximum contraction depth               ...    7
Ratio of auxiliary to basis functions    ...  3.31
Integral package used                  ... LIBINT
 One Electron integrals                  ... done
 Ordering auxiliary basis shells         ... done
 Integral threshhold             Thresh  ...  2.500e-11
 Primitive cut-off               TCut    ...  2.500e-12
 Pre-screening matrix                    ... done
 Shell pair data                         ... 
 Ordering of the shell pairs             ... done (   0.011 sec) 52481 of 201295 pairs
 Determination of significant pairs      ... done (   0.000 sec)
 Creation of shell pair data             ... done (   0.007 sec)
 Storage of shell pair data              ... done (   0.685 sec)
 Shell pair data done in (   0.703 sec)
 Computing two index integrals           ... done
 Cholesky decomposition of the V-matrix  ... done


Timings:
 Total evaluation time                   ...   5.729 sec (  0.095 min)
 One electron matrix time                ...   1.611 sec (  0.027 min) = 28.1%
 Schwartz matrix evaluation time         ...   0.839 sec (  0.014 min) = 14.6%
 Two index repulsion integral time       ...   0.838 sec (  0.014 min) = 14.6%
 Cholesky decomposition of V             ...   1.721 sec (  0.029 min) = 30.0%
 Three index repulsion integral time     ...   0.000 sec (  0.000 min) =  0.0%



           ************************************************************
           *        Program running with 6 parallel MPI-processes     *
           *              working on a common directory               *
           ************************************************************
-------------------------------------------------------------------------------
                                 ORCA SCF
-------------------------------------------------------------------------------

------------
SCF SETTINGS
------------
Hamiltonian:
 Density Functional     Method          .... DFT(GTOs)
 Exchange Functional    Exchange        .... WB88
 Correlation Functional Correlation     .... LYP
 LDA part of GGA corr.  LDAOpt          .... VWN-5
 Gradients option       PostSCFGGA      .... off
 Hybrid DFT is turned on
   Fraction HF Exchange ScalHFX         ....  0.190000
   Scaling of DF-GGA-X  ScalDFX         ....  0.350000
   Scaling of DF-GGA-C  ScalDFC         ....  0.810000
   Scaling of DF-LDA-C  ScalLDAC        ....  1.000000
   Perturbative correction              ....  0.000000
   Density functional embedding theory  .... OFF
 Long-range corrected/Screened/Range-Separated Hybrid DFT is turned on
   Amount of maximum screened exact exchange              ....  0.460000
   Range separation parameter mu (erf(mu*r12)/r12)        ....  0.330000
 RI-approximation to the Coulomb term is turned on
   Number of auxiliary basis functions  .... 4636
   RIJ-COSX (HFX calculated with COS-X)).... on


General Settings:
 Integral files         IntName         .... xtbopt
 Hartree-Fock type      HFTyp           .... RHF
 Total Charge           Charge          ....    0
 Multiplicity           Mult            ....    1
 Number of Electrons    NEL             ....  598
 Basis Dimension        Dim             .... 1402
 Nuclear Repulsion      ENuc            ....  12257.9638476638 Eh

Convergence Acceleration:
 DIIS                   CNVDIIS         .... on
   Start iteration      DIISMaxIt       ....    12
   Startup error        DIISStart       ....  0.200000
   # of expansion vecs  DIISMaxEq       ....     5
   Bias factor          DIISBfac        ....   1.050
   Max. coefficient     DIISMaxC        ....  10.000
 Newton-Raphson         CNVNR           .... off
 SOSCF                  CNVSOSCF        .... on
   Start iteration      SOSCFMaxIt      ....   150
   Startup grad/error   SOSCFStart      ....  0.003300
 Level Shifting         CNVShift        .... on
   Level shift para.    LevelShift      ....    0.2500
   Turn off err/grad.   ShiftErr        ....    0.0010
 Zerner damping         CNVZerner       .... off
 Static damping         CNVDamp         .... on
   Fraction old density DampFac         ....    0.7000
   Max. Damping (<1)    DampMax         ....    0.9800
   Min. Damping (>=0)   DampMin         ....    0.0000
   Turn off err/grad.   DampErr         ....    0.1000
 Fernandez-Rico         CNVRico         .... off

SCF Procedure:
 Maximum # iterations   MaxIter         ....   125
 SCF integral mode      SCFMode         .... Direct
   Integral package                     .... LIBINT
 Reset frequency        DirectResetFreq ....    20
 Integral Threshold     Thresh          ....  2.500e-11 Eh
 Primitive CutOff       TCut            ....  2.500e-12 Eh

Convergence Tolerance:
 Convergence Check Mode ConvCheckMode   .... Total+1el-Energy
 Convergence forced     ConvForced      .... 1
 Energy Change          TolE            ....  1.000e-08 Eh
 1-El. energy change                    ....  1.000e-05 Eh
 Orbital Gradient       TolG            ....  1.000e-05
 Orbital Rotation angle TolX            ....  1.000e-05
 DIIS Error             TolErr          ....  5.000e-07


Diagonalization of the overlap matrix:
Smallest eigenvalue                        ... 2.006e-04
Time for diagonalization                   ...    0.672 sec
Threshold for overlap eigenvalues          ... 1.000e-08
Number of eigenvalues below threshold      ... 0
Time for construction of square roots      ...    0.543 sec
Total time needed                          ...    1.221 sec

-------------------
DFT GRID GENERATION
-------------------

General Integration Accuracy     IntAcc      ...  4.670
Radial Grid Type                 RadialGrid  ... Gauss-Chebyshev
Angular Grid (max. acc.)         AngularGrid ... Lebedev-302
Angular grid pruning method      GridPruning ... 3 (G Style)
Weight generation scheme         WeightScheme... Becke
Basis function cutoff            BFCut       ...    1.0000e-11
Integration weight cutoff        WCut        ...    1.0000e-14
Grids for H and He will be reduced by one unit

# of grid points (after initial pruning)     ... 664472 (   0.0 sec)
# of grid points (after weights+screening)   ... 569907 (  12.8 sec)
nearest neighbour list constructed           ...    0.0 sec
Grid point re-assignment to atoms done       ...    0.1 sec
Grid point division into batches done        ...    1.9 sec
Reduced shell lists constructed in    3.1 sec

Total number of grid points                  ...   569907
Total number of batches                      ...     8967
Average number of points per batch           ...       63
Average number of grid points per atom       ...     4596
Average number of shells per batch           ...    92.06 (14.52%)
Average number of basis functions per batch  ...   195.55 (13.95%)
Average number of large shells per batch     ...    57.81 (62.80%)
Average number of large basis fcns per batch ...   125.06 (63.96%)
Maximum spatial batch extension              ...  17.41, 20.28, 16.29 au
Average spatial batch extension              ...   0.30,  0.35,  0.32 au

Time for grid setup =   17.378 sec

------------------------------
INITIAL GUESS: MODEL POTENTIAL
------------------------------
Loading Hartree-Fock densities                     ... done
Calculating cut-offs                               ... done
Setting up the integral package                    ... done
Initializing the effective Hamiltonian             ... done
Starting the Coulomb interaction                   ... done (   1.7 sec)
Reading the grid                                   ... done
Mapping shells                                     ... done
Starting the XC term evaluation                    ... done (   3.7 sec)
  promolecular density results
     # of electrons  =    597.980960920
     EX              =   -526.619610836
     EC              =    -20.453275570
     EX+EC           =   -547.072886405
Transforming the Hamiltonian                       ... done (   0.4 sec)
Diagonalizing the Hamiltonian                      ... done (   0.3 sec)
Back transforming the eigenvectors                 ... done (   0.1 sec)
Now organizing SCF variables                       ... done
                      ------------------
                      INITIAL GUESS DONE (  23.9 sec)
                      ------------------
--------------------
COSX GRID GENERATION
--------------------

General Integration Accuracy     IntAcc      ...  3.340
Radial Grid Type                 RadialGrid  ... Gauss-Chebyshev
Angular Grid (max. acc.)         AngularGrid ... Lebedev-50
Angular grid pruning method      GridPruning ... 3 (G Style)
Weight generation scheme         WeightScheme... Becke
Basis function cutoff            BFCut       ...    1.0000e-11
Integration weight cutoff        WCut        ...    1.0000e-14
Grids for H and He will be reduced by one unit

# of grid points (after initial pruning)     ...  62180 (   0.0 sec)
# of grid points (after weights+screening)   ...  55707 (   1.5 sec)
nearest neighbour list constructed           ...    0.0 sec
Grid point re-assignment to atoms done       ...    0.0 sec
Grid point division into batches done        ...    0.0 sec
Reduced shell lists constructed in    0.2 sec

Total number of grid points                  ...    55707
Total number of batches                      ...      935
Average number of points per batch           ...       59
Average number of grid points per atom       ...      449
Average number of shells per batch           ...   108.85 (17.17%)
Average number of basis functions per batch  ...   232.57 (16.59%)
Average number of large shells per batch     ...    67.85 (62.34%)
Average number of large basis fcns per batch ...   148.49 (63.85%)
Maximum spatial batch extension              ...  15.66, 19.44, 22.07 au
Average spatial batch extension              ...   0.57,  0.84,  0.67 au

Overlap Fitting                  UseSFitting ... on
Constructing numerical overlap ... done (      0.2 sec)
Inverting numerical overlap    ... done (      0.2 sec)
Obtaining analytic overlap     ... done (      0.0 sec)
Final contraction and storage  ... done (      0.2 sec)


General Integration Accuracy     IntAcc      ...  3.670
Radial Grid Type                 RadialGrid  ... Gauss-Chebyshev
Angular Grid (max. acc.)         AngularGrid ... Lebedev-50
Angular grid pruning method      GridPruning ... 3 (G Style)
Weight generation scheme         WeightScheme... Becke
Basis function cutoff            BFCut       ...    1.0000e-11
Integration weight cutoff        WCut        ...    1.0000e-14
Grids for H and He will be reduced by one unit

# of grid points (after initial pruning)     ...  77804 (   0.0 sec)
# of grid points (after weights+screening)   ...  69420 (   2.3 sec)
nearest neighbour list constructed           ...    0.0 sec
Grid point re-assignment to atoms done       ...    0.0 sec
Grid point division into batches done        ...    0.0 sec
Reduced shell lists constructed in    0.2 sec

Total number of grid points                  ...    69420
Total number of batches                      ...     1145
Average number of points per batch           ...       60
Average number of grid points per atom       ...      560
Average number of shells per batch           ...   107.46 (16.95%)
Average number of basis functions per batch  ...   229.51 (16.37%)
Average number of large shells per batch     ...    67.12 (62.47%)
Average number of large basis fcns per batch ...   146.85 (63.99%)
Maximum spatial batch extension              ...  15.68, 21.39, 19.06 au
Average spatial batch extension              ...   0.53,  0.75,  0.60 au

Overlap Fitting                  UseSFitting ... on
Constructing numerical overlap ... done (      0.3 sec)
Inverting numerical overlap    ... done (      0.2 sec)
Obtaining analytic overlap     ... done (      0.0 sec)
Final contraction and storage  ... done (      0.2 sec)


General Integration Accuracy     IntAcc      ...  4.010
Radial Grid Type                 RadialGrid  ... Gauss-Chebyshev
Angular Grid (max. acc.)         AngularGrid ... Lebedev-110
Angular grid pruning method      GridPruning ... 3 (G Style)
Weight generation scheme         WeightScheme... Becke
Basis function cutoff            BFCut       ...    1.0000e-11
Integration weight cutoff        WCut        ...    1.0000e-14
Grids for H and He will be reduced by one unit

# of grid points (after initial pruning)     ... 151592 (   0.0 sec)
# of grid points (after weights+screening)   ... 133995 (   3.7 sec)
nearest neighbour list constructed           ...    0.0 sec
Grid point re-assignment to atoms done       ...    0.0 sec
Grid point division into batches done        ...    0.1 sec
Reduced shell lists constructed in    0.4 sec

Total number of grid points                  ...   133995
Total number of batches                      ...     2158
Average number of points per batch           ...       62
Average number of grid points per atom       ...     1081
Average number of shells per batch           ...   101.36 (15.99%)
Average number of basis functions per batch  ...   216.03 (15.41%)
Average number of large shells per batch     ...    63.70 (62.85%)
Average number of large basis fcns per batch ...   138.86 (64.28%)
Maximum spatial batch extension              ...  16.66, 18.44, 18.44 au
Average spatial batch extension              ...   0.47,  0.62,  0.53 au

Overlap Fitting                  UseSFitting ... on
Constructing numerical overlap ... done (      0.5 sec)
Inverting numerical overlap    ... done (      0.2 sec)
Obtaining analytic overlap     ... done (      0.0 sec)
Final contraction and storage  ... done (      0.2 sec)

Time for X-Grid setup             =   11.555 sec
--------------
SCF ITERATIONS
--------------
ITER       Energy         Delta-E        Max-DP      RMS-DP      [F,P]     Damp
               ***  Starting incremental Fock matrix formation  ***
  0  -4443.4262915000   0.000000000000 0.08318003  0.00091097  0.2296756 0.7000
  1  -4444.1551312477  -0.728839747739 0.04654583  0.00063456  0.1135273 0.7000
                               ***Turning on DIIS***
  2  -4444.4642274157  -0.309096168021 0.08361090  0.00115337  0.0436225 0.0000
  3  -4444.9974662875  -0.533238871800 0.05589172  0.00045283  0.0586249 0.0000
  4  -4445.0798028107  -0.082336523199 0.01654586  0.00014445  0.0254540 0.0000
  5  -4445.0880160001  -0.008213189347 0.00679575  0.00005690  0.0056199 0.0000
                      *** Initiating the SOSCF procedure ***
                           *** Shutting down DIIS ***
                      *** Re-Reading the Fockian *** 
                      *** Removing any level shift *** 
ITER      Energy       Delta-E        Grad      Rot      Max-DP    RMS-DP
  6  -4445.08932677  -0.0013107704  0.002666  0.002666  0.003453  0.000035
               *** Restarting incremental Fock matrix formation ***
  7  -4445.08990627  -0.0005794975  0.002060  0.013446  0.003090  0.000043
  8  -4445.09041878  -0.0005125105  0.000878  0.014046  0.004053  0.000057
  9  -4445.09044826  -0.0000294815  0.001844  0.004651  0.002287  0.000020
 10  -4445.09059041  -0.0001421497  0.000461  0.001511  0.000947  0.000010
 11  -4445.09058707   0.0000033403  0.000351  0.000988  0.000563  0.000005
 12  -4445.09059949  -0.0000124208  0.000057  0.000243  0.000234  0.000003
 13  -4445.09059935   0.0000001373  0.000061  0.000185  0.000137  0.000001
 14  -4445.09060002  -0.0000006670  0.000013  0.000042  0.000055  0.000000
 15  -4445.09060002  -0.0000000027  0.000016  0.000027  0.000038  0.000000
 16  -4445.09060004  -0.0000000199  0.000004  0.000011  0.000016  0.000000
 17  -4445.09060002   0.0000000269  0.000006  0.000007  0.000012  0.000000
                  ***Gradient check signals convergence***
              ***Rediagonalizing the Fockian in SOSCF/NRSCF***

               *****************************************************
               *                     SUCCESS                       *
               *           SCF CONVERGED AFTER  18 CYCLES          *
               *****************************************************

Setting up the final grid:

General Integration Accuracy     IntAcc      ...  5.010
Radial Grid Type                 RadialGrid  ... Gauss-Chebyshev
Angular Grid (max. acc.)         AngularGrid ... Lebedev-434
Angular grid pruning method      GridPruning ... 3 (G Style)
Weight generation scheme         WeightScheme... Becke
Basis function cutoff            BFCut       ...    1.0000e-11
Integration weight cutoff        WCut        ...    1.0000e-14
Grids for H and He will be reduced by one unit

# of grid points (after initial pruning)     ... 1176696 (   0.1 sec)
# of grid points (after weights+screening)   ... 1005881 (  24.4 sec)
nearest neighbour list constructed           ...    0.0 sec
Grid point re-assignment to atoms done       ...    0.1 sec
Grid point division into batches done        ...    6.3 sec
Reduced shell lists constructed in    8.3 sec

Total number of grid points                  ...  1005881
Total number of batches                      ...    15788
Average number of points per batch           ...       63
Average number of grid points per atom       ...     8112
Average number of shells per batch           ...    89.80 (14.16%)
Average number of basis functions per batch  ...   190.54 (13.59%)
Average number of large shells per batch     ...    56.32 (62.72%)
Average number of large basis fcns per batch ...   121.62 (63.83%)
Maximum spatial batch extension              ...  17.90, 22.43, 17.43 au
Average spatial batch extension              ...   0.25,  0.28,  0.26 au

Final grid set up in   37.2 sec
Final integration                            ... done (   6.2 sec)
Change in XC energy                          ...    -0.000049770
Integrated number of electrons               ...   597.999981767
Previous integrated no of electrons          ...   597.999751736
Old exchange energy                            =   -148.393490272 Eh
New exchange energy                            =   -148.391917062 Eh
Exchange energy change after final integration =      0.001573211 Eh
Total energy after final integration           =  -4445.089076576 Eh
Final COS-X integration done in                =   104.772 sec

----------------
TOTAL SCF ENERGY
----------------

Total Energy       :        -4445.08907658 Eh         -120957.02311 eV

Components:
Nuclear Repulsion  :        12257.96384766 Eh          333556.15396 eV
Electronic Energy  :       -16703.05292424 Eh         -454513.17707 eV
One Electron Energy:       -30470.19589947 Eh         -829136.18289 eV
Two Electron Energy:        13767.14297523 Eh          374623.00582 eV

Virial components:
Potential Energy   :        -8855.26812770 Eh         -240964.09613 eV
Kinetic Energy     :         4410.17905113 Eh          120007.07302 eV
Virial Ratio       :            2.00791578


DFT components:
N(Alpha)           :      298.999990883436 electrons
N(Beta)            :      298.999990883436 electrons
N(Total)           :      597.999981766872 electrons
E(XC)              :     -408.146875051170 Eh       
DFET-embed. en.    :        0.000000000000 Eh       

---------------
SCF CONVERGENCE
---------------

  Last Energy change         ...   -6.7485e-10  Tolerance :   1.0000e-08
  Last MAX-Density change    ...    7.5495e-15  Tolerance :   1.0000e-07
  Last RMS-Density change    ...    3.1431e-17  Tolerance :   5.0000e-09
  Last Orbital Gradient      ...    6.6972e-07  Tolerance :   1.0000e-05
  Last Orbital Rotation      ...    4.8716e-06  Tolerance :   1.0000e-05

             **** THE GBW FILE WAS UPDATED (xtbopt.gbw) ****
             **** DENSITY FILE WAS UPDATED (xtbopt.scfp) ****
             **** ENERGY FILE WAS UPDATED (xtbopt.en.tmp) ****
             **** THE GBW FILE WAS UPDATED (xtbopt.gbw) ****
             **** DENSITY FILE WAS UPDATED (xtbopt.scfp) ****
----------------
ORBITAL ENERGIES
----------------

  NO   OCC          E(Eh)            E(eV) 
   0   2.0000     -88.990876     -2421.5648 
   1   2.0000     -88.983841     -2421.3734 
   2   2.0000     -19.327425      -525.9260 
   3   2.0000     -19.323067      -525.8074 
   4   2.0000     -19.257040      -524.0107 
   5   2.0000     -19.255118      -523.9584 
   6   2.0000     -19.246100      -523.7130 
   7   2.0000     -19.243040      -523.6297 
   8   2.0000     -19.219477      -522.9886 
   9   2.0000     -19.206573      -522.6374 
  10   2.0000     -14.668989      -399.1635 
  11   2.0000     -14.658083      -398.8667 
  12   2.0000     -14.418864      -392.3572 
  13   2.0000     -14.415413      -392.2633 
  14   2.0000     -14.412137      -392.1742 
  15   2.0000     -14.409074      -392.0908 
  16   2.0000     -14.393154      -391.6576 
  17   2.0000     -14.376935      -391.2163 
  18   2.0000     -10.405847      -283.1575 
  19   2.0000     -10.392197      -282.7861 
  20   2.0000     -10.369891      -282.1791 
  21   2.0000     -10.367545      -282.1153 
  22   2.0000     -10.366591      -282.0893 
  23   2.0000     -10.358771      -281.8765 
  24   2.0000     -10.344556      -281.4897 
  25   2.0000     -10.342949      -281.4460 
  26   2.0000     -10.342009      -281.4204 
  27   2.0000     -10.340736      -281.3857 
  28   2.0000     -10.338420      -281.3227 
  29   2.0000     -10.337041      -281.2852 
  30   2.0000     -10.336472      -281.2697 
  31   2.0000     -10.329201      -281.0719 
  32   2.0000     -10.324560      -280.9456 
  33   2.0000     -10.322414      -280.8872 
  34   2.0000     -10.322038      -280.8769 
  35   2.0000     -10.321874      -280.8725 
  36   2.0000     -10.320574      -280.8371 
  37   2.0000     -10.320389      -280.8321 
  38   2.0000     -10.318740      -280.7872 
  39   2.0000     -10.318576      -280.7827 
  40   2.0000     -10.318511      -280.7810 
  41   2.0000     -10.315338      -280.6946 
  42   2.0000     -10.313312      -280.6395 
  43   2.0000     -10.311806      -280.5985 
  44   2.0000     -10.308787      -280.5164 
  45   2.0000     -10.307784      -280.4891 
  46   2.0000     -10.306555      -280.4556 
  47   2.0000     -10.304950      -280.4119 
  48   2.0000     -10.304576      -280.4018 
  49   2.0000     -10.300823      -280.2996 
  50   2.0000     -10.299865      -280.2736 
  51   2.0000     -10.299554      -280.2651 
  52   2.0000     -10.299511      -280.2639 
  53   2.0000     -10.298981      -280.2495 
  54   2.0000     -10.298776      -280.2439 
  55   2.0000     -10.298321      -280.2315 
  56   2.0000     -10.295093      -280.1437 
  57   2.0000     -10.294895      -280.1383 
  58   2.0000     -10.294068      -280.1158 
  59   2.0000     -10.293532      -280.1012 
  60   2.0000     -10.292676      -280.0779 
  61   2.0000     -10.292167      -280.0641 
  62   2.0000     -10.290493      -280.0185 
  63   2.0000     -10.290260      -280.0122 
  64   2.0000     -10.290190      -280.0103 
  65   2.0000     -10.289053      -279.9794 
  66   2.0000     -10.288500      -279.9643 
  67   2.0000     -10.287976      -279.9500 
  68   2.0000     -10.287460      -279.9360 
  69   2.0000     -10.286343      -279.9056 
  70   2.0000     -10.285815      -279.8913 
  71   2.0000     -10.284428      -279.8535 
[...]
  61   4.853     255.5   0.060894   0.050378  -12.563112  -10.809654     0.14 ( 114-> 124)    0.11 ( 103-> 119)    0.10 ( 103-> 117)
  62   4.886     253.7   0.010294   0.009342  34.229485  34.275244     0.18 (  98-> 116)    0.11 ( 113-> 123)    0.07 ( 111-> 119)
  63   4.906     252.7   0.000077   0.000073  -0.361013  -0.359746     0.92 ( 109-> 118)    0.03 ( 109-> 120)    0.01 ( 105-> 118)
  64   4.951     250.4   0.061603   0.052678  -28.337636  -26.305703     0.66 ( 104-> 115)    0.06 ( 104-> 119)    0.06 ( 103-> 119)
  65   4.984     248.8   0.126287   0.109340  170.987654  161.174022     0.16 ( 101-> 118)    0.09 ( 103-> 119)    0.07 ( 104-> 115)
  66   4.986     248.7   0.019037   0.016710  31.468796  31.287639     0.38 ( 101-> 118)    0.14 ( 101-> 122)    0.07 ( 101-> 120)
  67   4.995     248.2   0.288599   0.248017  -38.487236  -54.921303     0.28 (  97-> 115)    0.12 ( 100-> 118)    0.08 ( 106-> 118)

-----------------------------------------------------------------------------
         ABSORPTION SPECTRUM VIA TRANSITION ELECTRIC DIPOLE MOMENTS
-----------------------------------------------------------------------------
State   Energy  Wavelength   fosc         T2         TX        TY        TZ  
        (cm-1)    (nm)                  (au**2)     (au)      (au)      (au) 
-----------------------------------------------------------------------------
   0   11943.8    837.3   0.214909680   5.92367   1.04653  -0.65437   2.09768
   1   14624.4    683.8   0.047898274   1.07824   0.70656  -0.31351  -0.69334
   2   16342.6    611.9   0.964126743  19.42180  -0.98035   0.85279  -4.21111
   3   17924.2    557.9   1.245029836  22.86733   4.55704  -1.39002  -0.41062
   4   19329.1    517.4   0.085518765   1.45655   0.37165   0.23170  -1.12461
   5   21917.9    456.2   0.272582938   4.09425   1.84839  -0.38011   0.73023
   6   23782.6    420.5   0.017730280   0.24543  -0.49203   0.05755   0.00539
   7   24486.4    408.4   0.016883254   0.22699   0.33632   0.02264   0.33670
   8   24655.1    405.6   0.051120365   0.68259   0.81145   0.03949  -0.15030
   9   24820.1    402.9   0.034208486   0.45374   0.16821   0.25258  -0.60137
  10   25264.6    395.8   0.052689476   0.68657  -0.15478  -0.41633  -0.69949
  11   25444.7    393.0   0.006802792   0.08802   0.11236  -0.26328   0.07795
  12   26030.9    384.2   0.232143314   2.93591   1.23066  -0.09442   1.18847
  13   26210.9    381.5   0.000060971   0.00077  -0.02420  -0.00838   0.01049
  14   26460.6    377.9   0.017300960   0.21525  -0.04838   0.40382  -0.22325
  15   27018.8    370.1   0.242041162   2.94916   0.48020  -0.41233  -1.59642
  16   27372.0    365.3   0.102492176   1.23271   0.61928   0.08465   0.91763
  17   27875.0    358.7   0.014509558   0.17136   0.12531  -0.29499   0.26199
  18   28255.3    353.9   0.032428475   0.37784  -0.07545  -0.06403  -0.60667
  19   28315.4    353.2   0.006652412   0.07735   0.18317   0.20925   0.00262
  20   28695.4    348.5   0.016135561   0.18512   0.40955   0.10872  -0.07459
  21   28731.7    348.0   0.052544310   0.60206  -0.66368  -0.31690   0.24732
  22   29079.4    343.9   0.041136095   0.46571   0.26090   0.04985   0.62861
  23   29520.2    338.8   0.069215288   0.77190   0.54393   0.34852  -0.59546
  24   29620.5    337.6   0.041886534   0.46554   0.52584  -0.43108   0.05664
  25   30634.4    326.4   0.328520087   3.53043  -1.62810   0.48961   0.80000
  26   30978.0    322.8   0.008998451   0.09563   0.03065   0.18546  -0.24555
  27   31176.0    320.8   0.010996707   0.11612   0.31656  -0.12396  -0.02330
  28   31385.5    318.6   0.381841017   4.00525   0.73386  -0.28102   1.84058
  29   31719.0    315.3   0.110680191   1.14875  -1.05717  -0.17573   0.01630
  30   31955.1    312.9   0.016036729   0.16522   0.27295  -0.08688   0.28838
  31   32291.9    309.7   0.614121626   6.26089  -1.93539  -1.21024   1.02492
  32   32623.8    306.5   0.158062286   1.59503   0.87704  -0.57905  -0.70038
  33   32697.1    305.8   0.397599461   4.00325  -1.66376  -0.27232   1.07749
  34   32875.0    304.2   0.443628715   4.44253  -0.98049   1.39474   1.23930
  35   33214.4    301.1   0.006916290   0.06855   0.06080  -0.00090  -0.25467
  36   33245.0    300.8   0.032245325   0.31931  -0.09092  -0.03182   0.55681
  37   33494.9    298.6   0.106896996   1.05066   0.75282  -0.60362  -0.34578
  38   34093.7    293.3   0.019203835   0.18543   0.05234  -0.12187  -0.40969
  39   34363.4    291.0   0.008708761   0.08343   0.02083  -0.28082  -0.06433
  40   34753.3    287.7   0.023932227   0.22671   0.05263   0.35614  -0.31161
  41   34978.6    285.9   0.034564434   0.32531   0.31693   0.31484  -0.35460
  42   35110.7    284.8   0.017974396   0.16854   0.00629   0.34679  -0.21963
  43   35154.1    284.5   0.016042497   0.15024  -0.31613  -0.08855   0.20605
  44   35264.4    283.6   0.099224102   0.92631   0.84977   0.15375  -0.42493
  45   35398.9    282.5   0.249558793   2.32091   0.31567   1.19790  -0.88674
  46   36303.6    275.5   0.026683523   0.24197  -0.10709  -0.10436   0.46863
  47   36424.4    274.5   0.001009764   0.00913   0.01009  -0.05156  -0.07979
  48   36965.4    270.5   0.166591885   1.48366  -0.39722  -0.71320   0.90400
  49   37132.2    269.3   0.244804753   2.17042  -0.15739   0.85282   1.19095
  50   37216.0    268.7   0.003338741   0.02953  -0.06528  -0.15897  -0.00026
  51   37394.9    267.4   0.086367495   0.76035  -0.13446   0.37591   0.77522
  52   37869.4    264.1   0.044475650   0.38664   0.31421   0.32710  -0.42535
  53   38133.5    262.2   0.016505998   0.14250  -0.12824   0.33690  -0.11204
  54   38316.6    261.0   0.073088778   0.62797   0.71594  -0.24837   0.23176
  55   38461.7    260.0   0.002354651   0.02015  -0.04939   0.03228  -0.12913
  56   38535.8    259.5   0.086684050   0.74054  -0.64630  -0.52412   0.21940
  57   38630.1    258.9   0.373466373   3.18274   0.49003  -1.13710   1.28438
  58   38805.0    257.7   0.088025243   0.74678  -0.02269   0.59666   0.62472
  59   38956.3    256.7   0.020640472   0.17443  -0.17657  -0.06715  -0.37248
  60   38990.1    256.5   0.010092908   0.08522  -0.06118   0.28503   0.01520
  61   39143.5    255.5   0.060893900   0.51214  -0.23222   0.32303   0.59487
  62   39410.7    253.7   0.010293757   0.08599   0.11351   0.03078  -0.26862
  63   39568.1    252.7   0.000077381   0.00064   0.01534   0.02021   0.00053
  64   39931.2    250.4   0.061603151   0.50789  -0.60594   0.27707  -0.25290
  65   40199.1    248.8   0.126287351   1.03424   0.24710   0.44897  -0.87841
  66   40211.4    248.7   0.019036796   0.15585   0.01661  -0.10668   0.37974
  67   40284.5    248.2   0.288599073   2.35848   0.96409   0.92003  -0.76326

-----------------------------------------------------------------------------
         ABSORPTION SPECTRUM VIA TRANSITION VELOCITY DIPOLE MOMENTS
-----------------------------------------------------------------------------
State   Energy  Wavelength   fosc         P2         PX        PY        PZ  
        (cm-1)    (nm)                  (au**2)     (au)      (au)      (au) 
-----------------------------------------------------------------------------
   0   11943.8    837.3   0.354722843   0.02896   0.06526  -0.04216   0.15139
   1   14624.4    683.8   0.067783603   0.00678   0.05224  -0.02339  -0.05915
   2   16342.6    611.9   1.187241729   0.13261  -0.09066   0.07544  -0.34452
   3   17924.2    557.9   1.558376953   0.19091   0.41561  -0.13004  -0.03559
   4   19329.1    517.4   0.115396897   0.01524   0.03699   0.02104  -0.11590
   5   21917.9    456.2   0.312184515   0.04676   0.19802  -0.04008   0.07713
   6   23782.6    420.5   0.019756902   0.00321  -0.05634   0.00604   0.00055
   7   24486.4    408.4   0.014725307   0.00246   0.03762   0.00418   0.03212
   8   24655.1    405.6   0.048162405   0.00812   0.08770   0.00781  -0.01905
   9   24820.1    402.9   0.030918131   0.00524   0.01942   0.02647  -0.06455
  10   25264.6    395.8   0.053077438   0.00916  -0.02129  -0.04634  -0.08102
  11   25444.7    393.0   0.006554047   0.00114   0.01134  -0.03005   0.01041
  12   26030.9    384.2   0.223302132   0.03973   0.14701  -0.01120   0.13413
  13   26210.9    381.5   0.000106669   0.00002  -0.00374  -0.00163   0.00157
  14   26460.6    377.9   0.017158265   0.00310  -0.00444   0.04845  -0.02713
  15   27018.8    370.1   0.231960830   0.04283   0.05858  -0.05085  -0.19188
  16   27372.0    365.3   0.097361770   0.01821   0.07771   0.00953   0.10993
  17   27875.0    358.7   0.014450735   0.00275   0.01827  -0.03722   0.03215
  18   28255.3    353.9   0.032566933   0.00629  -0.01274  -0.00550  -0.07808
  19   28315.4    353.2   0.006777252   0.00131   0.02482   0.02608   0.00393
  20   28695.4    348.5   0.015009918   0.00294   0.05181   0.01244  -0.01023
  21   28731.7    348.0   0.049269266   0.00967  -0.08443  -0.03904   0.03197
  22   29079.4    343.9   0.037149998   0.00738   0.03344   0.00558   0.07896
  23   29520.2    338.8   0.061821646   0.01247   0.07085   0.04377  -0.07442
  24   29620.5    337.6   0.038150428   0.00772   0.06715  -0.05622   0.00730
  25   30634.4    326.4   0.299128902   0.06263  -0.21812   0.06239   0.10565
  26   30978.0    322.8   0.008399485   0.00178   0.00487   0.02418  -0.03420
  27   31176.0    320.8   0.010408167   0.00222   0.04436  -0.01577   0.00120
  28   31385.5    318.6   0.356576263   0.07649   0.10559  -0.03707   0.25291
  29   31719.0    315.3   0.106589054   0.02311  -0.15080  -0.01905  -0.00173
  30   31955.1    312.9   0.015289332   0.00334   0.04031  -0.01164   0.03974
  31   32291.9    309.7   0.546285168   0.12056  -0.26905  -0.16815   0.14107
  32   32623.8    306.5   0.146027387   0.03256   0.12592  -0.08281  -0.09922
  33   32697.1    305.8   0.363403532   0.08121  -0.23587  -0.03948   0.15498
  34   32875.0    304.2   0.410629986   0.09226  -0.14374   0.20012   0.17763
  35   33214.4    301.1   0.006650293   0.00151   0.00719   0.00239  -0.03811
  36   33245.0    300.8   0.028629162   0.00650  -0.00990  -0.00584   0.07983
  37   33494.9    298.6   0.095675738   0.02190   0.10903  -0.08802  -0.04761
  38   34093.7    293.3   0.018648858   0.00435   0.00766  -0.01974  -0.06243
  39   34363.4    291.0   0.008066271   0.00189   0.00318  -0.04220  -0.01018
  40   34753.3    287.7   0.019464206   0.00462   0.00844   0.05216  -0.04280
  41   34978.6    285.9   0.030099673   0.00720   0.04631   0.04683  -0.05346
  42   35110.7    284.8   0.015258600   0.00366  -0.00031   0.05189  -0.03112
  43   35154.1    284.5   0.013845874   0.00333  -0.04755  -0.01190   0.03040
  44   35264.4    283.6   0.087473742   0.02108   0.12758   0.02070  -0.06616
  45   35398.9    282.5   0.213194058   0.05158   0.04216   0.18166  -0.12961
  46   36303.6    275.5   0.023120770   0.00574  -0.01686  -0.01550   0.07219
  47   36424.4    274.5   0.000680651   0.00017   0.00111  -0.00796  -0.01024
  48   36965.4    270.5   0.148547031   0.03753  -0.06092  -0.11526   0.14329
  49   37132.2    269.3   0.209646423   0.05320  -0.02428   0.13485   0.18555
  50   37216.0    268.7   0.003003639   0.00076  -0.01005  -0.02573  -0.00080
  51   37394.9    267.4   0.072623407   0.01856  -0.01924   0.06168   0.11994
  52   37869.4    264.1   0.036933244   0.00956   0.04511   0.05344  -0.06833
  53   38133.5    262.2   0.012883068   0.00336  -0.02205   0.05078  -0.01710
  54   38316.6    261.0   0.064193317   0.01681   0.11625  -0.04005   0.04115
  55   38461.7    260.0   0.001925600   0.00051  -0.00689   0.00487  -0.02086
  56   38535.8    259.5   0.073060815   0.01924  -0.10524  -0.08530   0.02986
  57   38630.1    258.9   0.316171917   0.08347   0.07463  -0.18345   0.21036
  58   38805.0    257.7   0.075570353   0.02004  -0.00352   0.09791   0.10219
  59   38956.3    256.7   0.016962163   0.00452  -0.02791  -0.01178  -0.05999
  60   38990.1    256.5   0.008400904   0.00224  -0.00789   0.04661   0.00203
  61   39143.5    255.5   0.050378339   0.01348  -0.03335   0.05131   0.09865
  62   39410.7    253.7   0.009341681   0.00252   0.01600   0.00610  -0.04715
  63   39568.1    252.7   0.000072812   0.00002   0.00287   0.00338   0.00020
  64   39931.2    250.4   0.052677668   0.01438  -0.10179   0.04635  -0.04322
  65   40199.1    248.8   0.109339852   0.03004   0.04058   0.07715  -0.14980
  66   40211.4    248.7   0.016710376   0.00459   0.00371  -0.01724   0.06543
  67   40284.5    248.2   0.248017049   0.06829   0.16460   0.15723  -0.12834

-------------------------------------------------------------------
                             CD SPECTRUM
-------------------------------------------------------------------
State   Energy Wavelength       R         MX        MY        MZ   
        (cm-1)   (nm)       (1e40*cgs)   (au)      (au)      (au)  
-------------------------------------------------------------------
   0   11943.8    837.3     85.98152  -2.04677  -0.84778   0.58278
   1   14624.4    683.8    -13.87605   0.95783   0.40195   0.70944
   2   16342.6    611.9    -517.77902   3.80980  -1.28810  -1.66939
   3   17924.2    557.9    144.66776   1.45803   3.17141   6.93994
   4   19329.1    517.4     36.82512   1.70862  -0.19168   0.66407
   5   21917.9    456.2    -46.10566  -1.44441  -3.93699   1.87467
   6   23782.6    420.5    -14.00355  -0.08389   0.37254  -0.61316
   7   24486.4    408.4    -20.66883  -0.23281  -0.66643   0.53778
   8   24655.1    405.6    -17.21907   0.45654   1.58204   2.39444
   9   24820.1    402.9     36.13746   0.64929   1.46576   1.05216
  10   25264.6    395.8    -41.65416  -0.14650   0.61481  -0.58613
  11   25444.7    393.0      8.48726  -0.02763   0.02775  -0.32835
  12   26030.9    384.2    -77.32179  -1.28141  -3.24410   1.34516
  13   26210.9    381.5      0.11585   0.15120  -0.28990   0.07026
  14   26460.6    377.9     18.95021   0.18796   0.29173   0.84704
  15   27018.8    370.1    -10.78998   1.00474  -0.42075   0.38222
  16   27372.0    365.3      2.39860  -1.03025  -2.02163   0.87068
  17   27875.0    358.7      4.40447  -0.31988  -0.70367  -0.71064
  18   28255.3    353.9     10.18301   0.59576   0.88760  -0.09657
  19   28315.4    353.2      7.28731   0.27242  -0.39294   0.53627
  20   28695.4    348.5    -17.92625   0.18894   1.33261   1.96026
  21   28731.7    348.0    -60.10582  -0.60981  -1.99923  -3.16706
  22   29079.4    343.9      1.23664  -0.36718  -1.59657   0.27067
  23   29520.2    338.8    107.30968   0.97421   2.25767   2.97585
  24   29620.5    337.6    -39.75048  -0.99321  -1.60646  -0.02834
  25   30634.4    326.4     14.34727  -0.31538   2.62644  -2.32535
  26   30978.0    322.8      9.43765   0.24447   0.20718   0.35004
  27   31176.0    320.8    -24.33236  -0.38513  -1.79392  -0.11864
  28   31385.5    318.6    -98.70872  -2.66558  -3.97845   0.68288
  29   31719.0    315.3    -70.42180  -0.13811  -1.15847  -3.11813
  30   31955.1    312.9    -18.88290  -0.36378  -0.43435   0.49125
  31   32291.9    309.7    -336.67780  -1.95449  -6.04900  -9.43992
  32   32623.8    306.5    382.63854  -0.83509  -0.06365   1.32457
  33   32697.1    305.8    942.76376  -1.88475  -6.11176  -8.16681
  34   32875.0    304.2    -624.50919   2.11617   2.41180   1.09771
  35   33214.4    301.1     -8.11080   0.13405   0.29525  -0.10416
  36   33245.0    300.8     30.01309  -1.43358  -0.02703  -0.46429
  37   33494.9    298.6    -48.18793  -1.07735  -1.90396   0.38692
  38   34093.7    293.3     -1.89651  -0.37685  -0.24932   0.00638
  39   34363.4    291.0     -3.58054  -0.30545   0.00346  -0.35012
  40   34753.3    287.7     24.58489   0.06874   0.61721   1.05174
  41   34978.6    285.9     68.47469   0.31687   0.63377   1.66512
  42   35110.7    284.8    -48.42255   0.27594   1.33927   1.18725
  43   35154.1    284.5     56.52919   0.02490  -0.04171  -1.14359
  44   35264.4    283.6    309.44232  -0.22450  -0.70710   2.38454
  45   35398.9    282.5    -294.58932   1.34809   3.75149   4.13846
  46   36303.6    275.5    -27.18582  -1.13409  -0.57928  -0.14207
  47   36424.4    274.5     -7.77412   0.20898  -0.06624  -0.34413
  48   36965.4    270.5    148.51527  -1.44041  -3.50742  -4.09704
  49   37132.2    269.3    -60.37014   0.30978  -1.47490   1.31214
  50   37216.0    268.7     -3.89422  -0.27388   0.00952  -0.59448
  51   37394.9    267.4      3.64535  -0.34014  -0.99450   0.40330
  52   37869.4    264.1     35.47108   2.10071  -1.01226   1.12712
  53   38133.5    262.2    -60.65546   0.51897   1.35754   1.19131
  54   38316.6    261.0     38.46813  -1.22880  -1.84484   1.11475
  55   38461.7    260.0      3.04111  -0.11611   0.75387   0.33278
  56   38535.8    259.5    179.39106  -0.81541   0.72079  -4.14873
  57   38630.1    258.9      5.93592  -1.97749  -6.60154  -5.10967
  58   38805.0    257.7    -162.24388   0.04081  -0.83593   1.90162
  59   38956.3    256.7     -8.61522   0.34265   1.40822  -0.51440
  60   38990.1    256.5    -27.86106   0.15849   0.37351   1.41015
  61   39143.5    255.5    -12.56311  -0.19480  -0.15271   0.09647
  62   39410.7    253.7     34.22948   0.23572   0.43205   0.68971
  63   39568.1    252.7     -0.36101   0.01077   0.06381   0.14447
  64   39931.2    250.4    -28.33764   0.96845   1.95102  -0.65828
  65   40199.1    248.8    170.98765   1.88225   2.42125   2.59284
  66   40211.4    248.7     31.46880  -0.90930  -0.47504  -0.44523
  67   40284.5    248.2    -38.48724   1.24950   4.81372   7.16685

sTD-DFT done

Total run time:        8.423 sec

           *** ORCA-CIS/TD-DFT FINISHED WITHOUT ERROR ***

-------------------------   --------------------
FINAL SINGLE POINT ENERGY     -4445.089076575930
-------------------------   --------------------


                            ***************************************
                            *     ORCA property calculations      *
                            ***************************************

                                    ---------------------
                                    Active property flags
                                    ---------------------
   (+) Dipole Moment


------------------------------------------------------------------------------
                       ORCA ELECTRIC PROPERTIES CALCULATION
------------------------------------------------------------------------------

Dipole Moment Calculation                       ... on
Quadrupole Moment Calculation                   ... off
Polarizability Calculation                      ... off
GBWName                                         ... xtbopt.gbw
Electron density file                           ... xtbopt.scfp
The origin for moment calculation is the CENTER OF MASS  = (-14.549806, 16.538939  3.811372)

-------------
DIPOLE MOMENT
-------------
                                X             Y             Z
Electronic contribution:     32.18726       6.02102      -4.67294
Nuclear contribution   :    -35.78216      -6.11118       4.52916
                        -----------------------------------------
Total Dipole Moment    :     -3.59490      -0.09016      -0.14378
                        -----------------------------------------
Magnitude (a.u.)       :      3.59890
Magnitude (Debye)      :      9.14769



--------------------
Rotational spectrum 
--------------------
 
Rotational constants in cm-1:     0.000719     0.000182     0.000153 
Rotational constants in MHz :    21.566330     5.457757     4.583224 

 Dipole components along the rotational axes: 
x,y,z [a.u.] :    -1.764455     2.933593     1.110335 
x,y,z [Debye]:    -4.484887     7.456600     2.822247 

 

Timings for individual modules:

Sum of individual times         ...     1201.521 sec (=  20.025 min)
GTO integral calculation        ...        6.578 sec (=   0.110 min)   0.5 %
SCF iterations                  ...     1185.282 sec (=  19.755 min)  98.6 %
CIS module                      ...        9.661 sec (=   0.161 min)   0.8 %
                             ****ORCA TERMINATED NORMALLY****
TOTAL RUN TIME: 0 days 0 hours 20 minutes 2 seconds 716 msec
