
                                 *****************
                                 * O   R   C   A *
                                 *****************

           --- An Ab Initio, DFT and Semiempirical electronic structure package ---

                  #######################################################
                  #                        -***-                        #
                  #          Department of theory and spectroscopy      #
                  #               Directorship: Frank Neese             #
                  #        Max Planck Institute fuer Kohlenforschung    #
                  #                Kaiser Wilhelm Platz 1               #
                  #                 D-45470 Muelheim/Ruhr               #
                  #                      Germany                        #
                  #                                                     #
                  #                  All rights reserved                #
                  #                        -***-                        #
                  #######################################################


                         Program Version 4.2.0 -  RELEASE  -


 With contributions from (in alphabetic order):
   Daniel Aravena         : Magnetic Suceptibility
   Michael Atanasov       : Ab Initio Ligand Field Theory (pilot matlab implementation)
   Alexander A. Auer      : GIAO ZORA, VPT2
   Ute Becker             : Parallelization
   Giovanni Bistoni       : ED, misc. LED, open-shell LED, HFLED
   Martin Brehm           : Molecular dynamics
   Dmytro Bykov           : SCF Hessian
   Vijay G. Chilkuri      : MRCI spin determinant printing, contributions to CSF-ICE
   Dipayan Datta          : RHF DLPNO-CCSD density
   Achintya Kumar Dutta   : EOM-CC, STEOM-CC
   Dmitry Ganyushin       : Spin-Orbit,Spin-Spin,Magnetic field MRCI
   Miquel Garcia          : C-PCM Hessian, Gaussian charge scheme
   Yang Guo               : DLPNO-NEVPT2, CIM, IAO-localization
   Andreas Hansen         : Spin unrestricted coupled pair/coupled cluster methods
   Benjamin Helmich-Paris : CASSCF linear response (MC-RPA)
   Lee Huntington         : MR-EOM, pCC
   Robert Izsak           : Overlap fitted RIJCOSX, COSX-SCS-MP3, EOM
   Christian Kollmar      : KDIIS, OOCD, Brueckner-CCSD(T), CCSD density
   Simone Kossmann        : Meta GGA functionals, TD-DFT gradient, OOMP2, MP2 Hessian
   Martin Krupicka        : AUTO-CI
   Lucas Lang             : DCDCAS
   Dagmar Lenk            : GEPOL surface, SMD
   Dimitrios Liakos       : Extrapolation schemes; Compound Job, initial MDCI parallelization
   Dimitrios Manganas     : Further ROCIS development; embedding schemes
   Dimitrios Pantazis     : SARC Basis sets
   Taras Petrenko         : DFT Hessian,TD-DFT gradient, ASA, ECA, R-Raman, ABS, FL, XAS/XES, NRVS
   Peter Pinski           : DLPNO-MP2, DLPNO-MP2 Gradient
   Christoph Reimann      : Effective Core Potentials
   Marius Retegan         : Local ZFS, SOC
   Christoph Riplinger    : Optimizer, TS searches, QM/MM, DLPNO-CCSD(T), (RO)-DLPNO pert. Triples
   Tobias Risthaus        : Range-separated hybrids, TD-DFT gradient, RPA, STAB
   Michael Roemelt        : Original ROCIS implementation
   Masaaki Saitow         : Open-shell DLPNO-CCSD energy and density
   Barbara Sandhoefer     : DKH picture change effects
   Avijit Sen             : IP-ROCIS
   Kantharuban Sivalingam : CASSCF convergence, NEVPT2, FIC-MRCI
   Bernardo de Souza      : ESD, SOC TD-DFT
   Georgi Stoychev        : AutoAux, RI-MP2 NMR
   Willem Van den Heuvel  : Paramagnetic NMR
   Boris Wezisla          : Elementary symmetry handling
   Frank Wennmohs         : Technical directorship


 We gratefully acknowledge several colleagues who have allowed us to
 interface, adapt or use parts of their codes:
   Stefan Grimme, W. Hujo, H. Kruse,             : VdW corrections, initial TS optimization,
                  C. Bannwarth                     DFT functionals, gCP, sTDA/sTD-DF
   Ed Valeev, F. Pavosevic, A. Kumar             : LibInt (2-el integral package), F12 methods
   Garnet Chan, S. Sharma, J. Yang, R. Olivares  : DMRG
   Ulf Ekstrom                                   : XCFun DFT Library
   Mihaly Kallay                                 : mrcc  (arbitrary order and MRCC methods)
   Andreas Klamt, Michael Diedenhofen            : otool_cosmo (COSMO solvation model)
   Jiri Pittner, Ondrej Demel                    : Mk-CCSD
   Frank Weinhold                                : gennbo (NPA and NBO analysis)
   Christopher J. Cramer and Donald G. Truhlar   : smd solvation model
   Lars Goerigk                                  : TD-DFT with DH, B97 family of functionals
   V. Asgeirsson, H. Jonsson                     : NEB implementation
   FAccTs GmbH                                   : IRC, NEB, NEB-TS, Multilevel, MM, QM/MM, CI optimization
   S Lehtola, MJT Oliveira, MAL Marques          : LibXC Library


 Your calculation uses the libint2 library for the computation of 2-el integrals
 For citations please refer to: http://libint.valeyev.net

 Your ORCA version has been built with support for libXC version: 4.2.3
 For citations please refer to: https://tddft.org/programs/libxc/

 This ORCA versions uses:
   CBLAS   interface :  Fast vector & matrix operations
   LAPACKE interface :  Fast linear algebra routines
   SCALAPACK package :  Parallel linear algebra routines


XCFun DFT library Copyright 2009-2010 Ulf Ekstrom and contributors.
See http://admol.org/xcfun for more information. This is free soft-
ware; see the source code for copying conditions. There is ABSOLUTELY
NO WARRANTY; not even for MERCHANTABILITY or FITNESS FOR A PARTICULAR
PURPOSE. For details see the documentation. Scientific users of this 
library should cite U. Ekstrom, L. Visscher, R. Bast, A. J. Thorvald-
sen and K. Ruud; J.Chem.Theor.Comp. 2010, DOI: 10.1021/ct100117s
XCFun Version 0.99 
----- Orbital basis set information -----
Your calculation utilizes the basis: def2-SVP
   F. Weigend and R. Ahlrichs, Phys. Chem. Chem. Phys. 7, 3297 (2005).

----- AuxJ basis set information -----
Your calculation utilizes the auxiliary basis: def2/J
   F. Weigend, Phys. Chem. Chem. Phys. 8, 1057 (2006).

================================================================================
                                        WARNINGS
                       Please study these warnings very carefully!
================================================================================

INFO   : Checking CIS options ...

WARNING: CIS/ROCIS methods need fully converged wavefunctions
  ===> : Setting SCFConvForced true
         You can overwrite this default with %scf ConvForced false 


INFO   : the flag for use of LIBINT has been found!

================================================================================
                                       INPUT FILE
================================================================================
NAME = xtbopt.inp
|  1> # ORCA input file
|  2> # SCF done       -211.973811334711          0.000637469840
|  3> ! CAM-B3LYP def2-SVP def2/J RIJCOSX Grid4 TightSCF
|  4> %maxcore 5000
|  5> %tddft
|  6>     Mode sTDDFT
|  7>     Ethresh 5.0
|  8>     maxcore 5000
|  9> end
| 10> 
| 11> %pal
| 12>   nprocs 6
| 13>   end
| 14> * xyz 0 1
| 15>    C       -3.04419         2.40412         7.60509
| 16>    C       -2.35768         1.22190         7.73463
| 17>    C       -1.25878         1.03637         8.59849
| 18>    N       -0.36047         0.81739         9.27934
| 19>    C       -2.62589         0.02948         7.03245
| 20>    N       -2.77164        -0.98068         6.50420
| 21>    C       -2.73614         3.63615         8.32677
| 22>    C       -3.62446         4.65054         7.89329
| 23>    C       -3.59284         5.93015         8.38978
| 24>    C       -2.63752         6.22475         9.36864
| 25>    C       -1.75485         5.20605         9.79813
| 26>    C       -1.78614         3.91194         9.29188
| 27>    S       -0.65881         5.78256        11.01712
| 28>    C       -1.39199         7.36237        10.93428
| 29>    C       -2.40477         7.45601        10.04036
| 30>   Br       -0.75146         8.73793        12.03667
| 31>    C       -4.53607         4.09079         6.87859
| 32>    O       -5.41315         4.69592         6.28863
| 33>    C       -4.17319         2.67669         6.74009
| 34>    C       -4.82948         1.75435         5.96062
| 35>    C       -5.93734         1.89841         5.11824
| 36>    C       -6.51071         0.79950         4.45670
| 37>    C       -7.60809         1.11584         3.69322
| 38>    C       -7.88881         2.49337         3.74647
| 39>    S       -6.80565         3.37292         4.74588
| 40>    C       -9.01116         2.94820         3.02503
| 41>    C       -9.77305         1.99547         2.33692
| 42>   Ge       -8.94886         0.22062         2.55975
| 43>    C       -8.19819        -0.50641         0.87398
| 44>    C      -10.08256        -1.07196         3.54853
| 45>    C      -10.86359         2.56386         1.70756
| 46>    C      -10.94992         3.94391         1.88271
| 47>    S       -9.63180         4.54644         2.85065
| 48>    C      -11.95809         4.80875         1.38160
| 49>    C      -11.86516         6.21387         1.50430
| 50>    C      -12.87468         7.10126         1.00703
| 51>    N      -12.70450         8.43171         1.13885
| 52>    C      -11.64181         8.89025         1.71601
| 53>    C      -10.64679         8.01115         2.21660
| 54>    N      -10.77335         6.72906         2.10292
| 55>    F       -9.55430         8.48057         2.81064
| 56>    F      -11.50801        10.20865         1.82050
| 57>    C      -14.05894         6.63994         0.38945
| 58>    C      -14.16245         5.23301         0.26311
| 59>    C      -13.12771         4.33782         0.73538
| 60>    N      -13.43890         3.06344         0.49815
| 61>    S      -14.86408         2.98933        -0.23543
| 62>    N      -15.17121         4.56333        -0.29469
| 63>    C      -15.06513         7.53450        -0.06124
| 64>    C      -16.32191         7.20359        -0.56326
| 65>    C      -17.08185         8.30246        -0.91730
| 66>    C      -16.39517         9.50198        -0.69808
| 67>    S      -14.82724         9.26033        -0.02492
| 68>    C      -17.05836        10.69711        -1.03835
| 69>    C      -18.35326        10.60517        -1.56068
| 70>   Ge      -18.87975         8.70555        -1.61473
| 71>    C      -19.20824         8.02715        -3.45020
| 72>    C      -20.32867         8.28633        -0.32914
| 73>    C      -18.86937        11.84571        -1.88162
| 74>    C      -18.01259        12.90600        -1.59206
| 75>    S      -16.50045        12.31775        -0.93244
| 76>    C      -18.25871        14.25642        -1.90195
| 77>    C      -17.57535        15.38020        -1.53557
| 78>    C      -16.61062        15.63780        -0.49215
| 79>    C      -16.59309        15.05692         0.75057
| 80>    C      -15.69680        15.42336         1.77307
| 81>    N      -14.97931        15.68758         2.62937
| 82>    C      -17.55613        14.11555         1.16715
| 83>    N      -18.36301        13.39372         1.54980
| 84>    C      -15.86632        16.83285        -0.87679
| 85>    C      -16.52067        17.43384        -1.98185
| 86>    C      -17.67280        16.59742        -2.37984
| 87>    O      -18.48991        16.82225        -3.24437
| 88>    C      -16.07850        18.60271        -2.55124
| 89>    C      -14.93177        19.19736        -2.01336
| 90>    C      -14.27987        18.58158        -0.91857
| 91>    C      -14.73250        17.40423        -0.33437
| 92>    S      -12.87729        19.47918        -0.42301
| 93>    C      -13.18402        20.65591        -1.67293
| 94>    C      -14.27846        20.39173        -2.42470
| 95>   Br      -12.02945        22.12102        -1.86837
| 96>    H       -4.28424         6.67915         8.03694
| 97>    H       -1.09219         3.17277         9.65507
| 98>    H       -2.96621         8.35464         9.86092
| 99>    H       -4.46289         0.73575         6.00324
|100>    H       -6.10968        -0.19427         4.56269
|101>    H       -7.59078         0.24468         0.37893
|102>    H       -8.99919        -0.80462         0.20462
|103>    H       -7.57954        -1.37386         1.08194
|104>    H      -10.45998        -0.62011         4.46035
|105>    H       -9.50614        -1.95438         3.80875
|106>    H      -10.92494        -1.37719         2.93549
|107>    H      -11.59051         2.01984         1.13270
|108>    H      -16.64385         6.18219        -0.65278
|109>    H      -18.38925         8.30080        -4.10785
|110>    H      -20.12911         8.44511        -3.84528
|111>    H      -19.29796         6.94536        -3.43601
|112>    H      -20.10283         8.72157         0.63933
|113>    H      -20.43401         7.21180        -0.21505
|114>    H      -21.27188         8.69212        -0.68191
|115>    H      -19.84925        12.00493        -2.29749
|116>    H      -19.05292        14.42419        -2.62421
|117>    H      -16.59899        19.04582        -3.38570
|118>    H      -14.20236        16.96419         0.49427
|119>    H      -14.61287        21.01095        -3.23698
|120> *
|121> 
|122>                          ****END OF INPUT****
================================================================================

                       ****************************
                       * Single Point Calculation *
                       ****************************

---------------------------------
CARTESIAN COORDINATES (ANGSTROEM)
---------------------------------
  C     -3.044190    2.404120    7.605090
  C     -2.357680    1.221900    7.734630
  C     -1.258780    1.036370    8.598490
  N     -0.360470    0.817390    9.279340
  C     -2.625890    0.029480    7.032450
  N     -2.771640   -0.980680    6.504200
  C     -2.736140    3.636150    8.326770
  C     -3.624460    4.650540    7.893290
  C     -3.592840    5.930150    8.389780
  C     -2.637520    6.224750    9.368640
  C     -1.754850    5.206050    9.798130
  C     -1.786140    3.911940    9.291880
  S     -0.658810    5.782560   11.017120
  C     -1.391990    7.362370   10.934280
  C     -2.404770    7.456010   10.040360
  Br    -0.751460    8.737930   12.036670
  C     -4.536070    4.090790    6.878590
  O     -5.413150    4.695920    6.288630
  C     -4.173190    2.676690    6.740090
  C     -4.829480    1.754350    5.960620
  C     -5.937340    1.898410    5.118240
  C     -6.510710    0.799500    4.456700
  C     -7.608090    1.115840    3.693220
  C     -7.888810    2.493370    3.746470
  S     -6.805650    3.372920    4.745880
  C     -9.011160    2.948200    3.025030
  C     -9.773050    1.995470    2.336920
  Ge    -8.948860    0.220620    2.559750
  C     -8.198190   -0.506410    0.873980
  C    -10.082560   -1.071960    3.548530
  C    -10.863590    2.563860    1.707560
  C    -10.949920    3.943910    1.882710
  S     -9.631800    4.546440    2.850650
  C    -11.958090    4.808750    1.381600
  C    -11.865160    6.213870    1.504300
  C    -12.874680    7.101260    1.007030
  N    -12.704500    8.431710    1.138850
  C    -11.641810    8.890250    1.716010
  C    -10.646790    8.011150    2.216600
  N    -10.773350    6.729060    2.102920
  F     -9.554300    8.480570    2.810640
  F    -11.508010   10.208650    1.820500
  C    -14.058940    6.639940    0.389450
  C    -14.162450    5.233010    0.263110
  C    -13.127710    4.337820    0.735380
  N    -13.438900    3.063440    0.498150
  S    -14.864080    2.989330   -0.235430
  N    -15.171210    4.563330   -0.294690
  C    -15.065130    7.534500   -0.061240
  C    -16.321910    7.203590   -0.563260
  C    -17.081850    8.302460   -0.917300
  C    -16.395170    9.501980   -0.698080
  S    -14.827240    9.260330   -0.024920
  C    -17.058360   10.697110   -1.038350
  C    -18.353260   10.605170   -1.560680
  Ge   -18.879750    8.705550   -1.614730
  C    -19.208240    8.027150   -3.450200
  C    -20.328670    8.286330   -0.329140
  C    -18.869370   11.845710   -1.881620
  C    -18.012590   12.906000   -1.592060
  S    -16.500450   12.317750   -0.932440
  C    -18.258710   14.256420   -1.901950
  C    -17.575350   15.380200   -1.535570
  C    -16.610620   15.637800   -0.492150
  C    -16.593090   15.056920    0.750570
  C    -15.696800   15.423360    1.773070
  N    -14.979310   15.687580    2.629370
  C    -17.556130   14.115550    1.167150
  N    -18.363010   13.393720    1.549800
  C    -15.866320   16.832850   -0.876790
  C    -16.520670   17.433840   -1.981850
  C    -17.672800   16.597420   -2.379840
  O    -18.489910   16.822250   -3.244370
  C    -16.078500   18.602710   -2.551240
  C    -14.931770   19.197360   -2.013360
  C    -14.279870   18.581580   -0.918570
  C    -14.732500   17.404230   -0.334370
  S    -12.877290   19.479180   -0.423010
  C    -13.184020   20.655910   -1.672930
  C    -14.278460   20.391730   -2.424700
  Br   -12.029450   22.121020   -1.868370
  H     -4.284240    6.679150    8.036940
  H     -1.092190    3.172770    9.655070
  H     -2.966210    8.354640    9.860920
  H     -4.462890    0.735750    6.003240
  H     -6.109680   -0.194270    4.562690
  H     -7.590780    0.244680    0.378930
  H     -8.999190   -0.804620    0.204620
  H     -7.579540   -1.373860    1.081940
  H    -10.459980   -0.620110    4.460350
  H     -9.506140   -1.954380    3.808750
  H    -10.924940   -1.377190    2.935490
  H    -11.590510    2.019840    1.132700
  H    -16.643850    6.182190   -0.652780
  H    -18.389250    8.300800   -4.107850
  H    -20.129110    8.445110   -3.845280
  H    -19.297960    6.945360   -3.436010
  H    -20.102830    8.721570    0.639330
  H    -20.434010    7.211800   -0.215050
  H    -21.271880    8.692120   -0.681910
  H    -19.849250   12.004930   -2.297490
  H    -19.052920   14.424190   -2.624210
  H    -16.598990   19.045820   -3.385700
  H    -14.202360   16.964190    0.494270
  H    -14.612870   21.010950   -3.236980

----------------------------
CARTESIAN COORDINATES (A.U.)
----------------------------
  NO LB      ZA    FRAG     MASS         X           Y           Z
   0 C     6.0000    0    12.011   -5.752685    4.543128   14.371537
   1 C     6.0000    0    12.011   -4.455370    2.309056   14.616332
   2 C     6.0000    0    12.011   -2.378749    1.958455   16.248791
   3 N     7.0000    0    14.007   -0.681190    1.544643   17.535411
   4 C     6.0000    0    12.011   -4.962213    0.055709   13.289405
   5 N     7.0000    0    14.007   -5.237641   -1.853217   12.291157
   6 C     6.0000    0    12.011   -5.170555    6.871328   15.735315
   7 C     6.0000    0    12.011   -6.849237    8.788247   14.916156
   8 C     6.0000    0    12.011   -6.789484   11.206359   15.854387
   9 C     6.0000    0    12.011   -4.984190   11.763073   17.704164
  10 C     6.0000    0    12.011   -3.316186    9.838009   18.515782
  11 C     6.0000    0    12.011   -3.375315    7.392495   17.559108
  12 S    16.0000    0    32.060   -1.244970   10.927455   20.819340
  13 C     6.0000    0    12.011   -2.630480   13.912863   20.662795
  14 C     6.0000    0    12.011   -4.544357   14.089817   18.973531
  15 Br   35.0000    0    79.900   -1.420054   16.512295   22.746010
  16 C     6.0000    0    12.011   -8.571930    7.730473   12.998651
  17 O     8.0000    0    15.999  -10.229371    8.874003   11.883788
  18 C     6.0000    0    12.011   -7.886186    5.058211   12.736924
  19 C     6.0000    0    12.011   -9.126395    3.315241   11.263939
  20 C     6.0000    0    12.011  -11.219947    3.587475    9.672072
  21 C     6.0000    0    12.011  -12.303459    1.510836    8.421942
  22 C     6.0000    0    12.011  -14.377207    2.108632    6.979174
  23 C     6.0000    0    12.011  -14.907690    4.711786    7.079802
  24 S    16.0000    0    32.060  -12.860815    6.373895    8.968413
  25 C     6.0000    0    12.011  -17.028625    5.571291    5.716478
  26 C     6.0000    0    12.011  -18.468388    3.770892    4.416139
  27 Ge   32.0000    0    72.590  -16.910895    0.416911    4.837226
  28 C     6.0000    0    12.011  -15.492334   -0.956976    1.651583
  29 C     6.0000    0    12.011  -19.053277   -2.025711    6.705750
  30 C     6.0000    0    12.011  -20.529210    4.844993    3.226821
  31 C     6.0000    0    12.011  -20.692350    7.452910    3.557806
  32 S    16.0000    0    32.060  -18.201464    8.591526    5.386948
  33 C     6.0000    0    12.011  -22.597515    9.087221    2.610846
  34 C     6.0000    0    12.011  -22.421903   11.742513    2.842715
  35 C     6.0000    0    12.011  -24.329619   13.419437    1.903011
  36 N     7.0000    0    14.007  -24.008026   15.933623    2.152115
  37 C     6.0000    0    12.011  -21.999833   16.800138    3.242789
  38 C     6.0000    0    12.011  -20.119517   15.138880    4.188767
  39 N     7.0000    0    14.007  -20.358681   12.716081    3.973943
  40 F     9.0000    0    18.998  -18.055010   16.025955    5.311340
  41 F     9.0000    0    18.998  -21.746987   19.291553    3.440246
  42 C     6.0000    0    12.011  -26.567546   12.547668    0.735954
  43 C     6.0000    0    12.011  -26.763152    9.888956    0.497206
  44 C     6.0000    0    12.011  -24.807777    8.197292    1.389667
  45 N     7.0000    0    14.007  -25.395841    5.789063    0.941367
  46 S    16.0000    0    32.060  -28.089040    5.649015   -0.444898
  47 N     7.0000    0    14.007  -28.669432    8.623444   -0.556883
  48 C     6.0000    0    12.011  -28.468970   14.238142   -0.115727
  49 C     6.0000    0    12.011  -30.843940   13.612812   -1.064407
  50 C     6.0000    0    12.011  -32.280018   15.689376   -1.733446
  51 C     6.0000    0    12.011  -30.982381   17.956140   -1.319180
  52 S    16.0000    0    32.060  -28.019423   17.499488   -0.047092
  53 C     6.0000    0    12.011  -32.235629   20.214608   -1.962197
  54 C     6.0000    0    12.011  -34.682635   20.040867   -2.949258
  55 Ge   32.0000    0    72.590  -35.677557   16.451105   -3.051397
  56 C     6.0000    0    12.011  -36.298313   15.169115   -6.519933
  57 C     6.0000    0    12.011  -38.415619   15.658894   -0.621984
  58 C     6.0000    0    12.011  -35.657942   22.385148   -3.555746
  59 C     6.0000    0    12.011  -34.038862   24.388805   -3.008557
  60 S    16.0000    0    32.060  -31.181332   23.277174   -1.762056
  61 C     6.0000    0    12.011  -34.503961   26.940729   -3.594165
  62 C     6.0000    0    12.011  -33.212598   29.064366   -2.901807
  63 C     6.0000    0    12.011  -31.389523   29.551159   -0.930029
  64 C     6.0000    0    12.011  -31.356396   28.453455    1.418372
  65 C     6.0000    0    12.011  -29.662653   29.145926    3.350617
  66 N     7.0000    0    14.007  -28.306794   29.645230    4.968789
  67 C     6.0000    0    12.011  -33.176278   26.674524    2.205594
  68 N     7.0000    0    14.007  -34.701060   25.310463    2.928698
  69 C     6.0000    0    12.011  -29.983000   31.809477   -1.656893
  70 C     6.0000    0    12.011  -31.219542   32.945183   -3.745154
  71 C     6.0000    0    12.011  -33.396752   31.364578   -4.497246
  72 O     8.0000    0    15.999  -34.940866   31.789445   -6.130971
  73 C     6.0000    0    12.011  -30.383962   35.154027   -4.821145
  74 C     6.0000    0    12.011  -28.216956   36.277753   -3.804699
  75 C     6.0000    0    12.011  -26.985044   35.114097   -1.735846
  76 C     6.0000    0    12.011  -27.840390   32.889228   -0.631868
  77 S    16.0000    0    32.060  -24.334551   36.810316   -0.799373
  78 C     6.0000    0    12.011  -24.914187   39.034013   -3.161380
  79 C     6.0000    0    12.011  -26.982379   38.534785   -4.582019
  80 Br   35.0000    0    79.900  -22.732366   41.802670   -3.530708
  81 H     1.0000    0     1.008   -8.096040   12.621764   15.187616
  82 H     1.0000    0     1.008   -2.063940    5.995666   18.245438
  83 H     1.0000    0     1.008   -5.605325   15.787982   18.634438
  84 H     1.0000    0     1.008   -8.433640    1.390366   11.344480
  85 H     1.0000    0     1.008  -11.545622   -0.367117    8.622235
  86 H     1.0000    0     1.008  -14.344495    0.462378    0.716074
  87 H     1.0000    0     1.008  -17.006005   -1.520511    0.386676
  88 H     1.0000    0     1.008  -14.323255   -2.596219    2.044570
  89 H     1.0000    0     1.008  -19.766498   -1.171838    8.428840
  90 H     1.0000    0     1.008  -17.964001   -3.693243    7.197494
  91 H     1.0000    0     1.008  -20.645145   -2.602512    5.547272
  92 H     1.0000    0     1.008  -21.902890    3.816944    2.140493
  93 H     1.0000    0     1.008  -31.452318   11.682646   -1.233575
  94 H     1.0000    0     1.008  -34.750646   15.686239   -7.762711
  95 H     1.0000    0     1.008  -38.038505   15.958945   -7.266526
  96 H     1.0000    0     1.008  -36.467859   13.124828   -6.493118
  97 H     1.0000    0     1.008  -37.988843   16.481379    1.208159
  98 H     1.0000    0     1.008  -38.614683   13.628327   -0.406386
  99 H     1.0000    0     1.008  -40.198028   16.425726   -1.288623
 100 H     1.0000    0     1.008  -37.509646   22.686030   -4.341627
 101 H     1.0000    0     1.008  -36.004801   27.257769   -4.959038
 102 H     1.0000    0     1.008  -31.367545   35.991384   -6.398046
 103 H     1.0000    0     1.008  -26.838571   32.057673    0.934035
 104 H     1.0000    0     1.008  -27.614322   39.704941   -6.117006

--------------------------------
INTERNAL COORDINATES (ANGSTROEM)
--------------------------------
 C      0   0   0     0.000000000000     0.00000000     0.00000000
 C      1   0   0     1.373215467470     0.00000000     0.00000000
 C      2   1   0     1.410055562912   124.10273684     0.00000000
 N      3   2   1     1.148246410402   176.42429762   179.66778484
 C      2   1   3     1.409559794014   125.88589627   180.56032739
 N      5   2   1     1.149223368454   175.34389726   178.21004912
 C      1   2   3     1.460689818476   125.03700808     0.50276947
 C      7   1   2     1.416334849144   108.69957992   177.73911142
 C      8   7   1     1.372918022534   122.84763402   179.77130792
 C      9   8   7     1.399139865060   117.70867256   359.79774594
 C     10   9   8     1.414679355543   119.13027005     0.10420329
 C      7   1   2     1.382026568558   131.17078093   357.31651470
 S     11  10   9     1.737700803303   111.56837328   180.20714392
 C     13  11  10     1.743621235848    90.11725306     0.00000000
 C     14  13  11     1.354099237279   114.11203772   359.96731848
 Br    14  13  11     1.875555306196   119.53675508   179.92827718
 C      8   7   1     1.474438518420   109.05703524     0.22473257
 O     17   8   7     1.217991972428   126.15352182   180.87466920
 C      1   2   3     1.448157589802   127.45486859   179.67212305
 C     19   1   2     1.374409371548   125.78273804     5.42015751
 C     20  19   1     1.399182306778   130.57427063   178.45118783
 C     21  20  19     1.404988084149   121.74051694   183.70487800
 C     22  21  20     1.373759647973   114.05197769   178.66614700
 C     23  22  21     1.406850447560   111.33572794     0.71610489
 S     24  23  22     1.716293720842   113.44705534   359.50068015
 C     24  23  22     1.409615381939   117.09325161   181.23584081
 C     26  24  23     1.400594943979   117.71538677     1.29580338
 Ge    27  26  24     1.969526564304   109.25494087   357.99319271
 C     28  27  26     1.983405798797   113.11291146   247.54950644
 C     28  27  26     1.983361952544   113.85962769   115.81196580
 C     27  26  24     1.381462519687   111.92347794   178.12553821
 C     31  27  26     1.393796396143   113.51746399     0.76205269
 S     26  24  23     1.723361103077   129.62536537   180.84866749
 C     32  31  27     1.419671161431   127.07100062   180.98126565
 C     34  32  31     1.413525199386   121.88620208   186.84038734
 C     35  34  32     1.433132616125   122.62130526   180.14215225
 N     36  35  34     1.347751812204   119.23308338   181.22500559
 C     37  36  35     1.293322323823   119.82766438   359.61340374
 C     38  37  36     1.418968624917   120.92813808   359.95063987
 N     39  38  37     1.293327237825   120.96560082     0.34635119
 F     39  38  37     1.329200157275   121.01215277   180.03355998
 F     38  37  36     1.329285206455   117.99704471   179.66856108
 C     36  35  34     1.413043858626   122.67438213     1.84325640
 C     43  36  35     1.416378530125   115.12080058   358.36138993
 C     34  32  31     1.416822606292   123.00764087     7.31078545
 N     45  34  32     1.333102274171   126.27155674   359.30751908
 S     46  45  34     1.604608968222   109.44103233   179.14969497
 N     44  43  36     1.333119979597   126.27143962   180.81366164
 C     43  36  35     1.419780752722   121.80215032   178.11081235
 C     49  43  36     1.393205468300   127.15895376   186.66642479
 C     50  49  43     1.382160772884   113.54350779   179.82646108
 C     51  50  49     1.399440981678   111.81113964     0.63141226
 S     52  51  50     1.723352428553   112.79457095   358.80474094
 C     52  51  50     1.408524180091   117.28441751   179.13120322
 C     54  52  51     1.399302541447   118.04320631     0.41022900
 Ge    51  50  49     1.970110292090   139.03454261   182.24872010
 C     56  51  50     1.984208245371   114.11669101   294.94694438
 C     56  51  50     1.981881990155   113.22018753    67.55040619
 C     55  54  52     1.381416485822   111.92873783   181.56921283
 C     59  55  54     1.393603905742   113.90816352   358.66462865
 S     54  52  51     1.717252021632   129.26392551   181.46774875
 C     60  59  55     1.407210376205   125.22848289   175.54131508
 C     62  60  59     1.365319260246   130.03374440   171.55091059
 C     63  62  60     1.444225408065   132.45601789   342.56995427
 C     64  63  62     1.371889891245   125.97735156   326.10308653
 C     65  64  63     1.408233037427   123.75737542   185.50440785
 N     66  65  64     1.147978135027   177.83488699   189.92032326
 C     65  64  63     1.409667483806   122.80067184   359.51919006
 N     68  65  64     1.148266043128   176.68889659   247.92845151
 C     64  63  62     1.459477619595   107.23570286   159.14067574
 C     70  64  63     1.417928244376   108.48801447    10.82355916
 C     71  70  64     1.478309167055   109.24833530   357.22645841
 O     72  71  70     1.210631819299   127.82133345   176.77079371
 C     71  70  64     1.373308544319   122.36393982   178.13941175
 C     74  71  70     1.399254519307   117.78794266     0.62870235
 C     75  74  71     1.415176230192   119.33896860     0.00000000
 C     70  64  63     1.380667357911   130.85321771   189.55605560
 S     76  75  74     1.737381975848   111.57602774   179.51744207
 C     78  76  75     1.743868341418    90.12498510     0.15602721
 C     79  78  76     1.353790278773   114.11280982   359.92916060
 Br    79  78  76     1.875573509783   119.57220166   179.99064873
 H      9   8   7     1.078670953350   120.93911314   179.97181323
 H     12   7   1     1.076961404833   122.78362536     0.24034640
 H     15  14  13     1.074685751325   123.97212635   179.99501399
 H     20  19   1     1.083397735137   116.55514862     0.00000000
 H     22  21  20     1.076864779766   121.56564858   359.12893614
 H     29  28  27     1.085429683904   110.23022044    48.06403863
 H     29  28  27     1.085621026740   110.21141356   287.99188005
 H     29  28  27     1.085561922048   110.22910884   168.12062593
 H     30  28  27     1.085370900338   110.25958166   311.25023856
 H     30  28  27     1.085651657393   110.22556123   191.15928349
 H     30  28  27     1.085627679686   110.19674417    71.32132054
 H     31  27  26     1.074632247050   124.70853076   180.77110907
 H     50  49  43     1.074670718872   121.73528713     0.00000000
 H     57  56  51     1.085418106123   110.44839010   311.37345065
 H     57  56  51     1.085716503006   110.20675533   191.11303151
 H     57  56  51     1.085596904288   110.01654688    71.44113499
 H     58  56  51     1.085528306448   109.98729141    49.71518707
 H     58  56  51     1.085692297384   110.39259387   289.57031666
 H     58  56  51     1.085705899910   110.20030312   169.55136908
 H     59  55  54     1.076319506327   124.24580359   179.97550101
 H     62  60  59     1.086543052345   114.98639833   344.55922110
 H     74  71  70     1.078693563437   120.99817114   180.59579185
 H     77  70  64     1.077649233656   122.48582257     2.45464200
 H     80  79  78     1.074738226221   123.97363616   180.04139753

---------------------------
INTERNAL COORDINATES (A.U.)
---------------------------
 C      0   0   0     0.000000000000     0.00000000     0.00000000
 C      1   0   0     2.595001156384     0.00000000     0.00000000
 C      2   1   0     2.664618847516   124.10273684     0.00000000
 N      3   2   1     2.169871249917   176.42429762   179.66778484
 C      2   1   3     2.663681980072   125.88589627   180.56032739
 N      5   2   1     2.171717433080   175.34389726   178.21004912
 C      1   2   3     2.760303723527   125.03700808     0.50276947
 C      7   1   2     2.676484978811   108.69957992   177.73911142
 C      8   7   1     2.594439066915   122.84763402   179.77130792
 C      9   8   7     2.643991168015   117.70867256   359.79774594
 C     10   9   8     2.673356549289   119.13027005     0.10420329
 C      7   1   2     2.611651724377   131.17078093   357.31651470
 S     11  10   9     3.283778620938   111.56837328   180.20714392
 C     13  11  10     3.294966617042    90.11725306     0.00000000
 C     14  13  11     2.558876716609   114.11203772   359.96731848
 Br    14  13  11     3.544285877733   119.53675508   179.92827718
 C      8   7   1     2.786285001118   109.05703524     0.22473257
 O     17   8   7     2.301671261204   126.15352182   180.87466920
 C      1   2   3     2.736621243485   127.45486859   179.67212305
 C     19   1   2     2.597257308121   125.78273804     5.42015751
 C     20  19   1     2.644071371238   130.57427063   178.45118783
 C     21  20  19     2.655042700464   121.74051694   183.70487800
 C     22  21  20     2.596029508502   114.05197769   178.66614700
 C     23  22  21     2.658562057273   111.33572794     0.71610489
 S     24  23  22     3.243325097759   113.44705534   359.50068015
 C     24  23  22     2.663787026028   117.09325161   181.23584081
 C     26  24  23     2.646740868675   117.71538677     1.29580338
 Ge    27  26  24     3.721865820018   109.25494087   357.99319271
 C     28  27  26     3.748093772157   113.11291146   247.54950644
 C     28  27  26     3.748010914748   113.85962769   115.81196580
 C     27  26  24     2.610585826485   111.92347794   178.12553821
 C     31  27  26     2.633893475156   113.51746399     0.76205269
 S     26  24  23     3.256680514669   129.62536537   180.84866749
 C     32  31  27     2.682789695331   127.07100062   180.98126565
 C     34  32  31     2.671175510236   121.88620208   186.84038734
 C     35  34  32     2.708228158065   122.62130526   180.14215225
 N     36  35  34     2.546881821562   119.23308338   181.22500559
 C     37  36  35     2.444024994913   119.82766438   359.61340374
 C     38  37  36     2.681462093721   120.92813808   359.95063987
 N     39  38  37     2.444034281030   120.96560082     0.34635119
 F     39  38  37     2.511824274415   121.01215277   180.03355998
 F     38  37  36     2.511984994073   117.99704471   179.66856108
 C     36  35  34     2.670265908022   122.67438213     1.84325640
 C     43  36  35     2.676567523903   115.12080058   358.36138993
 C     34  32  31     2.677406706240   123.00764087     7.31078545
 N     45  34  32     2.519198206691   126.27155674   359.30751908
 S     46  45  34     3.032271501974   109.44103233   179.14969497
 N     44  43  36     2.519231665097   126.27143962   180.81366164
 C     43  36  35     2.682996792857   121.80215032   178.11081235
 C     49  43  36     2.632776783368   127.15895376   186.66642479
 C     50  49  43     2.611905333800   113.54350779   179.82646108
 C     51  50  49     2.644560195957   111.81113964     0.63141226
 S     52  51  50     3.256664122194   112.79457095   358.80474094
 C     52  51  50     2.661724953377   117.28441751   179.13120322
 C     54  52  51     2.644298581835   118.04320631     0.41022900
 Ge    51  50  49     3.722968905670   139.03454261   182.24872010
 C     56  51  50     3.749610176420   114.11669101   294.94694438
 C     56  51  50     3.745214191143   113.22018753    67.55040619
 C     55  54  52     2.610498835087   111.92873783   181.56921283
 C     59  55  54     2.633529721016   113.90816352   358.66462865
 S     54  52  51     3.245136023808   129.26392551   181.46774875
 C     60  59  55     2.659242223840   125.22848289   175.54131508
 C     62  60  59     2.580079487234   130.03374440   171.55091059
 C     63  62  60     2.729190496893   132.45601789   342.56995427
 C     64  63  62     2.592496180348   125.97735156   326.10308653
 C     65  64  63     2.661174773477   123.75737542   185.50440785
 N     66  65  64     2.169364282931   177.83488699   189.92032326
 C     65  64  63     2.663885484287   122.80067184   359.51919006
 N     68  65  64     2.169908350393   176.68889659   247.92845151
 C     64  63  62     2.758012999623   107.23570286   159.14067574
 C     70  64  63     2.679496059423   108.48801447    10.82355916
 C     71  70  64     2.793599467000   109.24833530   357.22645841
 O     72  71  70     2.287762587487   127.82133345   176.77079371
 C     71  70  64     2.595177046137   122.36393982   178.13941175
 C     74  71  70     2.644207833141   117.78794266     0.62870235
 C     75  74  71     2.674295506298   119.33896860     0.00000000
 C     70  64  63     2.609083188496   130.85321771   189.55605560
 S     76  75  74     3.283176124363   111.57602774   179.51744207
 C     78  76  75     3.295433578896    90.12498510     0.15602721
 C     79  78  76     2.558292869646   114.11280982   359.92916060
 Br    79  78  76     3.544320277527   119.57220166   179.99064873
 H      9   8   7     2.038392690446   120.93911314   179.97181323
 H     12   7   1     2.035162111938   122.78362536     0.24034640
 H     15  14  13     2.030861750031   123.97212635   179.99501399
 H     20  19   1     2.047325013519   116.55514862     0.00000000
 H     22  21  20     2.034979517023   121.56564858   359.12893614
 H     29  28  27     2.051164840207   110.23022044    48.06403863
 H     29  28  27     2.051526425765   110.21141356   287.99188005
 H     29  28  27     2.051414734083   110.22910884   168.12062593
 H     30  28  27     2.051053755366   110.25958166   311.25023856
 H     30  28  27     2.051584309310   110.22556123   191.15928349
 H     30  28  27     2.051538998011   110.19674417    71.32132054
 H     31  27  26     2.030760641605   124.70853076   180.77110907
 H     50  49  43     2.030833342812   121.73528713     0.00000000
 H     57  56  51     2.051142961372   110.44839010   311.37345065
 H     57  56  51     2.051706849760   110.20675533   191.11303151
 H     57  56  51     2.051480840937   110.01654688    71.44113499
 H     58  56  51     2.051351209806   109.98729141    49.71518707
 H     58  56  51     2.051661107764   110.39259387   289.57031666
 H     58  56  51     2.051686812813   110.20030312   169.55136908
 H     59  55  54     2.033949099555   124.24580359   179.97550101
 H     62  60  59     2.053268801648   114.98639833   344.55922110
 H     74  71  70     2.038435417319   120.99817114   180.59579185
 H     77  70  64     2.036461920041   122.48582257     2.45464200
 H     80  79  78     2.030960913213   123.97363616   180.04139753

---------------------
BASIS SET INFORMATION
---------------------
There are 8 groups of distinct atoms

 Group   1 Type C   : 7s4p1d contracted to 3s2p1d pattern {511/31/1}
 Group   2 Type N   : 7s4p1d contracted to 3s2p1d pattern {511/31/1}
 Group   3 Type S   : 10s7p1d contracted to 4s3p1d pattern {5311/511/1}
 Group   4 Type Br  : 14s10p6d contracted to 5s4p3d pattern {63311/5311/411}
 Group   5 Type O   : 7s4p1d contracted to 3s2p1d pattern {511/31/1}
 Group   6 Type Ge  : 14s10p6d contracted to 5s4p3d pattern {63311/5311/411}
 Group   7 Type F   : 7s4p1d contracted to 3s2p1d pattern {511/31/1}
 Group   8 Type H   : 4s1p contracted to 2s1p pattern {31/1}

Atom   0C    basis set group =>   1
Atom   1C    basis set group =>   1
Atom   2C    basis set group =>   1
Atom   3N    basis set group =>   2
Atom   4C    basis set group =>   1
Atom   5N    basis set group =>   2
Atom   6C    basis set group =>   1
Atom   7C    basis set group =>   1
Atom   8C    basis set group =>   1
Atom   9C    basis set group =>   1
Atom  10C    basis set group =>   1
Atom  11C    basis set group =>   1
Atom  12S    basis set group =>   3
Atom  13C    basis set group =>   1
Atom  14C    basis set group =>   1
Atom  15Br   basis set group =>   4
Atom  16C    basis set group =>   1
Atom  17O    basis set group =>   5
Atom  18C    basis set group =>   1
Atom  19C    basis set group =>   1
Atom  20C    basis set group =>   1
Atom  21C    basis set group =>   1
Atom  22C    basis set group =>   1
Atom  23C    basis set group =>   1
Atom  24S    basis set group =>   3
Atom  25C    basis set group =>   1
Atom  26C    basis set group =>   1
Atom  27Ge   basis set group =>   6
Atom  28C    basis set group =>   1
Atom  29C    basis set group =>   1
Atom  30C    basis set group =>   1
Atom  31C    basis set group =>   1
Atom  32S    basis set group =>   3
Atom  33C    basis set group =>   1
Atom  34C    basis set group =>   1
Atom  35C    basis set group =>   1
Atom  36N    basis set group =>   2
Atom  37C    basis set group =>   1
Atom  38C    basis set group =>   1
Atom  39N    basis set group =>   2
Atom  40F    basis set group =>   7
Atom  41F    basis set group =>   7
Atom  42C    basis set group =>   1
Atom  43C    basis set group =>   1
Atom  44C    basis set group =>   1
Atom  45N    basis set group =>   2
Atom  46S    basis set group =>   3
Atom  47N    basis set group =>   2
Atom  48C    basis set group =>   1
Atom  49C    basis set group =>   1
Atom  50C    basis set group =>   1
Atom  51C    basis set group =>   1
Atom  52S    basis set group =>   3
Atom  53C    basis set group =>   1
Atom  54C    basis set group =>   1
Atom  55Ge   basis set group =>   6
Atom  56C    basis set group =>   1
Atom  57C    basis set group =>   1
Atom  58C    basis set group =>   1
Atom  59C    basis set group =>   1
Atom  60S    basis set group =>   3
Atom  61C    basis set group =>   1
Atom  62C    basis set group =>   1
Atom  63C    basis set group =>   1
Atom  64C    basis set group =>   1
Atom  65C    basis set group =>   1
Atom  66N    basis set group =>   2
Atom  67C    basis set group =>   1
Atom  68N    basis set group =>   2
Atom  69C    basis set group =>   1
Atom  70C    basis set group =>   1
Atom  71C    basis set group =>   1
Atom  72O    basis set group =>   5
Atom  73C    basis set group =>   1
Atom  74C    basis set group =>   1
Atom  75C    basis set group =>   1
Atom  76C    basis set group =>   1
Atom  77S    basis set group =>   3
Atom  78C    basis set group =>   1
Atom  79C    basis set group =>   1
Atom  80Br   basis set group =>   4
Atom  81H    basis set group =>   8
Atom  82H    basis set group =>   8
Atom  83H    basis set group =>   8
Atom  84H    basis set group =>   8
Atom  85H    basis set group =>   8
Atom  86H    basis set group =>   8
Atom  87H    basis set group =>   8
Atom  88H    basis set group =>   8
Atom  89H    basis set group =>   8
Atom  90H    basis set group =>   8
Atom  91H    basis set group =>   8
Atom  92H    basis set group =>   8
Atom  93H    basis set group =>   8
Atom  94H    basis set group =>   8
Atom  95H    basis set group =>   8
Atom  96H    basis set group =>   8
Atom  97H    basis set group =>   8
Atom  98H    basis set group =>   8
Atom  99H    basis set group =>   8
Atom 100H    basis set group =>   8
Atom 101H    basis set group =>   8
Atom 102H    basis set group =>   8
Atom 103H    basis set group =>   8
Atom 104H    basis set group =>   8
---------------------------------
AUXILIARY/J BASIS SET INFORMATION
---------------------------------
There are 8 groups of distinct atoms

 Group   1 Type C   : 12s5p4d2f1g contracted to 6s4p3d1f1g pattern {711111/2111/211/2/1}
 Group   2 Type N   : 12s5p4d2f1g contracted to 6s4p3d1f1g pattern {711111/2111/211/2/1}
 Group   3 Type S   : 14s5p5d2f1g contracted to 8s4p3d1f1g pattern {71111111/2111/311/2/1}
 Group   4 Type Br  : 19s5p5d3f1g contracted to 8s4p3d2f1g pattern {121111111/2111/311/21/1}
 Group   5 Type O   : 12s5p4d2f1g contracted to 6s4p3d1f1g pattern {711111/2111/211/2/1}
 Group   6 Type Ge  : 19s5p5d3f1g contracted to 8s4p3d2f1g pattern {121111111/2111/311/21/1}
 Group   7 Type F   : 12s5p4d2f1g contracted to 6s4p3d1f1g pattern {711111/2111/211/2/1}
 Group   8 Type H   : 5s2p1d contracted to 3s1p1d pattern {311/2/1}

Atom   0C    basis set group =>   1
Atom   1C    basis set group =>   1
Atom   2C    basis set group =>   1
Atom   3N    basis set group =>   2
Atom   4C    basis set group =>   1
Atom   5N    basis set group =>   2
Atom   6C    basis set group =>   1
Atom   7C    basis set group =>   1
Atom   8C    basis set group =>   1
Atom   9C    basis set group =>   1
Atom  10C    basis set group =>   1
Atom  11C    basis set group =>   1
Atom  12S    basis set group =>   3
Atom  13C    basis set group =>   1
Atom  14C    basis set group =>   1
Atom  15Br   basis set group =>   4
Atom  16C    basis set group =>   1
Atom  17O    basis set group =>   5
Atom  18C    basis set group =>   1
Atom  19C    basis set group =>   1
Atom  20C    basis set group =>   1
Atom  21C    basis set group =>   1
Atom  22C    basis set group =>   1
Atom  23C    basis set group =>   1
Atom  24S    basis set group =>   3
Atom  25C    basis set group =>   1
Atom  26C    basis set group =>   1
Atom  27Ge   basis set group =>   6
Atom  28C    basis set group =>   1
Atom  29C    basis set group =>   1
Atom  30C    basis set group =>   1
Atom  31C    basis set group =>   1
Atom  32S    basis set group =>   3
Atom  33C    basis set group =>   1
Atom  34C    basis set group =>   1
Atom  35C    basis set group =>   1
Atom  36N    basis set group =>   2
Atom  37C    basis set group =>   1
Atom  38C    basis set group =>   1
Atom  39N    basis set group =>   2
Atom  40F    basis set group =>   7
Atom  41F    basis set group =>   7
Atom  42C    basis set group =>   1
Atom  43C    basis set group =>   1
Atom  44C    basis set group =>   1
Atom  45N    basis set group =>   2
Atom  46S    basis set group =>   3
Atom  47N    basis set group =>   2
Atom  48C    basis set group =>   1
Atom  49C    basis set group =>   1
Atom  50C    basis set group =>   1
Atom  51C    basis set group =>   1
Atom  52S    basis set group =>   3
Atom  53C    basis set group =>   1
Atom  54C    basis set group =>   1
Atom  55Ge   basis set group =>   6
Atom  56C    basis set group =>   1
Atom  57C    basis set group =>   1
Atom  58C    basis set group =>   1
Atom  59C    basis set group =>   1
Atom  60S    basis set group =>   3
Atom  61C    basis set group =>   1
Atom  62C    basis set group =>   1
Atom  63C    basis set group =>   1
Atom  64C    basis set group =>   1
Atom  65C    basis set group =>   1
Atom  66N    basis set group =>   2
Atom  67C    basis set group =>   1
Atom  68N    basis set group =>   2
Atom  69C    basis set group =>   1
Atom  70C    basis set group =>   1
Atom  71C    basis set group =>   1
Atom  72O    basis set group =>   5
Atom  73C    basis set group =>   1
Atom  74C    basis set group =>   1
Atom  75C    basis set group =>   1
Atom  76C    basis set group =>   1
Atom  77S    basis set group =>   3
Atom  78C    basis set group =>   1
Atom  79C    basis set group =>   1
Atom  80Br   basis set group =>   4
Atom  81H    basis set group =>   8
Atom  82H    basis set group =>   8
Atom  83H    basis set group =>   8
Atom  84H    basis set group =>   8
Atom  85H    basis set group =>   8
Atom  86H    basis set group =>   8
Atom  87H    basis set group =>   8
Atom  88H    basis set group =>   8
Atom  89H    basis set group =>   8
Atom  90H    basis set group =>   8
Atom  91H    basis set group =>   8
Atom  92H    basis set group =>   8
Atom  93H    basis set group =>   8
Atom  94H    basis set group =>   8
Atom  95H    basis set group =>   8
Atom  96H    basis set group =>   8
Atom  97H    basis set group =>   8
Atom  98H    basis set group =>   8
Atom  99H    basis set group =>   8
Atom 100H    basis set group =>   8
Atom 101H    basis set group =>   8
Atom 102H    basis set group =>   8
Atom 103H    basis set group =>   8
Atom 104H    basis set group =>   8


           ************************************************************
           *        Program running with 6 parallel MPI-processes     *
           *              working on a common directory               *
           ************************************************************
------------------------------------------------------------------------------
                           ORCA GTO INTEGRAL CALCULATION
                           -- RI-GTO INTEGRALS CHOSEN --
------------------------------------------------------------------------------

                         BASIS SET STATISTICS AND STARTUP INFO

Gaussian basis set:
 # of primitive gaussian shells          ... 1206
 # of primitive gaussian functions       ... 2396
 # of contracted shells                  ...  596
 # of contracted basis functions         ... 1354
 Highest angular momentum                ...    2
 Maximum contraction depth               ...    6
Auxiliary gaussian basis set:
 # of primitive gaussian shells          ... 2193
 # of primitive gaussian functions       ... 6179
 # of contracted shells                  ... 1361
 # of contracted aux-basis functions     ... 4283
 Highest angular momentum                ...    4
 Maximum contraction depth               ...   12
Ratio of auxiliary to basis functions    ...  3.16
Integral package used                  ... LIBINT
 One Electron integrals                  ... done
 Ordering auxiliary basis shells         ... done
 Integral threshhold             Thresh  ...  2.500e-11
 Primitive cut-off               TCut    ...  2.500e-12
 Pre-screening matrix                    ... done
 Shell pair data                         ... 
 Ordering of the shell pairs             ... done (   0.010 sec) 47643 of 177906 pairs
 Determination of significant pairs      ... done (   0.000 sec)
 Creation of shell pair data             ... done (   0.007 sec)
 Storage of shell pair data              ... done (   0.043 sec)
 Shell pair data done in (   0.061 sec)
 Computing two index integrals           ... done
 Cholesky decomposition of the V-matrix  ... done


Timings:
 Total evaluation time                   ...   3.120 sec (  0.052 min)
 One electron matrix time                ...   0.690 sec (  0.011 min) = 22.1%
 Schwartz matrix evaluation time         ...   1.111 sec (  0.019 min) = 35.6%
 Two index repulsion integral time       ...   0.444 sec (  0.007 min) = 14.2%
 Cholesky decomposition of V             ...   0.797 sec (  0.013 min) = 25.6%
 Three index repulsion integral time     ...   0.000 sec (  0.000 min) =  0.0%



           ************************************************************
           *        Program running with 6 parallel MPI-processes     *
           *              working on a common directory               *
           ************************************************************
-------------------------------------------------------------------------------
                                 ORCA SCF
-------------------------------------------------------------------------------

------------
SCF SETTINGS
------------
Hamiltonian:
 Density Functional     Method          .... DFT(GTOs)
 Exchange Functional    Exchange        .... WB88
 Correlation Functional Correlation     .... LYP
 LDA part of GGA corr.  LDAOpt          .... VWN-5
 Gradients option       PostSCFGGA      .... off
 Hybrid DFT is turned on
   Fraction HF Exchange ScalHFX         ....  0.190000
   Scaling of DF-GGA-X  ScalDFX         ....  0.350000
   Scaling of DF-GGA-C  ScalDFC         ....  0.810000
   Scaling of DF-LDA-C  ScalLDAC        ....  1.000000
   Perturbative correction              ....  0.000000
   Density functional embedding theory  .... OFF
 Long-range corrected/Screened/Range-Separated Hybrid DFT is turned on
   Amount of maximum screened exact exchange              ....  0.460000
   Range separation parameter mu (erf(mu*r12)/r12)        ....  0.330000
 RI-approximation to the Coulomb term is turned on
   Number of auxiliary basis functions  .... 4283
   RIJ-COSX (HFX calculated with COS-X)).... on


General Settings:
 Integral files         IntName         .... xtbopt
 Hartree-Fock type      HFTyp           .... RHF
 Total Charge           Charge          ....    0
 Multiplicity           Mult            ....    1
 Number of Electrons    NEL             ....  708
 Basis Dimension        Dim             .... 1354
 Nuclear Repulsion      ENuc            ....  16606.4052129933 Eh

Convergence Acceleration:
 DIIS                   CNVDIIS         .... on
   Start iteration      DIISMaxIt       ....    12
   Startup error        DIISStart       ....  0.200000
   # of expansion vecs  DIISMaxEq       ....     5
   Bias factor          DIISBfac        ....   1.050
   Max. coefficient     DIISMaxC        ....  10.000
 Newton-Raphson         CNVNR           .... off
 SOSCF                  CNVSOSCF        .... on
   Start iteration      SOSCFMaxIt      ....   150
   Startup grad/error   SOSCFStart      ....  0.003300
 Level Shifting         CNVShift        .... on
   Level shift para.    LevelShift      ....    0.2500
   Turn off err/grad.   ShiftErr        ....    0.0010
 Zerner damping         CNVZerner       .... off
 Static damping         CNVDamp         .... on
   Fraction old density DampFac         ....    0.7000
   Max. Damping (<1)    DampMax         ....    0.9800
   Min. Damping (>=0)   DampMin         ....    0.0000
   Turn off err/grad.   DampErr         ....    0.1000
 Fernandez-Rico         CNVRico         .... off

SCF Procedure:
 Maximum # iterations   MaxIter         ....   125
 SCF integral mode      SCFMode         .... Direct
   Integral package                     .... LIBINT
 Reset frequency        DirectResetFreq ....    20
 Integral Threshold     Thresh          ....  2.500e-11 Eh
 Primitive CutOff       TCut            ....  2.500e-12 Eh

Convergence Tolerance:
 Convergence Check Mode ConvCheckMode   .... Total+1el-Energy
 Convergence forced     ConvForced      .... 1
 Energy Change          TolE            ....  1.000e-08 Eh
 1-El. energy change                    ....  1.000e-05 Eh
 Orbital Gradient       TolG            ....  1.000e-05
 Orbital Rotation angle TolX            ....  1.000e-05
 DIIS Error             TolErr          ....  5.000e-07


Diagonalization of the overlap matrix:
Smallest eigenvalue                        ... 1.176e-04
Time for diagonalization                   ...    0.298 sec
Threshold for overlap eigenvalues          ... 1.000e-08
Number of eigenvalues below threshold      ... 0
Time for construction of square roots      ...    0.214 sec
Total time needed                          ...    0.516 sec

-------------------
DFT GRID GENERATION
-------------------

General Integration Accuracy     IntAcc      ...  4.670
Radial Grid Type                 RadialGrid  ... Gauss-Chebyshev
Angular Grid (max. acc.)         AngularGrid ... Lebedev-302
Angular grid pruning method      GridPruning ... 3 (G Style)
Weight generation scheme         WeightScheme... Becke
Basis function cutoff            BFCut       ...    1.0000e-11
Integration weight cutoff        WCut        ...    1.0000e-14
Grids for H and He will be reduced by one unit

# of grid points (after initial pruning)     ... 602850 (   0.0 sec)
# of grid points (after weights+screening)   ... 522681 (   8.1 sec)
nearest neighbour list constructed           ...    0.0 sec
Grid point re-assignment to atoms done       ...    0.1 sec
Grid point division into batches done        ...    2.0 sec
Reduced shell lists constructed in    3.0 sec

Total number of grid points                  ...   522681
Total number of batches                      ...     8220
Average number of points per batch           ...       63
Average number of grid points per atom       ...     4978
Average number of shells per batch           ...    72.57 (12.18%)
Average number of basis functions per batch  ...   159.02 (11.74%)
Average number of large shells per batch     ...    47.51 (65.47%)
Average number of large basis fcns per batch ...   105.26 (66.20%)
Maximum spatial batch extension              ...  17.44, 18.71, 18.43 au
Average spatial batch extension              ...   0.39,  0.36,  0.40 au

Time for grid setup =   11.621 sec

------------------------------
INITIAL GUESS: MODEL POTENTIAL
------------------------------
Loading Hartree-Fock densities                     ... done
Calculating cut-offs                               ... done
Setting up the integral package                    ... done
Initializing the effective Hamiltonian             ... done
Starting the Coulomb interaction                   ... done (   1.7 sec)
Reading the grid                                   ... done
Mapping shells                                     ... done
Starting the XC term evaluation                    ... done (   1.7 sec)
  promolecular density results
     # of electrons  =    707.987561560
     EX              =   -900.138478356
     EC              =    -26.697225483
     EX+EC           =   -926.835703839
Transforming the Hamiltonian                       ... done (   0.1 sec)
Diagonalizing the Hamiltonian                      ... done (   0.3 sec)
Back transforming the eigenvectors                 ... done (   0.1 sec)
Now organizing SCF variables                       ... done
                      ------------------
                      INITIAL GUESS DONE (  15.6 sec)
                      ------------------
--------------------
COSX GRID GENERATION
--------------------

General Integration Accuracy     IntAcc      ...  3.340
Radial Grid Type                 RadialGrid  ... Gauss-Chebyshev
Angular Grid (max. acc.)         AngularGrid ... Lebedev-50
Angular grid pruning method      GridPruning ... 3 (G Style)
Weight generation scheme         WeightScheme... Becke
Basis function cutoff            BFCut       ...    1.0000e-11
Integration weight cutoff        WCut        ...    1.0000e-14
Grids for H and He will be reduced by one unit

# of grid points (after initial pruning)     ...  57326 (   0.0 sec)
# of grid points (after weights+screening)   ...  51903 (   0.8 sec)
nearest neighbour list constructed           ...    0.0 sec
Grid point re-assignment to atoms done       ...    0.0 sec
Grid point division into batches done        ...    0.0 sec
Reduced shell lists constructed in    0.1 sec

Total number of grid points                  ...    51903
Total number of batches                      ...      863
Average number of points per batch           ...       60
Average number of grid points per atom       ...      494
Average number of shells per batch           ...    87.33 (14.65%)
Average number of basis functions per batch  ...   193.32 (14.28%)
Average number of large shells per batch     ...    56.86 (65.11%)
Average number of large basis fcns per batch ...   127.95 (66.19%)
Maximum spatial batch extension              ...  19.83, 16.46, 17.85 au
Average spatial batch extension              ...   0.93,  0.69,  0.95 au

Overlap Fitting                  UseSFitting ... on
Constructing numerical overlap ... done (      0.1 sec)
Inverting numerical overlap    ... done (      0.1 sec)
Obtaining analytic overlap     ... done (      0.0 sec)
Final contraction and storage  ... done (      0.1 sec)


General Integration Accuracy     IntAcc      ...  3.670
Radial Grid Type                 RadialGrid  ... Gauss-Chebyshev
Angular Grid (max. acc.)         AngularGrid ... Lebedev-50
Angular grid pruning method      GridPruning ... 3 (G Style)
Weight generation scheme         WeightScheme... Becke
Basis function cutoff            BFCut       ...    1.0000e-11
Integration weight cutoff        WCut        ...    1.0000e-14
Grids for H and He will be reduced by one unit

# of grid points (after initial pruning)     ...  70894 (   0.0 sec)
# of grid points (after weights+screening)   ...  63922 (   0.9 sec)
nearest neighbour list constructed           ...    0.0 sec
Grid point re-assignment to atoms done       ...    0.0 sec
Grid point division into batches done        ...    0.0 sec
Reduced shell lists constructed in    0.2 sec

Total number of grid points                  ...    63922
Total number of batches                      ...     1063
Average number of points per batch           ...       60
Average number of grid points per atom       ...      609
Average number of shells per batch           ...    86.76 (14.56%)
Average number of basis functions per batch  ...   191.84 (14.17%)
Average number of large shells per batch     ...    56.74 (65.40%)
Average number of large basis fcns per batch ...   127.44 (66.43%)
Maximum spatial batch extension              ...  24.72, 17.33, 23.88 au
Average spatial batch extension              ...   0.89,  0.64,  0.90 au

Overlap Fitting                  UseSFitting ... on
Constructing numerical overlap ... done (      0.1 sec)
Inverting numerical overlap    ... done (      0.1 sec)
Obtaining analytic overlap     ... done (      0.0 sec)
Final contraction and storage  ... done (      0.1 sec)


General Integration Accuracy     IntAcc      ...  4.010
Radial Grid Type                 RadialGrid  ... Gauss-Chebyshev
Angular Grid (max. acc.)         AngularGrid ... Lebedev-110
Angular grid pruning method      GridPruning ... 3 (G Style)
Weight generation scheme         WeightScheme... Becke
Basis function cutoff            BFCut       ...    1.0000e-11
Integration weight cutoff        WCut        ...    1.0000e-14
Grids for H and He will be reduced by one unit

# of grid points (after initial pruning)     ... 140480 (   0.0 sec)
# of grid points (after weights+screening)   ... 125348 (   1.9 sec)
nearest neighbour list constructed           ...    0.0 sec
Grid point re-assignment to atoms done       ...    0.0 sec
Grid point division into batches done        ...    0.1 sec
Reduced shell lists constructed in    0.4 sec

Total number of grid points                  ...   125348
Total number of batches                      ...     2015
Average number of points per batch           ...       62
Average number of grid points per atom       ...     1194
Average number of shells per batch           ...    80.40 (13.49%)
Average number of basis functions per batch  ...   177.28 (13.09%)
Average number of large shells per batch     ...    52.79 (65.66%)
Average number of large basis fcns per batch ...   118.15 (66.65%)
Maximum spatial batch extension              ...  23.08, 18.24, 26.24 au
Average spatial batch extension              ...   0.68,  0.55,  0.68 au

Overlap Fitting                  UseSFitting ... on
Constructing numerical overlap ... done (      0.2 sec)
Inverting numerical overlap    ... done (      0.1 sec)
Obtaining analytic overlap     ... done (      0.0 sec)
Final contraction and storage  ... done (      0.1 sec)

Time for X-Grid setup             =    5.678 sec
--------------
SCF ITERATIONS
--------------
ITER       Energy         Delta-E        Max-DP      RMS-DP      [F,P]     Damp
               ***  Starting incremental Fock matrix formation  ***
  0 -15095.2383672851   0.000000000000 0.08598325  0.00097327  0.2260015 0.7000
  1 -15096.0788470237  -0.840479738650 0.05060142  0.00066473  0.1017790 0.7000
                               ***Turning on DIIS***
  2 -15096.4209681840  -0.342121160256 0.10057992  0.00116481  0.0450535 0.0000
  3 -15096.9615602201  -0.540592036132 0.07092882  0.00051441  0.0706910 0.0000
  4 -15097.0831802237  -0.121620003529 0.01781191  0.00016068  0.0204349 0.0000
  5 -15097.0914488203  -0.008268596615 0.01007340  0.00007137  0.0099689 0.0000
  6 -15097.0929659480  -0.001517127683 0.00329740  0.00003694  0.0028474 0.0000
                      *** Initiating the SOSCF procedure ***
                           *** Shutting down DIIS ***
                      *** Re-Reading the Fockian *** 
                      *** Removing any level shift *** 
ITER      Energy       Delta-E        Grad      Rot      Max-DP    RMS-DP
  7 -15097.09351233  -0.0005463831  0.002596  0.002596  0.003327  0.000041
               *** Restarting incremental Fock matrix formation ***
  8 -15097.09384331  -0.0003309788  0.000697  0.004831  0.002204  0.000020
  9 -15097.09388842  -0.0000451066  0.000517  0.004982  0.001094  0.000015
 10 -15097.09392164  -0.0000332246  0.000296  0.001188  0.001086  0.000007
 11 -15097.09392384  -0.0000021965  0.000207  0.000543  0.000431  0.000004
 12 -15097.09392781  -0.0000039679  0.000045  0.000351  0.000236  0.000002
 13 -15097.09392784  -0.0000000347  0.000063  0.000271  0.000140  0.000001
 14 -15097.09392832  -0.0000004749  0.000008  0.000051  0.000063  0.000001
 15 -15097.09392834  -0.0000000218  0.000009  0.000020  0.000033  0.000000
 16 -15097.09392831   0.0000000247  0.000003  0.000032  0.000015  0.000000
                  ***Gradient check signals convergence***
              ***Rediagonalizing the Fockian in SOSCF/NRSCF***

               *****************************************************
               *                     SUCCESS                       *
               *           SCF CONVERGED AFTER  17 CYCLES          *
               *****************************************************

Setting up the final grid:

General Integration Accuracy     IntAcc      ...  5.010
Radial Grid Type                 RadialGrid  ... Gauss-Chebyshev
Angular Grid (max. acc.)         AngularGrid ... Lebedev-434
Angular grid pruning method      GridPruning ... 3 (G Style)
Weight generation scheme         WeightScheme... Becke
Basis function cutoff            BFCut       ...    1.0000e-11
Integration weight cutoff        WCut        ...    1.0000e-14
Grids for H and He will be reduced by one unit

# of grid points (after initial pruning)     ... 1054968 (   0.1 sec)
# of grid points (after weights+screening)   ... 911694 (  13.8 sec)
nearest neighbour list constructed           ...    0.0 sec
Grid point re-assignment to atoms done       ...    0.1 sec
Grid point division into batches done        ...    6.4 sec
Reduced shell lists constructed in    8.0 sec

Total number of grid points                  ...   911694
Total number of batches                      ...    14301
Average number of points per batch           ...       63
Average number of grid points per atom       ...     8683
Average number of shells per batch           ...    71.09 (11.93%)
Average number of basis functions per batch  ...   155.51 (11.49%)
Average number of large shells per batch     ...    46.49 (65.39%)
Average number of large basis fcns per batch ...   102.83 (66.12%)
Maximum spatial batch extension              ...  21.78, 17.83, 20.64 au
Average spatial batch extension              ...   0.32,  0.30,  0.33 au

Final grid set up in   22.8 sec
Final integration                            ... done (   3.7 sec)
Change in XC energy                          ...    -0.000491598
Integrated number of electrons               ...   708.000017107
Previous integrated no of electrons          ...   707.999682968
Old exchange energy                            =   -228.668098944 Eh
New exchange energy                            =   -228.665810944 Eh
Exchange energy change after final integration =      0.002288000 Eh
Total energy after final integration           = -15097.092131971 Eh
Final COS-X integration done in                =    79.721 sec

----------------
TOTAL SCF ENERGY
----------------

Total Energy       :       -15097.09213197 Eh         -410812.76223 eV

Components:
Nuclear Repulsion  :        16606.40521299 Eh          451883.25915 eV
Electronic Energy  :       -31703.49734496 Eh         -862696.02137 eV
One Electron Energy:       -54010.88793690 Eh        -1469710.97943 eV
Two Electron Energy:        22307.39059194 Eh          607014.95805 eV

Virial components:
Potential Energy   :       -30147.51213763 Eh         -820355.51133 eV
Kinetic Energy     :        15050.42000566 Eh          409542.74911 eV
Virial Ratio       :            2.00310105


DFT components:
N(Alpha)           :      354.000008553694 electrons
N(Beta)            :      354.000008553694 electrons
N(Total)           :      708.000017107388 electrons
E(XC)              :     -708.174466949600 Eh       
DFET-embed. en.    :        0.000000000000 Eh       

---------------
SCF CONVERGENCE
---------------

  Last Energy change         ...   -6.0847e-08  Tolerance :   1.0000e-08
  Last MAX-Density change    ...    8.4377e-15  Tolerance :   1.0000e-07
  Last RMS-Density change    ...    4.3070e-17  Tolerance :   5.0000e-09
  Last Orbital Gradient      ...    2.1463e-06  Tolerance :   1.0000e-05
  Last Orbital Rotation      ...    8.3124e-06  Tolerance :   1.0000e-05

             **** THE GBW FILE WAS UPDATED (xtbopt.gbw) ****
             **** DENSITY FILE WAS UPDATED (xtbopt.scfp) ****
             **** ENERGY FILE WAS UPDATED (xtbopt.en.tmp) ****
             **** THE GBW FILE WAS UPDATED (xtbopt.gbw) ****
             **** DENSITY FILE WAS UPDATED (xtbopt.scfp) ****
----------------
ORBITAL ENERGIES
----------------

  NO   OCC          E(Eh)            E(eV) 
   0   2.0000    -482.881993    -13139.8871 
   1   2.0000    -482.881366    -13139.8700 
   2   2.0000    -398.778302    -10851.3093 
   3   2.0000    -398.776831    -10851.2692 
   4   2.0000     -89.045314     -2423.0462 
   5   2.0000     -88.971037     -2421.0250 
   6   2.0000     -88.970374     -2421.0070 
   7   2.0000     -88.968641     -2420.9598 
   8   2.0000     -88.963041     -2420.8074 
   9   2.0000     -88.962808     -2420.8011 
  10   2.0000     -88.961309     -2420.7603 
  11   2.0000     -62.559688     -1702.3357 
  12   2.0000     -62.559090     -1702.3194 
  13   2.0000     -56.393633     -1534.5488 
  14   2.0000     -56.393037     -1534.5325 
  15   2.0000     -56.390931     -1534.4752 
  16   2.0000     -56.390894     -1534.4742 
  17   2.0000     -56.390329     -1534.4589 
  18   2.0000     -56.390294     -1534.4579 
  19   2.0000     -49.837808     -1356.1557 
  20   2.0000     -49.836318     -1356.1151 
  21   2.0000     -44.375067     -1207.5070 
  22   2.0000     -44.374326     -1207.4868 
  23   2.0000     -44.373906     -1207.4754 
  24   2.0000     -44.373562     -1207.4660 
  25   2.0000     -44.372831     -1207.4461 
  26   2.0000     -44.372438     -1207.4354 
  27   2.0000     -24.819445      -675.3714 
  28   2.0000     -24.819172      -675.3640 
  29   2.0000     -19.213234      -522.8187 
  30   2.0000     -19.206348      -522.6313 
  31   2.0000     -14.460824      -393.4990 
  32   2.0000     -14.460549      -393.4915 
  33   2.0000     -14.455314      -393.3491 
  34   2.0000     -14.455164      -393.3450 
  35   2.0000     -14.410101      -392.1188 
  36   2.0000     -14.408741      -392.0818 
  37   2.0000     -14.406617      -392.0240 
  38   2.0000     -14.405245      -391.9866 
  39   2.0000     -10.436667      -283.9961 
  40   2.0000     -10.436299      -283.9861 
  41   2.0000     -10.361455      -281.9495 
  42   2.0000     -10.358394      -281.8662 
  43   2.0000     -10.354198      -281.7521 
  44   2.0000     -10.353811      -281.7415 
  45   2.0000     -10.347805      -281.5781 
  46   2.0000     -10.347526      -281.5705 
  47   2.0000     -10.344524      -281.4888 
  48   2.0000     -10.344285      -281.4823 
  49   2.0000     -10.334720      -281.2220 
  50   2.0000     -10.334187      -281.2075 
  51   2.0000     -10.334113      -281.2055 
  52   2.0000     -10.332270      -281.1554 
  53   2.0000     -10.321074      -280.8507 
  54   2.0000     -10.320729      -280.8413 
  55   2.0000     -10.319756      -280.8148 
  56   2.0000     -10.317612      -280.7565 
  57   2.0000     -10.317435      -280.7517 
  58   2.0000     -10.314676      -280.6766 
  59   2.0000     -10.313837      -280.6538 
  60   2.0000     -10.313705      -280.6502 
  61   2.0000     -10.312527      -280.6181 
  62   2.0000     -10.312157      -280.6081 
  63   2.0000     -10.312069      -280.6057 
  64   2.0000     -10.311672      -280.5949 
  65   2.0000     -10.310414      -280.5606 
  66   2.0000     -10.310088      -280.5518 
  67   2.0000     -10.307980      -280.4944 
  68   2.0000     -10.307649      -280.4854 
  69   2.0000     -10.305436      -280.4252 
  70   2.0000     -10.303791      -280.3804 
  71   2.0000     -10.302746      -280.3520 
  72   2.0000     -10.302040      -280.3328 
  73   2.0000     -10.301887      -280.3286 
  74   2.0000     -10.301501      -280.3181 
  75   2.0000     -10.300183      -280.2822 
  76   2.0000     -10.299312      -280.2585 
  77   2.0000     -10.295777      -280.1623 
  78   2.0000     -10.295350      -280.1507 
  79   2.0000     -10.293653      -280.1045 
  80   2.0000     -10.292253      -280.0664 
  81   2.0000     -10.291905      -280.0570 
  82   2.0000     -10.291020      -280.0329 
  83   2.0000     -10.286815      -279.9185 
  84   2.0000     -10.286735      -279.9163 
  85   2.0000     -10.286409      -279.9074 
  86   2.0000     -10.285906      -279.8937 
  87   2.0000     -10.278194      -279.6839 
  88   2.0000     -10.277322      -279.6601 
  89   2.0000     -10.271213      -279.4939 
  90   2.0000     -10.269309      -279.4421 
  91   2.0000     -10.268422      -279.4180 
  92   2.0000     -10.268336      -279.4156 
  93   2.0000     -10.267029      -279.3801 
  94   2.0000     -10.265099      -279.3275 
  95   2.0000     -10.264476      -279.3106 
  96   2.0000     -10.264473      -279.3105 
  97   2.0000      -8.789099      -239.1635 
  98   2.0000      -8.788524      -239.1479 
  99   2.0000      -8.136760      -221.4125 
 100   2.0000      -8.067032      -219.5151 
 101   2.0000      -8.066434      -219.4988 
 102   2.0000      -8.063662      -219.4234 
 103   2.0000      -8.056674      -219.2333 
 104   2.0000      -8.056492      -219.2283 
 105   2.0000      -8.055316      -219.1963 
 106   2.0000      -6.625363      -180.2853 
 107   2.0000      -6.624825      -180.2707 
 108   2.0000      -6.610851      -179.8904 
 109   2.0000      -6.610655      -179.8851 
 110   2.0000      -6.610258      -179.8743 
 111   2.0000      -6.610062      -179.8689 
 112   2.0000      -6.297656      -171.3679 
 113   2.0000      -6.296155      -171.3271 
 114   2.0000      -6.107913      -166.2048 
 115   2.0000      -6.100034      -165.9904 
 116   2.0000      -6.099457      -165.9747 
 117   2.0000      -6.036731      -164.2678 
 118   2.0000      -6.036124      -164.2513 
 119   2.0000      -6.032820      -164.1614 
 120   2.0000      -6.032455      -164.1514 
 121   2.0000      -6.031847      -164.1349 
 122   2.0000      -6.028848      -164.0533 
 123   2.0000      -6.028246      -164.0369 
 124   2.0000      -6.027638      -164.0204 
 125   2.0000      -6.026074      -163.9778 
 126   2.0000      -6.025868      -163.9722 
 127   2.0000      -6.025761      -163.9693 
 128   2.0000      -6.024648      -163.9390 
 129   2.0000      -6.021572      -163.8553 
 130   2.0000      -6.021347      -163.8492 
 131   2.0000      -6.020222      -163.8186 
 132   2.0000      -6.018948      -163.7839 
 133   2.0000      -6.018871      -163.7818 
 134   2.0000      -6.017611      -163.7475 
 135   2.0000      -4.473995      -121.7436 
 136   2.0000      -4.472817      -121.7116 
 137   2.0000      -4.472446      -121.7014 
 138   2.0000      -4.471695      -121.6810 
 139   2.0000      -4.471298      -121.6702 
 140   2.0000      -4.470266      -121.6421 
 141   2.0000      -2.741260       -74.5935 
 142   2.0000      -2.740656       -74.5770 
 143   2.0000      -2.737137       -74.4813 
 144   2.0000      -2.737040       -74.4787 
 145   2.0000      -2.736609       -74.4669 
 146   2.0000      -2.736498       -74.4639 
 147   2.0000      -2.725479       -74.1640 
 148   2.0000      -2.725469       -74.1638 
 149   2.0000      -2.724898       -74.1483 
 150   2.0000      -2.724878       -74.1477 
 151   2.0000      -1.347818       -36.6760 
 152   2.0000      -1.333757       -36.2934 
 153   2.0000      -1.298034       -35.3213 
 154   2.0000      -1.296474       -35.2789 
 155   2.0000      -1.296028       -35.2667 
 156   2.0000      -1.295501       -35.2524 
 157   2.0000      -1.294657       -35.2294 
 158   2.0000      -1.294524       -35.2258 
 159   2.0000      -1.294143       -35.2154 
 160   2.0000      -1.294064       -35.2133 
 161   2.0000      -1.293134       -35.1880 
 162   2.0000      -1.292653       -35.1749 
 163   2.0000      -1.143219       -31.1086 
 164   2.0000      -1.128774       -30.7155 
 165   2.0000      -1.121515       -30.5180 
 166   2.0000      -1.120237       -30.4832 
 167   2.0000      -1.046708       -28.4824 
 168   2.0000      -1.017520       -27.6881 
 169   2.0000      -1.016845       -27.6698 
 170   2.0000      -1.008240       -27.4356 
 171   2.0000      -1.007384       -27.4123 
 172   2.0000      -1.003792       -27.3146 
 173   2.0000      -1.002512       -27.2797 
 174   2.0000      -0.996640       -27.1200 
 175   2.0000      -0.988166       -26.8894 
 176   2.0000      -0.987548       -26.8725 
 177   2.0000      -0.984795       -26.7976 
 178   2.0000      -0.982932       -26.7469 
 179   2.0000      -0.982317       -26.7302 
 180   2.0000      -0.974834       -26.5266 
 181   2.0000      -0.962725       -26.1971 
 182   2.0000      -0.937046       -25.4983 
 183   2.0000      -0.936578       -25.4856 
 184   2.0000      -0.909062       -24.7368 
 185   2.0000      -0.902811       -24.5667 
 186   2.0000      -0.902568       -24.5601 
 187   2.0000      -0.900878       -24.5141 
 188   2.0000      -0.890899       -24.2426 
 189   2.0000      -0.889379       -24.2012 
 190   2.0000      -0.880542       -23.9608 
 191   2.0000      -0.880078       -23.9481 
 192   2.0000      -0.874229       -23.7890 
 193   2.0000      -0.865880       -23.5618 
 194   2.0000      -0.847792       -23.0696 
 195   2.0000      -0.847105       -23.0509 
 196   2.0000      -0.844667       -22.9846 
 197   2.0000      -0.835014       -22.7219 
 198   2.0000      -0.828109       -22.5340 
 199   2.0000      -0.826260       -22.4837 
 200   2.0000      -0.823763       -22.4157 
 201   2.0000      -0.823264       -22.4022 
 202   2.0000      -0.818048       -22.2602 
 203   2.0000      -0.800741       -21.7893 
 204   2.0000      -0.793970       -21.6050 
 205   2.0000      -0.793001       -21.5787 
 206   2.0000      -0.788187       -21.4477 
 207   2.0000      -0.772675       -21.0256 
 208   2.0000      -0.771352       -20.9895 
 209   2.0000      -0.770621       -20.9697 
 210   2.0000      -0.770510       -20.9666 
 211   2.0000      -0.755015       -20.5450 
 212   2.0000      -0.754202       -20.5229 
 213   2.0000      -0.747560       -20.3421 
 214   2.0000      -0.741038       -20.1647 
 215   2.0000      -0.723057       -19.6754 
 216   2.0000      -0.707792       -19.2600 
 217   2.0000      -0.696992       -18.9661 
 218   2.0000      -0.691571       -18.8186 
 219   2.0000      -0.690312       -18.7843 
 220   2.0000      -0.686616       -18.6838 
[...]
  37   4.276     289.9   0.027969   0.027207  40.371349  38.984737     0.13 ( 108-> 115)    0.12 (  98-> 113)    0.06 ( 111-> 117)
  38   4.366     284.0   0.026662   0.024020  -26.878988  -25.688915     0.55 ( 111-> 118)    0.05 ( 112-> 121)    0.04 (  97-> 113)
  39   4.373     283.5   0.031644   0.027915  -74.400100  -74.202612     0.19 ( 102-> 113)    0.15 ( 102-> 115)    0.09 ( 100-> 113)
  40   4.386     282.7   0.323382   0.286535  -315.102481  -300.911590     0.19 ( 107-> 114)    0.13 ( 109-> 117)    0.07 ( 107-> 113)
  41   4.391     282.3   0.082323   0.072062  -147.733632  -143.692563     0.15 ( 111-> 118)    0.11 ( 101-> 114)    0.08 (  99-> 114)
  42   4.398     281.9   0.074694   0.069634  298.299963  284.457687     0.12 ( 106-> 114)    0.10 ( 106-> 115)    0.09 ( 107-> 115)
  43   4.506     275.2   0.058391   0.055367  53.361635  60.221550     0.35 ( 103-> 114)    0.14 ( 103-> 115)    0.07 ( 112-> 121)
  44   4.534     273.5   0.405100   0.363093  372.582473  367.880837     0.17 ( 112-> 121)    0.14 (  97-> 113)    0.12 ( 103-> 114)
  45   4.565     271.6   0.072942   0.055642  43.617636  50.296735     0.27 ( 100-> 115)    0.12 ( 104-> 115)    0.11 ( 100-> 114)
  46   4.606     269.2   0.082871   0.067947  154.382467  136.754005     0.27 ( 104-> 115)    0.15 ( 104-> 114)    0.12 ( 100-> 115)
  47   4.631     267.7   0.029566   0.023842   1.282152  -5.012336     0.18 (  99-> 113)    0.08 (  98-> 113)    0.07 ( 112-> 122)
  48   4.682     264.8   0.026331   0.022495  191.107833  174.717599     0.26 ( 112-> 122)    0.11 ( 111-> 120)    0.10 ( 112-> 124)
  49   4.753     260.9   0.091359   0.078188  -113.811947  -105.143029     0.11 (  96-> 113)    0.08 ( 107-> 117)    0.07 (  98-> 114)
  50   4.791     258.8   0.238919   0.202272  -309.700184  -288.663848     0.17 ( 111-> 119)    0.10 ( 109-> 114)    0.09 ( 110-> 114)
  51   4.801     258.2   0.061605   0.051637  -56.622733  -49.698423     0.14 (  90-> 113)    0.12 ( 111-> 119)    0.09 (  83-> 113)
  52   4.817     257.4   0.008336   0.005595   8.371972   9.590969     0.30 ( 109-> 115)    0.07 ( 110-> 114)    0.07 ( 109-> 114)
  53   4.827     256.9   0.042362   0.032028  -112.345861  -100.973606     0.16 ( 112-> 123)    0.10 ( 112-> 121)    0.07 (  90-> 113)
  54   4.833     256.5   0.011352   0.009032  -60.758951  -50.071834     0.15 ( 112-> 123)    0.10 ( 112-> 121)    0.09 (  90-> 113)
  55   4.864     254.9   0.038838   0.029056  65.951120  74.647070     0.14 ( 106-> 116)    0.13 ( 109-> 115)    0.10 ( 112-> 123)
  56   4.897     253.2   0.005928   0.005477  -5.194301  -6.879629     0.34 ( 111-> 120)    0.07 (  94-> 113)    0.06 ( 111-> 121)
  57   4.934     251.3   0.063664   0.052919   3.933798  13.277140     0.14 ( 108-> 116)    0.12 ( 111-> 116)    0.10 (  94-> 113)
  58   4.973     249.3   0.017848   0.014852  -62.998093  -59.620772     0.14 ( 105-> 114)    0.07 ( 111-> 117)    0.06 ( 108-> 117)

-----------------------------------------------------------------------------
         ABSORPTION SPECTRUM VIA TRANSITION ELECTRIC DIPOLE MOMENTS
-----------------------------------------------------------------------------
State   Energy  Wavelength   fosc         T2         TX        TY        TZ  
        (cm-1)    (nm)                  (au**2)     (au)      (au)      (au) 
-----------------------------------------------------------------------------
   0    8952.2   1117.0   0.976195843  35.89891  -4.03210   3.77132  -2.32771
   1   16777.1    596.0   0.302618608   5.93818  -1.15246  -1.83589  -1.11334
   2   17887.5    559.1   0.395227653   7.27401   0.91467  -2.48951   0.48964
   3   18943.9    527.9   0.777725539  13.51548  -2.89929  -0.02571  -2.26030
   4   23699.0    422.0   0.026888048   0.37351  -0.42911   0.40271  -0.16494
   5   24412.9    409.6   0.071067178   0.95835   0.76319  -0.15762   0.59249
   6   24946.8    400.9   0.114248768   1.50769  -0.84031   0.80892  -0.38370
   7   25480.7    392.5   0.019050374   0.24613  -0.27000   0.30741  -0.28060
   8   25922.9    385.8   0.168459880   2.13938  -0.32676   1.00608  -1.01015
   9   26558.0    376.5   0.020803633   0.25788   0.11828   0.08337  -0.48677
  10   26604.6    375.9   0.013679793   0.16928  -0.09522  -0.36111   0.17266
  11   26716.8    374.3   0.186061919   2.29271   0.45974   1.42665   0.21454
  12   26956.3    371.0   0.001932396   0.02360  -0.12149  -0.04583  -0.08209
  13   27360.6    365.5   0.251566765   3.02693   0.85933   1.19049   0.93339
  14   28106.0    355.8   0.007467447   0.08747   0.14032   0.05655   0.25413
  15   28930.5    345.7   0.100326123   1.14165   0.75528   0.64739   0.38999
  16   29431.4    339.8   0.118291260   1.32318   0.50148   1.01192   0.21843
  17   29687.4    336.8   0.051008906   0.56565  -0.34689   0.30802  -0.59199
  18   29763.4    336.0   0.018543417   0.20511   0.05419   0.42617  -0.14336
  19   29928.0    334.1   0.001122477   0.01235   0.09755  -0.02259   0.04818
  20   30332.4    329.7   0.171201949   1.85813  -0.47962   1.12347  -0.60491
  21   30571.6    327.1   0.036052705   0.38824   0.44053   0.43970   0.02877
  22   30884.1    323.8   0.149352770   1.59204  -1.09564  -0.07484   0.62130
  23   31078.4    321.8   0.179319348   1.89952   0.00750   1.31356   0.41717
  24   31535.7    317.1   0.047015981   0.49082   0.11932   0.69024   0.01217
  25   31729.5    315.2   0.039737625   0.41230  -0.63268   0.08928   0.06365
  26   32113.2    311.4   0.474867128   4.86816   0.86978   1.93954   0.59147
  27   32258.5    310.0   0.003920289   0.04001   0.00320   0.13082   0.15128
  28   32682.3    306.0   0.134566942   1.35551   0.08280  -0.79001   0.85119
  29   32906.3    303.9   0.204840914   2.04934  -0.22410  -1.23328  -0.69147
  30   33189.7    301.3   0.314774239   3.12227  -1.17555  -1.31391  -0.11834
  31   33343.0    299.9   0.000631108   0.00623  -0.01845  -0.03887   0.06618
  32   33444.5    299.0   0.003249736   0.03199  -0.13103   0.06741  -0.10137
  33   33560.8    298.0   0.070055229   0.68720   0.33856  -0.72934  -0.20159
  34   33658.6    297.1   0.007064097   0.06909   0.07654   0.23561   0.08789
  35   33940.9    294.6   0.015961384   0.15482   0.35135  -0.00822  -0.17693
  36   34251.3    292.0   0.070046261   0.67326  -0.03518   0.80099  -0.17448
  37   34491.4    289.9   0.027968922   0.26696   0.32855   0.14319   0.37217
  38   35211.2    284.0   0.026661625   0.24928   0.03977  -0.49708   0.02455
  39   35272.5    283.5   0.031643815   0.29534  -0.36014  -0.40258   0.05980
  40   35373.0    282.7   0.323382463   3.00968   0.36189   1.51183  -0.77011
  41   35417.1    282.3   0.082323037   0.76522  -0.15813   0.73921  -0.44021
  42   35474.2    281.9   0.074694096   0.69319  -0.58216   0.49546   0.32983
  43   36341.2    275.2   0.058391298   0.52896  -0.36167  -0.55805  -0.29451
  44   36566.5    273.5   0.405100242   3.64716   1.19029   1.20227   0.88595
  45   36818.8    271.6   0.072941763   0.65220   0.53540  -0.58928   0.13530
  46   37151.6    269.2   0.082871306   0.73435  -0.19590  -0.68248  -0.47978
  47   37350.4    267.7   0.029566347   0.26060  -0.10163  -0.46307   0.18930
  48   37764.4    264.8   0.026330656   0.22954   0.03420  -0.19245   0.43742
  49   38332.5    260.9   0.091359365   0.78462   0.48926   0.69057   0.26146
  50   38638.7    258.8   0.238919492   2.03566  -0.69569  -1.15697  -0.46162
  51   38724.4    258.2   0.061605406   0.52373   0.32752   0.57851   0.28599
  52   38848.2    257.4   0.008336178   0.07064  -0.07914   0.21719  -0.13117
  53   38928.9    256.9   0.042362266   0.35825  -0.03044   0.57189  -0.17397
  54   38978.9    256.5   0.011352149   0.09588   0.11901   0.27024  -0.09321
  55   39228.0    254.9   0.038837811   0.32594  -0.23585   0.25234  -0.45457
  56   39500.0    253.2   0.005928104   0.04941   0.12637   0.18167   0.02087
  57   39792.7    251.3   0.063663806   0.52670  -0.21568  -0.49986  -0.47992
  58   40110.4    249.3   0.017848083   0.14649  -0.02568  -0.37976   0.04014

-----------------------------------------------------------------------------
         ABSORPTION SPECTRUM VIA TRANSITION VELOCITY DIPOLE MOMENTS
-----------------------------------------------------------------------------
State   Energy  Wavelength   fosc         P2         PX        PY        PZ  
        (cm-1)    (nm)                  (au**2)     (au)      (au)      (au) 
-----------------------------------------------------------------------------
   0    8952.2   1117.0   2.134314507   0.13059  -0.24475   0.22762  -0.13737
   1   16777.1    596.0   0.366877493   0.04207  -0.09971  -0.15188  -0.09518
   2   17887.5    559.1   0.420604486   0.05142   0.06768  -0.21351   0.03540
   3   18943.9    527.9   0.856273268   0.11086  -0.26187  -0.00922  -0.20544
   4   23699.0    422.0   0.016986112   0.00275  -0.03527   0.03645  -0.01334
   5   24412.9    409.6   0.069568538   0.01161   0.08406  -0.01543   0.06560
   6   24946.8    400.9   0.110510339   0.01884  -0.09516   0.08866  -0.04389
   7   25480.7    392.5   0.019274799   0.00336  -0.03269   0.03465  -0.03298
   8   25922.9    385.8   0.151593622   0.02686  -0.03879   0.10650  -0.11836
   9   26558.0    376.5   0.019010586   0.00345   0.02143   0.01025  -0.05372
  10   26604.6    375.9   0.014728683   0.00268  -0.01253  -0.04655   0.01882
  11   26716.8    374.3   0.188707975   0.03446   0.05022   0.17735   0.02198
  12   26956.3    371.0   0.000996840   0.00018  -0.01044   0.00251  -0.00827
  13   27360.6    365.5   0.263879279   0.04934   0.11592   0.14603   0.12076
  14   28106.0    355.8   0.008211503   0.00158   0.01853   0.00665   0.03449
  15   28930.5    345.7   0.089277960   0.01765   0.09448   0.08086   0.04678
  16   29431.4    339.8   0.100049396   0.02012   0.05980   0.12614   0.02526
  17   29687.4    336.8   0.051085025   0.01037  -0.04744   0.04103  -0.08019
  18   29763.4    336.0   0.020006579   0.00407   0.00584   0.06011  -0.02056
  19   29928.0    334.1   0.001471461   0.00030   0.01446  -0.00530   0.00800
  20   30332.4    329.7   0.169234443   0.03508  -0.06910   0.15338  -0.08236
  21   30571.6    327.1   0.040027879   0.00836   0.06454   0.06453   0.00578
  22   30884.1    323.8   0.138471251   0.02923  -0.14977  -0.00272   0.08241
  23   31078.4    321.8   0.169818750   0.03607  -0.00567   0.18182   0.05458
  24   31535.7    317.1   0.044515058   0.00959   0.01815   0.09625   0.00128
  25   31729.5    315.2   0.034833475   0.00755  -0.08625   0.00900   0.00586
  26   32113.2    311.4   0.417804103   0.09170   0.11828   0.26654   0.08163
  27   32258.5    310.0   0.002850558   0.00063  -0.00106   0.01572   0.01950
  28   32682.3    306.0   0.129307295   0.02888   0.01547  -0.11422   0.12489
  29   32906.3    303.9   0.183750319   0.04133  -0.03107  -0.17531  -0.09811
  30   33189.7    301.3   0.287968132   0.06532  -0.17162  -0.18870  -0.01621
  31   33343.0    299.9   0.000647338   0.00015  -0.00427  -0.00761   0.00845
  32   33444.5    299.0   0.003227450   0.00074  -0.02081   0.00903  -0.01494
  33   33560.8    298.0   0.064539234   0.01480   0.05108  -0.10662  -0.02876
  34   33658.6    297.1   0.006227253   0.00143   0.01069   0.03418   0.01226
  35   33940.9    294.6   0.014146900   0.00328   0.05073  -0.00326  -0.02640
  36   34251.3    292.0   0.067656788   0.01584  -0.00451   0.12319  -0.02533
  37   34491.4    289.9   0.027206595   0.00641   0.05095   0.02167   0.05786
  38   35211.2    284.0   0.024019639   0.00578   0.00551  -0.07571   0.00430
  39   35272.5    283.5   0.027915474   0.00673  -0.05581  -0.05954   0.00831
  40   35373.0    282.7   0.286534559   0.06927   0.05357   0.23007  -0.11606
  41   35417.1    282.3   0.072061603   0.01744  -0.02166   0.11122  -0.06786
  42   35474.2    281.9   0.069634387   0.01688  -0.09012   0.07914   0.04998
  43   36341.2    275.2   0.055366507   0.01375  -0.05854  -0.09068  -0.04585
  44   36566.5    273.5   0.363092777   0.09074   0.18610   0.19181   0.13899
  45   36818.8    271.6   0.055641640   0.01400   0.08105  -0.08366   0.02083
  46   37151.6    269.2   0.067947348   0.01725  -0.03205  -0.10358  -0.07413
  47   37350.4    267.7   0.023842445   0.00609  -0.01809  -0.07050   0.02809
  48   37764.4    264.8   0.022494735   0.00581   0.00840  -0.03120   0.06901
  49   38332.5    260.9   0.078188189   0.02048   0.07833   0.11208   0.04226
  50   38638.7    258.8   0.202272122   0.05342  -0.11177  -0.18771  -0.07543
  51   38724.4    258.2   0.051637144   0.01367   0.05246   0.09393   0.04575
  52   38848.2    257.4   0.005595387   0.00149  -0.01072   0.03070  -0.02069
  53   38928.9    256.9   0.032028152   0.00852  -0.00398   0.08846  -0.02610
  54   38978.9    256.5   0.009032362   0.00241   0.01803   0.04245  -0.01672
  55   39228.0    254.9   0.029056163   0.00779  -0.03617   0.03384  -0.07305
  56   39500.0    253.2   0.005477473   0.00148   0.02072   0.03199   0.00513
  57   39792.7    251.3   0.052919258   0.01439  -0.03305  -0.08565  -0.07722
  58   40110.4    249.3   0.014851534   0.00407  -0.00520  -0.06329   0.00619

-------------------------------------------------------------------
                             CD SPECTRUM
-------------------------------------------------------------------
State   Energy Wavelength       R         MX        MY        MZ   
        (cm-1)   (nm)       (1e40*cgs)   (au)      (au)      (au)  
-------------------------------------------------------------------
   0    8952.2   1117.0    108.51682   1.10951   3.59671   4.10320
   1   16777.1    596.0    -173.45036   1.28607   2.32099  -5.81947
   2   17887.5    559.1    222.95371   1.37167  -0.60949  -7.59293
   3   18943.9    527.9    -106.27703   1.01522   4.88587  -1.55728
   4   23699.0    422.0    -34.95180  -1.05818  -0.00988   1.82992
   5   24412.9    409.6     20.95635  -0.47667  -1.66741   0.02037
   6   24946.8    400.9    -16.73916   1.32467   1.54376   0.16845
   7   25480.7    392.5      2.47400   0.85744   1.08585   0.40197
   8   25922.9    385.8     15.87222   2.88675   3.93769   3.05469
   9   26558.0    376.5    453.40472  -1.22991   0.73181   3.77803
  10   26604.6    375.9     90.32047   0.45582  -0.49164  -2.99596
  11   26716.8    374.3    -252.25777  -0.28410  -0.13417   6.48921
  12   26956.3    371.0      1.23798   0.08093   0.13937  -0.13360
  13   27360.6    365.5    -122.88163   0.51414  -2.33824   3.06745
  14   28106.0    355.8     -3.64955  -0.09529  -0.76224   0.28316
  15   28930.5    345.7    -196.45408  -0.07166  -0.93113   3.82146
  16   29431.4    339.8    -236.33476   0.91365  -0.16253   3.24531
  17   29687.4    336.8    146.04896   0.74066   2.08683   1.69840
  18   29763.4    336.0    -30.03443   0.46983   0.97027   2.17320
  19   29928.0    334.1      0.52376   0.04566  -0.14540  -0.20671
  20   30332.4    329.7     77.26148   2.29014   2.58574   3.52840
  21   30571.6    327.1    -241.50513   1.33356   0.82622   2.56360
  22   30884.1    323.8    813.94478  -0.27692  -2.00500  -6.28754
  23   31078.4    321.8    -156.19218   2.27107  -0.02304   1.62010
  24   31535.7    317.1    -140.48752   1.63218   0.55318   1.59472
  25   31729.5    315.2    289.57598   1.62146   0.29902  -3.60230
  26   32113.2    311.4    -572.21305   0.61952  -1.25701   7.31507
  27   32258.5    310.0     17.05428  -0.19511  -0.01706  -0.45938
  28   32682.3    306.0     91.50990  -3.44499  -3.97222  -3.80769
  29   32906.3    303.9     81.57464  -1.81123   1.30807  -1.24554
  30   33189.7    301.3    -392.68226  -0.38211  -0.06912  -9.51409
  31   33343.0    299.9     -3.29943  -0.67398  -0.69902  -0.38688
  32   33444.5    299.0     -9.65406  -0.06786   0.49862   0.01529
  33   33560.8    298.0    137.65347  -1.45101  -0.00668   0.48410
  34   33658.6    297.1     17.42143  -0.12731  -0.51573   0.65250
  35   33940.9    294.6    158.88372  -0.64434   0.41178   2.51097
  36   34251.3    292.0    -122.16803   1.41754   1.37820   3.07075
  37   34491.4    289.9     40.37135   0.23801  -1.13162  -0.23491
  38   35211.2    284.0    -26.87899  -1.02976  -0.35166  -0.80727
  39   35272.5    283.5    -74.40010  -0.93365  -0.37159  -2.84660
  40   35373.0    282.7    -315.10248   4.07348   3.69845   7.43894
  41   35417.1    282.3    -147.73363   3.16418   2.50491   1.64600
  42   35474.2    281.9    298.29996   0.58255  -0.53653  -2.00253
  43   36341.2    275.2     53.36163   0.62996   1.48340  -2.81577
  44   36566.5    273.5    372.58247  -2.03657  -4.17250   6.61434
  45   36818.8    271.6     43.61764  -2.20570  -1.46387   0.98496
  46   37151.6    269.2    154.38247   0.24079   1.83020  -1.33667
  47   37350.4    267.7      1.28215  -0.99471  -0.80207  -2.52479
  48   37764.4    264.8    191.10783  -0.34367  -1.67917  -2.56537
  49   38332.5    260.9    -113.81195  -0.23345  -0.68295   4.08728
  50   38638.7    258.8    -309.70018  -0.44078   1.30769  -5.45935
  51   38724.4    258.2    -56.62273   0.25750  -0.89302   2.35144
  52   38848.2    257.4      8.37197   0.06478   0.48275   1.03099
  53   38928.9    256.9    -112.34586   2.32101   1.16702   0.69068
  54   38978.9    256.5    -60.75895   1.08710   0.81425   0.98330
  55   39228.0    254.9     65.95112   0.64272   1.89918   1.33628
  56   39500.0    253.2     -5.19430   0.13875  -0.10005   1.08679
  57   39792.7    251.3      3.93380   0.64165   1.64594  -1.96790
  58   40110.4    249.3    -62.99809  -1.37521  -0.69804  -0.82569

sTD-DFT done

Total run time:        5.271 sec

           *** ORCA-CIS/TD-DFT FINISHED WITHOUT ERROR ***

-------------------------   --------------------
FINAL SINGLE POINT ENERGY    -15097.092131970523
-------------------------   --------------------


                            ***************************************
                            *     ORCA property calculations      *
                            ***************************************

                                    ---------------------
                                    Active property flags
                                    ---------------------
   (+) Dipole Moment


------------------------------------------------------------------------------
                       ORCA ELECTRIC PROPERTIES CALCULATION
------------------------------------------------------------------------------

Dipole Moment Calculation                       ... on
Quadrupole Moment Calculation                   ... off
Polarizability Calculation                      ... off
GBWName                                         ... xtbopt.gbw
Electron density file                           ... xtbopt.scfp
The origin for moment calculation is the CENTER OF MASS  = (-20.554966, 16.167297  4.699120)

-------------
DIPOLE MOMENT
-------------
                                X             Y             Z
Electronic contribution:     74.87261     111.51009      41.48625
Nuclear contribution   :    -77.39157    -112.41678     -44.47049
                        -----------------------------------------
Total Dipole Moment    :     -2.51896      -0.90669      -2.98423
                        -----------------------------------------
Magnitude (a.u.)       :      4.00910
Magnitude (Debye)      :     10.19032



--------------------
Rotational spectrum 
--------------------
 
Rotational constants in cm-1:     0.000474     0.000164     0.000127 
Rotational constants in MHz :    14.223273     4.931344     3.795052 

 Dipole components along the rotational axes: 
x,y,z [a.u.] :     2.414302    -3.036358    -1.012204 
x,y,z [Debye]:     6.136668    -7.717809    -2.572818 

 

Timings for individual modules:

Sum of individual times         ...      806.491 sec (=  13.442 min)
GTO integral calculation        ...        3.840 sec (=   0.064 min)   0.5 %
SCF iterations                  ...      796.610 sec (=  13.277 min)  98.8 %
CIS module                      ...        6.041 sec (=   0.101 min)   0.7 %
                             ****ORCA TERMINATED NORMALLY****
TOTAL RUN TIME: 0 days 0 hours 13 minutes 27 seconds 607 msec
