
                                 *****************
                                 * O   R   C   A *
                                 *****************

           --- An Ab Initio, DFT and Semiempirical electronic structure package ---

                  #######################################################
                  #                        -***-                        #
                  #          Department of theory and spectroscopy      #
                  #               Directorship: Frank Neese             #
                  #        Max Planck Institute fuer Kohlenforschung    #
                  #                Kaiser Wilhelm Platz 1               #
                  #                 D-45470 Muelheim/Ruhr               #
                  #                      Germany                        #
                  #                                                     #
                  #                  All rights reserved                #
                  #                        -***-                        #
                  #######################################################


                         Program Version 4.2.0 -  RELEASE  -


 With contributions from (in alphabetic order):
   Daniel Aravena         : Magnetic Suceptibility
   Michael Atanasov       : Ab Initio Ligand Field Theory (pilot matlab implementation)
   Alexander A. Auer      : GIAO ZORA, VPT2
   Ute Becker             : Parallelization
   Giovanni Bistoni       : ED, misc. LED, open-shell LED, HFLED
   Martin Brehm           : Molecular dynamics
   Dmytro Bykov           : SCF Hessian
   Vijay G. Chilkuri      : MRCI spin determinant printing, contributions to CSF-ICE
   Dipayan Datta          : RHF DLPNO-CCSD density
   Achintya Kumar Dutta   : EOM-CC, STEOM-CC
   Dmitry Ganyushin       : Spin-Orbit,Spin-Spin,Magnetic field MRCI
   Miquel Garcia          : C-PCM Hessian, Gaussian charge scheme
   Yang Guo               : DLPNO-NEVPT2, CIM, IAO-localization
   Andreas Hansen         : Spin unrestricted coupled pair/coupled cluster methods
   Benjamin Helmich-Paris : CASSCF linear response (MC-RPA)
   Lee Huntington         : MR-EOM, pCC
   Robert Izsak           : Overlap fitted RIJCOSX, COSX-SCS-MP3, EOM
   Christian Kollmar      : KDIIS, OOCD, Brueckner-CCSD(T), CCSD density
   Simone Kossmann        : Meta GGA functionals, TD-DFT gradient, OOMP2, MP2 Hessian
   Martin Krupicka        : AUTO-CI
   Lucas Lang             : DCDCAS
   Dagmar Lenk            : GEPOL surface, SMD
   Dimitrios Liakos       : Extrapolation schemes; Compound Job, initial MDCI parallelization
   Dimitrios Manganas     : Further ROCIS development; embedding schemes
   Dimitrios Pantazis     : SARC Basis sets
   Taras Petrenko         : DFT Hessian,TD-DFT gradient, ASA, ECA, R-Raman, ABS, FL, XAS/XES, NRVS
   Peter Pinski           : DLPNO-MP2, DLPNO-MP2 Gradient
   Christoph Reimann      : Effective Core Potentials
   Marius Retegan         : Local ZFS, SOC
   Christoph Riplinger    : Optimizer, TS searches, QM/MM, DLPNO-CCSD(T), (RO)-DLPNO pert. Triples
   Tobias Risthaus        : Range-separated hybrids, TD-DFT gradient, RPA, STAB
   Michael Roemelt        : Original ROCIS implementation
   Masaaki Saitow         : Open-shell DLPNO-CCSD energy and density
   Barbara Sandhoefer     : DKH picture change effects
   Avijit Sen             : IP-ROCIS
   Kantharuban Sivalingam : CASSCF convergence, NEVPT2, FIC-MRCI
   Bernardo de Souza      : ESD, SOC TD-DFT
   Georgi Stoychev        : AutoAux, RI-MP2 NMR
   Willem Van den Heuvel  : Paramagnetic NMR
   Boris Wezisla          : Elementary symmetry handling
   Frank Wennmohs         : Technical directorship


 We gratefully acknowledge several colleagues who have allowed us to
 interface, adapt or use parts of their codes:
   Stefan Grimme, W. Hujo, H. Kruse,             : VdW corrections, initial TS optimization,
                  C. Bannwarth                     DFT functionals, gCP, sTDA/sTD-DF
   Ed Valeev, F. Pavosevic, A. Kumar             : LibInt (2-el integral package), F12 methods
   Garnet Chan, S. Sharma, J. Yang, R. Olivares  : DMRG
   Ulf Ekstrom                                   : XCFun DFT Library
   Mihaly Kallay                                 : mrcc  (arbitrary order and MRCC methods)
   Andreas Klamt, Michael Diedenhofen            : otool_cosmo (COSMO solvation model)
   Jiri Pittner, Ondrej Demel                    : Mk-CCSD
   Frank Weinhold                                : gennbo (NPA and NBO analysis)
   Christopher J. Cramer and Donald G. Truhlar   : smd solvation model
   Lars Goerigk                                  : TD-DFT with DH, B97 family of functionals
   V. Asgeirsson, H. Jonsson                     : NEB implementation
   FAccTs GmbH                                   : IRC, NEB, NEB-TS, Multilevel, MM, QM/MM, CI optimization
   S Lehtola, MJT Oliveira, MAL Marques          : LibXC Library


 Your calculation uses the libint2 library for the computation of 2-el integrals
 For citations please refer to: http://libint.valeyev.net

 Your ORCA version has been built with support for libXC version: 4.2.3
 For citations please refer to: https://tddft.org/programs/libxc/

 This ORCA versions uses:
   CBLAS   interface :  Fast vector & matrix operations
   LAPACKE interface :  Fast linear algebra routines
   SCALAPACK package :  Parallel linear algebra routines


XCFun DFT library Copyright 2009-2010 Ulf Ekstrom and contributors.
See http://admol.org/xcfun for more information. This is free soft-
ware; see the source code for copying conditions. There is ABSOLUTELY
NO WARRANTY; not even for MERCHANTABILITY or FITNESS FOR A PARTICULAR
PURPOSE. For details see the documentation. Scientific users of this 
library should cite U. Ekstrom, L. Visscher, R. Bast, A. J. Thorvald-
sen and K. Ruud; J.Chem.Theor.Comp. 2010, DOI: 10.1021/ct100117s
XCFun Version 0.99 
----- Orbital basis set information -----
Your calculation utilizes the basis: def2-SVP
   F. Weigend and R. Ahlrichs, Phys. Chem. Chem. Phys. 7, 3297 (2005).

----- AuxJ basis set information -----
Your calculation utilizes the auxiliary basis: def2/J
   F. Weigend, Phys. Chem. Chem. Phys. 8, 1057 (2006).

================================================================================
                                        WARNINGS
                       Please study these warnings very carefully!
================================================================================

INFO   : Checking CIS options ...

WARNING: CIS/ROCIS methods need fully converged wavefunctions
  ===> : Setting SCFConvForced true
         You can overwrite this default with %scf ConvForced false 


INFO   : the flag for use of LIBINT has been found!

================================================================================
                                       INPUT FILE
================================================================================
NAME = xtbopt.inp
|  1> # ORCA input file
|  2> # SCF done       -185.351374488481          0.000453690981
|  3> ! CAM-B3LYP def2-SVP def2/J RIJCOSX Grid4 TightSCF
|  4> %maxcore 5000
|  5> %tddft
|  6>     Mode sTDDFT
|  7>     Ethresh 5.0
|  8>     maxcore 5000
|  9> end
| 10> 
| 11> %pal
| 12>   nprocs 6
| 13>   end
| 14> * xyz 0 1
| 15>    C        1.85119        -0.59461        -4.22385
| 16>    C        1.46344        -1.79143        -4.82665
| 17>    N        1.14510        -2.77211        -5.33039
| 18>    C        1.55662         0.68299        -4.65841
| 19>    F        0.82308         0.93346        -5.74011
| 20>    C        2.10609         1.68759        -3.84522
| 21>    F        1.94105         2.98771        -4.07797
| 22>    C        2.83639         1.18224        -2.78750
| 23>    S        2.82193        -0.57109        -2.79375
| 24>    C        3.51296         1.87023        -1.79664
| 25>    C        4.16289         2.32741        -0.87485
| 26>    C        4.89332         2.87698         0.17052
| 27>    N        4.90018         4.17631         0.40592
| 28>    C        5.68965         4.34965         1.48995
| 29>    C        6.21050         3.06836         1.97439
| 30>    C        7.07552         3.26405         3.14835
| 31>    O        7.66550         2.42957         3.79799
| 32>    C        7.03990         4.73118         3.32526
| 33>    C        6.18023         5.35142         2.29210
| 34>    N        6.14904         6.69851         2.44187
| 35>    C        6.91692         6.94634         3.47317
| 36>    C        7.50799         5.76257         4.07140
| 37>    C        5.72048         2.09923         1.13619
| 38>    C        5.97851         0.70087         1.19347
| 39>    C        5.54879        -0.19715         0.28050
| 40>    C        5.80391        -1.61063         0.25207
| 41>    C        5.34607        -2.31373        -0.84592
| 42>    C        5.57976        -3.69338        -0.97390
| 43>    C        5.26192        -4.60725        -1.97841
| 44>    C        4.53653        -4.42107        -3.27317
| 45>    C        3.00966        -4.33520        -3.08201
| 46>    N        2.58592        -3.12511        -2.38696
| 47>    C        5.06722        -3.24540        -4.10888
| 48>    N        6.46887        -3.47171        -4.41035
| 49>    C        5.79801        -5.87938        -1.55734
| 50>    C        5.82218        -7.07838        -2.17048
| 51>    C        6.47177        -8.26156        -1.54404
| 52>    C        7.11148        -8.00005        -0.21697
| 53>    C        7.07399        -6.79446         0.38551
| 54>    C        6.44415        -5.70089        -0.24817
| 55>    C        6.30641        -4.36902         0.09414
| 56>    C        6.74548        -3.63397         1.21960
| 57>    C        6.50728        -2.29915         1.29211
| 58>    C        5.43860        -9.32885        -1.31153
| 59>    C        5.51996       -10.57271        -1.80639
| 60>    C        4.54088       -11.57253        -1.51909
| 61>    N        3.52356       -11.34232        -0.70258
| 62>    C        2.82297       -12.49107        -0.65014
| 63>    C        3.43188       -13.52864        -1.49718
| 64>    C        2.65761       -14.77826        -1.41949
| 65>    O        2.86887       -15.83075        -1.98478
| 66>    C        1.57305       -14.42820        -0.48753
| 67>    C        1.71014       -13.02446        -0.04393
| 68>    N        0.71734       -12.69609         0.81650
| 69>    C       -0.00884       -13.78280         0.93214
| 70>    C        0.46876       -14.90128         0.14617
| 71>    C        4.53961       -12.95045        -2.06649
| 72>    C        5.49831       -13.48425        -2.97337
| 73>    C        5.45495       -14.75450        -3.44196
| 74>    C        6.40551       -15.24230        -4.32658
| 75>    C        7.24218       -15.66245        -5.10145
| 76>    C        8.20454       -16.12810        -5.98076
| 77>    C        8.31449       -17.39381        -6.52655
| 78>    C        9.41488       -17.53766        -7.38790
| 79>    C       10.16149       -16.38392        -7.51295
| 80>    S        9.49209       -15.10331        -6.55058
| 81>    C       11.30886       -16.19229        -8.28548
| 82>    N       12.25241       -16.02755        -8.91637
| 83>    F        9.70837       -18.67106        -8.01951
| 84>    F        7.45852       -18.38025        -6.25938
| 85>    H        7.06542         7.95771         3.80977
| 86>    H        8.16523         5.75475         4.91838
| 87>    H        6.58840         0.39928         2.03458
| 88>    H        4.96091         0.16674        -0.55104
| 89>    H        4.80928        -1.78331        -1.61542
| 90>    H        4.71535        -5.31804        -3.87355
| 91>    H        2.68399        -5.24409        -2.55296
| 92>    H        2.53727        -4.32715        -4.06731
| 93>    H        2.94989        -3.12869        -1.43827
| 94>    H        1.57286        -3.11963        -2.32648
| 95>    H        4.87239        -2.29677        -3.59022
| 96>    H        4.51982        -3.22501        -5.05531
| 97>    H        7.01935        -3.45302        -3.55784
| 98>    H        6.82358        -2.75397        -5.03133
| 99>    H        5.36447        -7.24276        -3.13582
|100>    H        7.22344        -8.65412        -2.24333
|101>    H        7.58714        -8.84737         0.25155
|102>    H        7.54482        -6.64555         1.34611
|103>    H        7.27320        -4.14494         2.01101
|104>    H        6.84623        -1.73766         2.14778
|105>    H        4.60801        -9.06763        -0.67263
|106>    H        6.34447       -10.85340        -2.44768
|107>    H       -0.87533       -13.79067         1.57043
|108>    H        0.01779       -15.87290         0.10441
|109>    H        6.29799       -12.83268        -3.30070
|110>    H        4.66948       -15.43623        -3.13787
|111> *
|112> 
|113>                          ****END OF INPUT****
================================================================================

                       ****************************
                       * Single Point Calculation *
                       ****************************

---------------------------------
CARTESIAN COORDINATES (ANGSTROEM)
---------------------------------
  C      1.851190   -0.594610   -4.223850
  C      1.463440   -1.791430   -4.826650
  N      1.145100   -2.772110   -5.330390
  C      1.556620    0.682990   -4.658410
  F      0.823080    0.933460   -5.740110
  C      2.106090    1.687590   -3.845220
  F      1.941050    2.987710   -4.077970
  C      2.836390    1.182240   -2.787500
  S      2.821930   -0.571090   -2.793750
  C      3.512960    1.870230   -1.796640
  C      4.162890    2.327410   -0.874850
  C      4.893320    2.876980    0.170520
  N      4.900180    4.176310    0.405920
  C      5.689650    4.349650    1.489950
  C      6.210500    3.068360    1.974390
  C      7.075520    3.264050    3.148350
  O      7.665500    2.429570    3.797990
  C      7.039900    4.731180    3.325260
  C      6.180230    5.351420    2.292100
  N      6.149040    6.698510    2.441870
  C      6.916920    6.946340    3.473170
  C      7.507990    5.762570    4.071400
  C      5.720480    2.099230    1.136190
  C      5.978510    0.700870    1.193470
  C      5.548790   -0.197150    0.280500
  C      5.803910   -1.610630    0.252070
  C      5.346070   -2.313730   -0.845920
  C      5.579760   -3.693380   -0.973900
  C      5.261920   -4.607250   -1.978410
  C      4.536530   -4.421070   -3.273170
  C      3.009660   -4.335200   -3.082010
  N      2.585920   -3.125110   -2.386960
  C      5.067220   -3.245400   -4.108880
  N      6.468870   -3.471710   -4.410350
  C      5.798010   -5.879380   -1.557340
  C      5.822180   -7.078380   -2.170480
  C      6.471770   -8.261560   -1.544040
  C      7.111480   -8.000050   -0.216970
  C      7.073990   -6.794460    0.385510
  C      6.444150   -5.700890   -0.248170
  C      6.306410   -4.369020    0.094140
  C      6.745480   -3.633970    1.219600
  C      6.507280   -2.299150    1.292110
  C      5.438600   -9.328850   -1.311530
  C      5.519960  -10.572710   -1.806390
  C      4.540880  -11.572530   -1.519090
  N      3.523560  -11.342320   -0.702580
  C      2.822970  -12.491070   -0.650140
  C      3.431880  -13.528640   -1.497180
  C      2.657610  -14.778260   -1.419490
  O      2.868870  -15.830750   -1.984780
  C      1.573050  -14.428200   -0.487530
  C      1.710140  -13.024460   -0.043930
  N      0.717340  -12.696090    0.816500
  C     -0.008840  -13.782800    0.932140
  C      0.468760  -14.901280    0.146170
  C      4.539610  -12.950450   -2.066490
  C      5.498310  -13.484250   -2.973370
  C      5.454950  -14.754500   -3.441960
  C      6.405510  -15.242300   -4.326580
  C      7.242180  -15.662450   -5.101450
  C      8.204540  -16.128100   -5.980760
  C      8.314490  -17.393810   -6.526550
  C      9.414880  -17.537660   -7.387900
  C     10.161490  -16.383920   -7.512950
  S      9.492090  -15.103310   -6.550580
  C     11.308860  -16.192290   -8.285480
  N     12.252410  -16.027550   -8.916370
  F      9.708370  -18.671060   -8.019510
  F      7.458520  -18.380250   -6.259380
  H      7.065420    7.957710    3.809770
  H      8.165230    5.754750    4.918380
  H      6.588400    0.399280    2.034580
  H      4.960910    0.166740   -0.551040
  H      4.809280   -1.783310   -1.615420
  H      4.715350   -5.318040   -3.873550
  H      2.683990   -5.244090   -2.552960
  H      2.537270   -4.327150   -4.067310
  H      2.949890   -3.128690   -1.438270
  H      1.572860   -3.119630   -2.326480
  H      4.872390   -2.296770   -3.590220
  H      4.519820   -3.225010   -5.055310
  H      7.019350   -3.453020   -3.557840
  H      6.823580   -2.753970   -5.031330
  H      5.364470   -7.242760   -3.135820
  H      7.223440   -8.654120   -2.243330
  H      7.587140   -8.847370    0.251550
  H      7.544820   -6.645550    1.346110
  H      7.273200   -4.144940    2.011010
  H      6.846230   -1.737660    2.147780
  H      4.608010   -9.067630   -0.672630
  H      6.344470  -10.853400   -2.447680
  H     -0.875330  -13.790670    1.570430
  H      0.017790  -15.872900    0.104410
  H      6.297990  -12.832680   -3.300700
  H      4.669480  -15.436230   -3.137870

----------------------------
CARTESIAN COORDINATES (A.U.)
----------------------------
  NO LB      ZA    FRAG     MASS         X           Y           Z
   0 C     6.0000    0    12.011    3.498242   -1.123650   -7.981920
   1 C     6.0000    0    12.011    2.765501   -3.385312   -9.121047
   2 N     7.0000    0    14.007    2.163925   -5.238529  -10.072977
   3 C     6.0000    0    12.011    2.941585    1.290664   -8.803119
   4 F     9.0000    0    18.998    1.555396    1.763984  -10.847236
   5 C     6.0000    0    12.011    3.979933    3.189083   -7.266413
   6 F     9.0000    0    18.998    3.668053    5.645954   -7.706246
   7 C     6.0000    0    12.011    5.360000    2.234110   -5.267612
   8 S    16.0000    0    32.060    5.332675   -1.079204   -5.279422
   9 C     6.0000    0    12.011    6.638532    3.534223   -3.395158
  10 C     6.0000    0    12.011    7.866722    4.398168   -1.653227
  11 C     6.0000    0    12.011    9.247035    5.436704    0.322236
  12 N     7.0000    0    14.007    9.259998    7.892082    0.767078
  13 C     6.0000    0    12.011   10.751880    8.219647    2.815597
  14 C     6.0000    0    12.011   11.736144    5.798360    3.731056
  15 C     6.0000    0    12.011   13.370795    6.168161    5.949519
  16 O     8.0000    0    15.999   14.485696    4.591222    7.177161
  17 C     6.0000    0    12.011   13.303483    8.940634    6.283831
  18 C     6.0000    0    12.011   11.678942   10.112718    4.331441
  19 N     7.0000    0    14.007   11.620002   12.658349    4.614466
  20 C     6.0000    0    12.011   13.071084   13.126680    6.563340
  21 C     6.0000    0    12.011   14.188045   10.889679    7.693831
  22 C     6.0000    0    12.011   10.810141    3.966970    2.147088
  23 C     6.0000    0    12.011   11.297747    1.324452    2.255331
  24 C     6.0000    0    12.011   10.485693   -0.372560    0.530068
  25 C     6.0000    0    12.011   10.967800   -3.043650    0.476343
  26 C     6.0000    0    12.011   10.102608   -4.372316   -1.598557
  27 C     6.0000    0    12.011   10.544218   -6.979477   -1.840404
  28 C     6.0000    0    12.011    9.943588   -8.706441   -3.738653
  29 C     6.0000    0    12.011    8.572799   -8.354612   -6.185395
  30 C     6.0000    0    12.011    5.687433   -8.192341   -5.824155
  31 N     7.0000    0    14.007    4.886681   -5.905602   -4.510701
  32 C     6.0000    0    12.011    9.575658   -6.132917   -7.764658
  33 N     7.0000    0    14.007   12.224393   -6.560581   -8.334354
  34 C     6.0000    0    12.011   10.956651  -11.110418   -2.942946
  35 C     6.0000    0    12.011   11.002326  -13.376200   -4.101613
  36 C     6.0000    0    12.011   12.229873  -15.612086   -2.917813
  37 C     6.0000    0    12.011   13.438750  -15.117904   -0.410014
  38 C     6.0000    0    12.011   13.367904  -12.839669    0.728508
  39 C     6.0000    0    12.011   12.177679  -10.773121   -0.468973
  40 C     6.0000    0    12.011   11.917388   -8.256251    0.177899
  41 C     6.0000    0    12.011   12.747110   -6.867208    2.304710
  42 C     6.0000    0    12.011   12.296977   -4.344764    2.441734
  43 C     6.0000    0    12.011   10.277465  -17.628972   -2.478433
  44 C     6.0000    0    12.011   10.431213  -19.979526   -3.413582
  45 C     6.0000    0    12.011    8.581020  -21.868912   -2.870664
  46 N     7.0000    0    14.007    6.658563  -21.433879   -1.327684
  47 C     6.0000    0    12.011    5.334640  -23.604701   -1.228587
  48 C     6.0000    0    12.011    6.485313  -25.565425   -2.829260
  49 C     6.0000    0    12.011    5.022155  -27.926864   -2.682447
  50 O     8.0000    0    15.999    5.421379  -29.915782   -3.750691
  51 C     6.0000    0    12.011    2.972634  -27.265347   -0.921298
  52 C     6.0000    0    12.011    3.231696  -24.612662   -0.083016
  53 N     7.0000    0    14.007    1.355576  -23.992133    1.542961
  54 C     6.0000    0    12.011   -0.016705  -26.045717    1.761489
  55 C     6.0000    0    12.011    0.885828  -28.159338    0.276221
  56 C     6.0000    0    12.011    8.578620  -24.472804   -3.905100
  57 C     6.0000    0    12.011   10.390300  -25.481540   -5.618855
  58 C     6.0000    0    12.011   10.308362  -27.881964   -6.504362
  59 C     6.0000    0    12.011   12.104660  -28.803773   -8.176051
  60 C     6.0000    0    12.011   13.685737  -29.597741   -9.640343
  61 C     6.0000    0    12.011   15.504334  -30.477692  -11.301998
  62 C     6.0000    0    12.011   15.712109  -32.869537  -12.333392
  63 C     6.0000    0    12.011   17.791545  -33.141374  -13.961108
  64 C     6.0000    0    12.011   19.202433  -30.961122  -14.197418
  65 S    16.0000    0    32.060   17.937451  -28.541120  -12.378802
  66 C     6.0000    0    12.011   21.370648  -30.598994  -15.657288
  67 N     7.0000    0    14.007   23.153699  -30.287680  -16.849497
  68 F     9.0000    0    18.998   18.346161  -35.283190  -15.154678
  69 F     9.0000    0    18.998   14.094560  -34.733639  -11.828514
  70 H     1.0000    0     1.008   13.351709   15.037893    7.199422
  71 H     1.0000    0     1.008   15.430049   10.874901    9.294391
  72 H     1.0000    0     1.008   12.450272    0.754530    3.844799
  73 H     1.0000    0     1.008    9.374761    0.315093   -1.041315
  74 H     1.0000    0     1.008    9.088222   -3.369968   -3.052701
  75 H     1.0000    0     1.008    8.910720  -10.049639   -7.319949
  76 H     1.0000    0     1.008    5.072006   -9.909894   -4.824395
  77 H     1.0000    0     1.008    4.794745   -8.177128   -7.686102
  78 H     1.0000    0     1.008    5.574484   -5.912367   -2.717936
  79 H     1.0000    0     1.008    2.972275   -5.895246   -4.396410
  80 H     1.0000    0     1.008    9.207483   -4.340266   -6.784533
  81 H     1.0000    0     1.008    8.541222   -6.094386   -9.553151
  82 H     1.0000    0     1.008   13.264649   -6.525262   -6.723343
  83 H     1.0000    0     1.008   12.894697   -5.204249   -9.507836
  84 H     1.0000    0     1.008   10.137379  -13.686833   -5.925841
  85 H     1.0000    0     1.008   13.650323  -16.353917   -4.239279
  86 H     1.0000    0     1.008   14.337617  -16.719106    0.475361
  87 H     1.0000    0     1.008   14.257644  -12.558270    2.543779
  88 H     1.0000    0     1.008   13.744356   -7.832801    3.800258
  89 H     1.0000    0     1.008   12.937500   -3.283702    4.058716
  90 H     1.0000    0     1.008    8.707877  -17.135337   -1.271086
  91 H     1.0000    0     1.008   11.989311  -20.509954   -4.625445
  92 H     1.0000    0     1.008   -1.654134  -26.060590    2.967683
  93 H     1.0000    0     1.008    0.033618  -29.995434    0.197306
  94 H     1.0000    0     1.008   11.901476  -24.250251   -6.237419
  95 H     1.0000    0     1.008    8.824038  -29.170247   -5.929715

--------------------------------
INTERNAL COORDINATES (ANGSTROEM)
--------------------------------
 C      0   0   0     0.000000000000     0.00000000     0.00000000
 C      1   0   0     1.395025453137     0.00000000     0.00000000
 N      2   1   0     1.147531091343   179.56171591     0.00000000
 C      1   2   3     1.381258715267   126.74920657    33.68987885
 F      4   1   2     1.330748301708   123.18743696     0.89804473
 C      4   1   2     1.404427433868   113.32990626   180.82059900
 F      6   4   1     1.331060771903   123.29320622   180.29645860
 C      6   4   1     1.381118499949   112.86647710     0.54689075
 S      1   2   3     1.728605029496   121.68521012   214.70044503
 C      8   6   4     1.383069320244   128.70569248   179.89351103
 C     10   8   6     1.217012473806   172.19598408   185.53183119
 C     11  10   8     1.388651722607   178.73164457   184.64909019
 N     12  11  10     1.320499401174   121.75874263   356.35609193
 C     13  12  11     1.352194763117   105.78820180   179.26618281
 C     14  13  12     1.465493398211   111.12674044   359.69334002
 C     15  14  13     1.471304271081   110.88092881   179.63326373
 O     16  15  14     1.210977043713   128.52270120   179.89706313
 C     16  15  14     1.478186851991   102.31790692   359.77900395
 C     14  13  12     1.373920118420   140.35330038   178.94193258
 N     19  14  13     1.355748994873   141.33004962   359.91766479
 C     20  19  14     1.309442283302   105.16318199   180.98099521
 C     18  16  15     1.356317986241   144.31813304   181.32429567
 C     15  14  13     1.371827903675   106.78157786     0.59571566
 C     23  15  14     1.423120222926   127.21460345   178.55942127
 C     24  23  15     1.350782521245   124.63617849   185.22442350
 C     25  24  23     1.436600219163   127.66155826   177.95110590
 C     26  25  24     1.381864362266   117.22611898   185.07509867
 C     27  26  25     1.405141992469   121.12065129   178.39793484
 C     28  27  26     1.394711791948   132.14813711   181.95511206
 C     29  28  27     1.495746336148   130.72346738   359.13358194
 C     30  29  28     1.541183895387   112.33565823   282.18864331
 N     31  30  29     1.458412801027   113.15329940    68.05899715
 C     30  29  28     1.536959019981   113.48066045    49.84717614
 N     33  30  29     1.451455510686   109.09321933    59.62482953
 C     29  28  27     1.443262682224   106.42570969   178.42420534
 C     35  29  28     1.346894891408   131.18529715   183.02501967
 C     36  35  29     1.488055494294   121.60124055   178.44601428
 C     37  36  35     1.496239001330   114.90099081   358.58928898
 C     38  37  36     1.348271077566   122.73301861     1.68157168
 C     39  38  37     1.412141675931   120.28727806   358.27311326
 C     40  39  38     1.382036953413   132.81251933   183.27318170
 C     41  40  39     1.414122052370   131.84403699   359.35338907
 C     42  41  40     1.357844384493   119.93459891   177.97012179
 C     37  36  35     1.503532205541   109.24140115   117.91747510
 C     44  37  36     1.341153819962   124.02900558   122.82625045
 C     45  44  37     1.428558353306   122.23034277   177.55472440
 N     46  45  44     1.324622665743   121.91741163   357.23989735
 C     47  46  45     1.346552213692   105.98132739   180.81230925
 C     48  47  46     1.471325815243   111.33768643   359.76014058
 C     49  48  47     1.472100510631   110.52183074   179.61823174
 O     50  49  48     1.213226595406   128.33282555   179.90660258
 C     50  49  48     1.472196263682   102.65255106   359.81511987
 C     48  47  46     1.374913111837   140.28539873   179.02438466
 N     53  48  47     1.354185541866   141.21129872     0.31330959
 C     54  53  48     1.312116087128   105.12443558   180.47198915
 C     52  50  49     1.358247687464   144.24099055   180.54716314
 C     49  48  47     1.373129019830   105.99846314     0.03342000
 C     57  49  48     1.423544682966   130.50600798   180.27151672
 C     58  57  49     1.354618669663   123.39715159   359.65814451
 C     59  58  57     1.387106952618   121.89998592   179.93377213
 C     60  59  58     1.215304993942   179.61376482     0.73216489
 C     61  60  59     1.384251699728   179.32577228    13.02730640
 C     62  61  60     1.382749988501   127.87423162   165.04762903
 C     63  62  61     1.404804184611   113.45527493   180.04664316
 C     64  63  62     1.379920281103   113.18858797     0.00000000
 S     65  64  63     1.736149287648   110.96943474     0.00000000
 C     65  64  63     1.396417765105   127.54814133   179.99264773
 N     67  65  64     1.146929841882   179.58671576   189.58527110
 F     64  63  62     1.330286860869   123.44760852   179.98303383
 F     63  62  61     1.333089765695   123.17306253     0.00000000
 H     21  20  19     1.076206804894   120.33851666   180.04121477
 H     22  18  16     1.072101063520   129.83887455   359.16160496
 H     24  23  15     1.081844892903   114.04360575     3.53581997
 H     25  24  23     1.081423875314   117.96558284   359.55850194
 H     27  26  25     1.077784361781   118.81002011   358.93905987
 H     30  29  28     1.094069430018   107.07998204   166.21093156
 H     31  30  29     1.100925012660   107.85891247   303.96145488
 H     31  30  29     1.092718264055   108.47320511   187.04448287
 H     32  31  30     1.016119920777   109.75246047   295.47054746
 H     32  31  30     1.014878526918   108.83896205   177.98763253
 H     33  30  29     1.098574440536   110.03407439   294.08763250
 H     33  30  29     1.093522865330   108.18105250   176.69775037
 H     34  33  30     1.014963470574   110.26880544   294.57526457
 H     34  33  30     1.013205829089   110.78857446   174.85247924
 H     36  35  29     1.080925781032   122.29801063   357.72828703
 H     37  36  35     1.099144051797   108.34137139   235.75554069
 H     38  37  36     1.078756046750   115.87746900   179.99121169
 H     39  38  37     1.080096031379   120.56880738   179.76915542
 H     42  41  40     1.079772442416   119.28128717   358.29963309
 H     43  42  41     1.078113756289   119.94756520   180.30329800
 H     44  37  36     1.079957798481   116.63332749   300.37393226
 H     45  44  37     1.081599038600   120.37811749   357.51202784
 H     55  54  53     1.076234631063   120.25893314   179.93691174
 H     56  52  50     1.071990327802   129.75772901   359.74581166
 H     58  57  49     1.082209081555   117.68198470   179.53375575
 H     59  58  57     1.083600314646   121.06949321   359.92100341

---------------------------
INTERNAL COORDINATES (A.U.)
---------------------------
 C      0   0   0     0.000000000000     0.00000000     0.00000000
 C      1   0   0     2.636216056278     0.00000000     0.00000000
 N      2   1   0     2.168519492799   179.56171591     0.00000000
 C      1   2   3     2.610200691946   126.74920657    33.68987885
 F      4   1   2     2.514749843410   123.18743696     0.89804473
 C      4   1   2     2.653983224976   113.32990626   180.82059900
 F      6   4   1     2.515340326503   123.29320622   180.29645860
 C      6   4   1     2.609935723395   112.86647710     0.54689075
 S      1   2   3     3.266590099467   121.68521012   214.70044503
 C      8   6   4     2.613622239490   128.70569248   179.89351103
 C     10   8   6     2.299820277060   172.19598408   185.53183119
 C     11  10   8     2.624171451126   178.73164457   184.64909019
 N     12  11  10     2.495382228225   121.75874263   356.35609193
 C     13  12  11     2.555277782013   105.78820180   179.26618281
 C     14  13  12     2.769381173688   111.12674044   359.69334002
 C     15  14  13     2.780362132011   110.88092881   179.63326373
 O     16  15  14     2.288414967083   128.52270120   179.89706313
 C     16  15  14     2.793368325027   102.31790692   359.77900395
 C     14  13  12     2.596332753699   140.35330038   178.94193258
 N     19  14  13     2.561994306650   141.33004962   359.91766479
 C     20  19  14     2.474487303618   105.16318199   180.98099521
 C     18  16  15     2.563069544506   144.31813304   181.32429567
 C     15  14  13     2.592379040816   106.78157786     0.59571566
 C     23  15  14     2.689307476974   127.21460345   178.55942127
 C     24  23  15     2.552609031640   124.63617849   185.22442350
 C     25  24  23     2.714780978150   127.66155826   177.95110590
 C     26  25  24     2.611345198908   117.22611898   185.07509867
 C     27  26  25     2.655333545039   121.12065129   178.39793484
 C     28  27  26     2.635623322533   132.14813711   181.95511206
 C     29  28  27     2.826550941136   130.72346738   359.13358194
 C     30  29  28     2.912415484291   112.33565823   282.18864331
 N     31  30  29     2.756000784146   113.15329940    68.05899715
 C     30  29  28     2.904431626824   113.48066045    49.84717614
 N     33  30  29     2.742853410767   109.09321933    59.62482953
 C     29  28  27     2.727371208712   106.42570969   178.42420534
 C     35  29  28     2.545262475938   131.18529715   183.02501967
 C     36  35  29     2.812017356293   121.60124055   178.44601428
 C     37  36  35     2.827481943405   114.90099081   358.58928898
 C     38  37  36     2.547863090886   122.73301861     1.68157168
 C     39  38  37     2.668561029805   120.28727806   358.27311326
 C     40  39  38     2.611671348910   132.81251933   183.27318170
 C     41  40  39     2.672303398919   131.84403699   359.35338907
 C     42  41  40     2.565954019175   119.93459891   177.97012179
 C     37  36  35     2.841264102004   109.24140115   117.91747510
 C     44  37  36     2.534413423191   124.02900558   122.82625045
 C     45  44  37     2.699584054074   122.23034277   177.55472440
 N     46  45  44     2.503174069039   121.91741163   357.23989735
 C     47  46  45     2.544614908904   105.98132739   180.81230925
 C     48  47  46     2.780402844577   111.33768643   359.76014058
 C     49  48  47     2.781866806698   110.52183074   179.61823174
 O     50  49  48     2.292666003707   128.33282555   179.90660258
 C     50  49  48     2.782047753742   102.65255106   359.81511987
 C     48  47  46     2.598209239308   140.28539873   179.02438466
 N     53  48  47     2.559039808643   141.21129872     0.31330959
 C     54  53  48     2.479540060584   105.12443558   180.47198915
 C     52  50  49     2.566716151338   144.24099055   180.54716314
 C     49  48  47     2.594837794019   105.99846314     0.03342000
 C     57  49  48     2.690109590205   130.50600798   180.27151672
 C     58  57  49     2.559858301560   123.39715159   359.65814451
 C     59  58  57     2.621252258905   121.89998592   179.93377213
 C     60  59  58     2.296593607737   179.61376482     0.73216489
 C     61  60  59     2.615856612901   179.32577228    13.02730640
 C     62  61  60     2.613018789950   127.87423162   165.04762903
 C     63  62  61     2.654695180701   113.45527493   180.04664316
 C     64  63  62     2.607671417929   113.18858797     0.00000000
 S     65  64  63     3.280846681257   110.96943474     0.00000000
 C     65  64  63     2.638847144590   127.54814133   179.99264773
 N     67  65  64     2.167383295979   179.58671576   189.58527110
 F     64  63  62     2.513877846596   123.44760852   179.98303383
 F     63  62  61     2.519174569096   123.17306253     0.00000000
 H     21  20  19     2.033736124712   120.33851666   180.04121477
 H     22  18  16     2.025977397938   129.83887455   359.16160496
 H     24  23  15     2.044390566968   114.04360575     3.53581997
 H     25  24  23     2.043594959028   117.96558284   359.55850194
 H     27  26  25     2.036717275189   118.81002011   358.93905987
 H     30  29  28     2.067491594229   107.07998204   166.21093156
 H     31  30  29     2.080446767911   107.85891247   303.96145488
 H     31  30  29     2.064938260598   108.47320511   187.04448287
 H     32  31  30     1.920188369490   109.75246047   295.47054746
 H     32  31  30     1.917842475073   108.83896205   177.98763253
 H     33  30  29     2.076004830340   110.03407439   294.08763250
 H     33  30  29     2.066458736655   108.18105250   176.69775037
 H     34  33  30     1.918002995319   110.26880544   294.57526457
 H     34  33  30     1.914681534271   110.78857446   174.85247924
 H     36  35  29     2.042653697246   122.29801063   357.72828703
 H     37  36  35     2.077081239624   108.34137139   235.75554069
 H     38  37  36     2.038553493669   115.87746900   179.99121169
 H     39  38  37     2.041085697641   120.56880738   179.76915542
 H     42  41  40     2.040474203121   119.28128717   358.29963309
 H     43  42  41     2.037339740600   119.94756520   180.30329800
 H     44  37  36     2.040824475322   116.63332749   300.37393226
 H     45  44  37     2.043925969666   120.37811749   357.51202784
 H     55  54  53     2.033788708551   120.25893314   179.93691174
 H     56  52  50     2.025768137757   129.75772901   359.74581166
 H     58  57  49     2.045078783781   117.68198470   179.53375575
 H     59  58  57     2.047707833311   121.06949321   359.92100341

---------------------
BASIS SET INFORMATION
---------------------
There are 6 groups of distinct atoms

 Group   1 Type C   : 7s4p1d contracted to 3s2p1d pattern {511/31/1}
 Group   2 Type N   : 7s4p1d contracted to 3s2p1d pattern {511/31/1}
 Group   3 Type F   : 7s4p1d contracted to 3s2p1d pattern {511/31/1}
 Group   4 Type S   : 10s7p1d contracted to 4s3p1d pattern {5311/511/1}
 Group   5 Type O   : 7s4p1d contracted to 3s2p1d pattern {511/31/1}
 Group   6 Type H   : 4s1p contracted to 2s1p pattern {31/1}

Atom   0C    basis set group =>   1
Atom   1C    basis set group =>   1
Atom   2N    basis set group =>   2
Atom   3C    basis set group =>   1
Atom   4F    basis set group =>   3
Atom   5C    basis set group =>   1
Atom   6F    basis set group =>   3
Atom   7C    basis set group =>   1
Atom   8S    basis set group =>   4
Atom   9C    basis set group =>   1
Atom  10C    basis set group =>   1
Atom  11C    basis set group =>   1
Atom  12N    basis set group =>   2
Atom  13C    basis set group =>   1
Atom  14C    basis set group =>   1
Atom  15C    basis set group =>   1
Atom  16O    basis set group =>   5
Atom  17C    basis set group =>   1
Atom  18C    basis set group =>   1
Atom  19N    basis set group =>   2
Atom  20C    basis set group =>   1
Atom  21C    basis set group =>   1
Atom  22C    basis set group =>   1
Atom  23C    basis set group =>   1
Atom  24C    basis set group =>   1
Atom  25C    basis set group =>   1
Atom  26C    basis set group =>   1
Atom  27C    basis set group =>   1
Atom  28C    basis set group =>   1
Atom  29C    basis set group =>   1
Atom  30C    basis set group =>   1
Atom  31N    basis set group =>   2
Atom  32C    basis set group =>   1
Atom  33N    basis set group =>   2
Atom  34C    basis set group =>   1
Atom  35C    basis set group =>   1
Atom  36C    basis set group =>   1
Atom  37C    basis set group =>   1
Atom  38C    basis set group =>   1
Atom  39C    basis set group =>   1
Atom  40C    basis set group =>   1
Atom  41C    basis set group =>   1
Atom  42C    basis set group =>   1
Atom  43C    basis set group =>   1
Atom  44C    basis set group =>   1
Atom  45C    basis set group =>   1
Atom  46N    basis set group =>   2
Atom  47C    basis set group =>   1
Atom  48C    basis set group =>   1
Atom  49C    basis set group =>   1
Atom  50O    basis set group =>   5
Atom  51C    basis set group =>   1
Atom  52C    basis set group =>   1
Atom  53N    basis set group =>   2
Atom  54C    basis set group =>   1
Atom  55C    basis set group =>   1
Atom  56C    basis set group =>   1
Atom  57C    basis set group =>   1
Atom  58C    basis set group =>   1
Atom  59C    basis set group =>   1
Atom  60C    basis set group =>   1
Atom  61C    basis set group =>   1
Atom  62C    basis set group =>   1
Atom  63C    basis set group =>   1
Atom  64C    basis set group =>   1
Atom  65S    basis set group =>   4
Atom  66C    basis set group =>   1
Atom  67N    basis set group =>   2
Atom  68F    basis set group =>   3
Atom  69F    basis set group =>   3
Atom  70H    basis set group =>   6
Atom  71H    basis set group =>   6
Atom  72H    basis set group =>   6
Atom  73H    basis set group =>   6
Atom  74H    basis set group =>   6
Atom  75H    basis set group =>   6
Atom  76H    basis set group =>   6
Atom  77H    basis set group =>   6
Atom  78H    basis set group =>   6
Atom  79H    basis set group =>   6
Atom  80H    basis set group =>   6
Atom  81H    basis set group =>   6
Atom  82H    basis set group =>   6
Atom  83H    basis set group =>   6
Atom  84H    basis set group =>   6
Atom  85H    basis set group =>   6
Atom  86H    basis set group =>   6
Atom  87H    basis set group =>   6
Atom  88H    basis set group =>   6
Atom  89H    basis set group =>   6
Atom  90H    basis set group =>   6
Atom  91H    basis set group =>   6
Atom  92H    basis set group =>   6
Atom  93H    basis set group =>   6
Atom  94H    basis set group =>   6
Atom  95H    basis set group =>   6
---------------------------------
AUXILIARY/J BASIS SET INFORMATION
---------------------------------
There are 6 groups of distinct atoms

 Group   1 Type C   : 12s5p4d2f1g contracted to 6s4p3d1f1g pattern {711111/2111/211/2/1}
 Group   2 Type N   : 12s5p4d2f1g contracted to 6s4p3d1f1g pattern {711111/2111/211/2/1}
 Group   3 Type F   : 12s5p4d2f1g contracted to 6s4p3d1f1g pattern {711111/2111/211/2/1}
 Group   4 Type S   : 14s5p5d2f1g contracted to 8s4p3d1f1g pattern {71111111/2111/311/2/1}
 Group   5 Type O   : 12s5p4d2f1g contracted to 6s4p3d1f1g pattern {711111/2111/211/2/1}
 Group   6 Type H   : 5s2p1d contracted to 3s1p1d pattern {311/2/1}

Atom   0C    basis set group =>   1
Atom   1C    basis set group =>   1
Atom   2N    basis set group =>   2
Atom   3C    basis set group =>   1
Atom   4F    basis set group =>   3
Atom   5C    basis set group =>   1
Atom   6F    basis set group =>   3
Atom   7C    basis set group =>   1
Atom   8S    basis set group =>   4
Atom   9C    basis set group =>   1
Atom  10C    basis set group =>   1
Atom  11C    basis set group =>   1
Atom  12N    basis set group =>   2
Atom  13C    basis set group =>   1
Atom  14C    basis set group =>   1
Atom  15C    basis set group =>   1
Atom  16O    basis set group =>   5
Atom  17C    basis set group =>   1
Atom  18C    basis set group =>   1
Atom  19N    basis set group =>   2
Atom  20C    basis set group =>   1
Atom  21C    basis set group =>   1
Atom  22C    basis set group =>   1
Atom  23C    basis set group =>   1
Atom  24C    basis set group =>   1
Atom  25C    basis set group =>   1
Atom  26C    basis set group =>   1
Atom  27C    basis set group =>   1
Atom  28C    basis set group =>   1
Atom  29C    basis set group =>   1
Atom  30C    basis set group =>   1
Atom  31N    basis set group =>   2
Atom  32C    basis set group =>   1
Atom  33N    basis set group =>   2
Atom  34C    basis set group =>   1
Atom  35C    basis set group =>   1
Atom  36C    basis set group =>   1
Atom  37C    basis set group =>   1
Atom  38C    basis set group =>   1
Atom  39C    basis set group =>   1
Atom  40C    basis set group =>   1
Atom  41C    basis set group =>   1
Atom  42C    basis set group =>   1
Atom  43C    basis set group =>   1
Atom  44C    basis set group =>   1
Atom  45C    basis set group =>   1
Atom  46N    basis set group =>   2
Atom  47C    basis set group =>   1
Atom  48C    basis set group =>   1
Atom  49C    basis set group =>   1
Atom  50O    basis set group =>   5
Atom  51C    basis set group =>   1
Atom  52C    basis set group =>   1
Atom  53N    basis set group =>   2
Atom  54C    basis set group =>   1
Atom  55C    basis set group =>   1
Atom  56C    basis set group =>   1
Atom  57C    basis set group =>   1
Atom  58C    basis set group =>   1
Atom  59C    basis set group =>   1
Atom  60C    basis set group =>   1
Atom  61C    basis set group =>   1
Atom  62C    basis set group =>   1
Atom  63C    basis set group =>   1
Atom  64C    basis set group =>   1
Atom  65S    basis set group =>   4
Atom  66C    basis set group =>   1
Atom  67N    basis set group =>   2
Atom  68F    basis set group =>   3
Atom  69F    basis set group =>   3
Atom  70H    basis set group =>   6
Atom  71H    basis set group =>   6
Atom  72H    basis set group =>   6
Atom  73H    basis set group =>   6
Atom  74H    basis set group =>   6
Atom  75H    basis set group =>   6
Atom  76H    basis set group =>   6
Atom  77H    basis set group =>   6
Atom  78H    basis set group =>   6
Atom  79H    basis set group =>   6
Atom  80H    basis set group =>   6
Atom  81H    basis set group =>   6
Atom  82H    basis set group =>   6
Atom  83H    basis set group =>   6
Atom  84H    basis set group =>   6
Atom  85H    basis set group =>   6
Atom  86H    basis set group =>   6
Atom  87H    basis set group =>   6
Atom  88H    basis set group =>   6
Atom  89H    basis set group =>   6
Atom  90H    basis set group =>   6
Atom  91H    basis set group =>   6
Atom  92H    basis set group =>   6
Atom  93H    basis set group =>   6
Atom  94H    basis set group =>   6
Atom  95H    basis set group =>   6


           ************************************************************
           *        Program running with 6 parallel MPI-processes     *
           *              working on a common directory               *
           ************************************************************
------------------------------------------------------------------------------
                           ORCA GTO INTEGRAL CALCULATION
                           -- RI-GTO INTEGRALS CHOSEN --
------------------------------------------------------------------------------

                         BASIS SET STATISTICS AND STARTUP INFO

Gaussian basis set:
 # of primitive gaussian shells          ...  982
 # of primitive gaussian functions       ... 1886
 # of contracted shells                  ...  502
 # of contracted basis functions         ... 1118
 Highest angular momentum                ...    2
 Maximum contraction depth               ...    5
Auxiliary gaussian basis set:
 # of primitive gaussian shells          ... 1894
 # of primitive gaussian functions       ... 5330
 # of contracted shells                  ... 1184
 # of contracted aux-basis functions     ... 3720
 Highest angular momentum                ...    4
 Maximum contraction depth               ...    7
Ratio of auxiliary to basis functions    ...  3.33
Integral package used                  ... LIBINT
 One Electron integrals                  ... done
 Ordering auxiliary basis shells         ... done
 Integral threshhold             Thresh  ...  2.500e-11
 Primitive cut-off               TCut    ...  2.500e-12
 Pre-screening matrix                    ... done
 Shell pair data                         ... 
 Ordering of the shell pairs             ... done (   0.008 sec) 41221 of 126253 pairs
 Determination of significant pairs      ... done (   0.000 sec)
 Creation of shell pair data             ... done (   0.004 sec)
 Storage of shell pair data              ... done (   0.006 sec)
 Shell pair data done in (   0.018 sec)
 Computing two index integrals           ... done
 Cholesky decomposition of the V-matrix  ... done


Timings:
 Total evaluation time                   ...   1.999 sec (  0.033 min)
 One electron matrix time                ...   0.413 sec (  0.007 min) = 20.7%
 Schwartz matrix evaluation time         ...   0.542 sec (  0.009 min) = 27.1%
 Two index repulsion integral time       ...   0.227 sec (  0.004 min) = 11.4%
 Cholesky decomposition of V             ...   0.782 sec (  0.013 min) = 39.1%
 Three index repulsion integral time     ...   0.000 sec (  0.000 min) =  0.0%



           ************************************************************
           *        Program running with 6 parallel MPI-processes     *
           *              working on a common directory               *
           ************************************************************
-------------------------------------------------------------------------------
                                 ORCA SCF
-------------------------------------------------------------------------------

------------
SCF SETTINGS
------------
Hamiltonian:
 Density Functional     Method          .... DFT(GTOs)
 Exchange Functional    Exchange        .... WB88
 Correlation Functional Correlation     .... LYP
 LDA part of GGA corr.  LDAOpt          .... VWN-5
 Gradients option       PostSCFGGA      .... off
 Hybrid DFT is turned on
   Fraction HF Exchange ScalHFX         ....  0.190000
   Scaling of DF-GGA-X  ScalDFX         ....  0.350000
   Scaling of DF-GGA-C  ScalDFC         ....  0.810000
   Scaling of DF-LDA-C  ScalLDAC        ....  1.000000
   Perturbative correction              ....  0.000000
   Density functional embedding theory  .... OFF
 Long-range corrected/Screened/Range-Separated Hybrid DFT is turned on
   Amount of maximum screened exact exchange              ....  0.460000
   Range separation parameter mu (erf(mu*r12)/r12)        ....  0.330000
 RI-approximation to the Coulomb term is turned on
   Number of auxiliary basis functions  .... 3720
   RIJ-COSX (HFX calculated with COS-X)).... on


General Settings:
 Integral files         IntName         .... xtbopt
 Hartree-Fock type      HFTyp           .... RHF
 Total Charge           Charge          ....    0
 Multiplicity           Mult            ....    1
 Number of Electrons    NEL             ....  490
 Basis Dimension        Dim             .... 1118
 Nuclear Repulsion      ENuc            ....   9169.9928952002 Eh

Convergence Acceleration:
 DIIS                   CNVDIIS         .... on
   Start iteration      DIISMaxIt       ....    12
   Startup error        DIISStart       ....  0.200000
   # of expansion vecs  DIISMaxEq       ....     5
   Bias factor          DIISBfac        ....   1.050
   Max. coefficient     DIISMaxC        ....  10.000
 Newton-Raphson         CNVNR           .... off
 SOSCF                  CNVSOSCF        .... on
   Start iteration      SOSCFMaxIt      ....   150
   Startup grad/error   SOSCFStart      ....  0.003300
 Level Shifting         CNVShift        .... on
   Level shift para.    LevelShift      ....    0.2500
   Turn off err/grad.   ShiftErr        ....    0.0010
 Zerner damping         CNVZerner       .... off
 Static damping         CNVDamp         .... on
   Fraction old density DampFac         ....    0.7000
   Max. Damping (<1)    DampMax         ....    0.9800
   Min. Damping (>=0)   DampMin         ....    0.0000
   Turn off err/grad.   DampErr         ....    0.1000
 Fernandez-Rico         CNVRico         .... off

SCF Procedure:
 Maximum # iterations   MaxIter         ....   125
 SCF integral mode      SCFMode         .... Direct
   Integral package                     .... LIBINT
 Reset frequency        DirectResetFreq ....    20
 Integral Threshold     Thresh          ....  2.500e-11 Eh
 Primitive CutOff       TCut            ....  2.500e-12 Eh

Convergence Tolerance:
 Convergence Check Mode ConvCheckMode   .... Total+1el-Energy
 Convergence forced     ConvForced      .... 1
 Energy Change          TolE            ....  1.000e-08 Eh
 1-El. energy change                    ....  1.000e-05 Eh
 Orbital Gradient       TolG            ....  1.000e-05
 Orbital Rotation angle TolX            ....  1.000e-05
 DIIS Error             TolErr          ....  5.000e-07


Diagonalization of the overlap matrix:
Smallest eigenvalue                        ... 1.352e-04
Time for diagonalization                   ...    0.276 sec
Threshold for overlap eigenvalues          ... 1.000e-08
Number of eigenvalues below threshold      ... 0
Time for construction of square roots      ...    0.207 sec
Total time needed                          ...    0.484 sec

-------------------
DFT GRID GENERATION
-------------------

General Integration Accuracy     IntAcc      ...  4.670
Radial Grid Type                 RadialGrid  ... Gauss-Chebyshev
Angular Grid (max. acc.)         AngularGrid ... Lebedev-302
Angular grid pruning method      GridPruning ... 3 (G Style)
Weight generation scheme         WeightScheme... Becke
Basis function cutoff            BFCut       ...    1.0000e-11
Integration weight cutoff        WCut        ...    1.0000e-14
Grids for H and He will be reduced by one unit

# of grid points (after initial pruning)     ... 524592 (   0.0 sec)
# of grid points (after weights+screening)   ... 452558 (   4.3 sec)
nearest neighbour list constructed           ...    0.0 sec
Grid point re-assignment to atoms done       ...    0.1 sec
Grid point division into batches done        ...    1.8 sec
Reduced shell lists constructed in    2.6 sec

Total number of grid points                  ...   452558
Total number of batches                      ...     7120
Average number of points per batch           ...       63
Average number of grid points per atom       ...     4714
Average number of shells per batch           ...    86.67 (17.27%)
Average number of basis functions per batch  ...   179.65 (16.07%)
Average number of large shells per batch     ...    49.53 (57.15%)
Average number of large basis fcns per batch ...   106.20 (59.11%)
Maximum spatial batch extension              ...  25.58, 15.63, 18.70 au
Average spatial batch extension              ...   0.38,  0.35,  0.37 au

Time for grid setup =    7.224 sec

------------------------------
INITIAL GUESS: MODEL POTENTIAL
------------------------------
Loading Hartree-Fock densities                     ... done
Calculating cut-offs                               ... done
Setting up the integral package                    ... done
Initializing the effective Hamiltonian             ... done
Starting the Coulomb interaction                   ... done (   1.1 sec)
Reading the grid                                   ... done
Mapping shells                                     ... done
Starting the XC term evaluation                    ... done (   1.1 sec)
  promolecular density results
     # of electrons  =    489.988032798
     EX              =   -442.422149770
     EC              =    -16.817196424
     EX+EC           =   -459.239346193
Transforming the Hamiltonian                       ... done (   0.2 sec)
Diagonalizing the Hamiltonian                      ... done (   0.3 sec)
Back transforming the eigenvectors                 ... done (   0.1 sec)
Now organizing SCF variables                       ... done
                      ------------------
                      INITIAL GUESS DONE (  10.1 sec)
                      ------------------
--------------------
COSX GRID GENERATION
--------------------

General Integration Accuracy     IntAcc      ...  3.340
Radial Grid Type                 RadialGrid  ... Gauss-Chebyshev
Angular Grid (max. acc.)         AngularGrid ... Lebedev-50
Angular grid pruning method      GridPruning ... 3 (G Style)
Weight generation scheme         WeightScheme... Becke
Basis function cutoff            BFCut       ...    1.0000e-11
Integration weight cutoff        WCut        ...    1.0000e-14
Grids for H and He will be reduced by one unit

# of grid points (after initial pruning)     ...  49060 (   0.0 sec)
# of grid points (after weights+screening)   ...  44153 (   0.4 sec)
nearest neighbour list constructed           ...    0.0 sec
Grid point re-assignment to atoms done       ...    0.0 sec
Grid point division into batches done        ...    0.0 sec
Reduced shell lists constructed in    0.1 sec

Total number of grid points                  ...    44153
Total number of batches                      ...      746
Average number of points per batch           ...       59
Average number of grid points per atom       ...      460
Average number of shells per batch           ...   108.13 (21.54%)
Average number of basis functions per batch  ...   225.95 (20.21%)
Average number of large shells per batch     ...    61.84 (57.19%)
Average number of large basis fcns per batch ...   133.24 (58.97%)
Maximum spatial batch extension              ...  17.02, 16.15, 17.70 au
Average spatial batch extension              ...   0.91,  0.69,  0.84 au

Overlap Fitting                  UseSFitting ... on
Constructing numerical overlap ... done (      0.1 sec)
Inverting numerical overlap    ... done (      0.1 sec)
Obtaining analytic overlap     ... done (      0.0 sec)
Final contraction and storage  ... done (      0.3 sec)


General Integration Accuracy     IntAcc      ...  3.670
Radial Grid Type                 RadialGrid  ... Gauss-Chebyshev
Angular Grid (max. acc.)         AngularGrid ... Lebedev-50
Angular grid pruning method      GridPruning ... 3 (G Style)
Weight generation scheme         WeightScheme... Becke
Basis function cutoff            BFCut       ...    1.0000e-11
Integration weight cutoff        WCut        ...    1.0000e-14
Grids for H and He will be reduced by one unit

# of grid points (after initial pruning)     ...  61132 (   0.0 sec)
# of grid points (after weights+screening)   ...  54748 (   0.5 sec)
nearest neighbour list constructed           ...    0.0 sec
Grid point re-assignment to atoms done       ...    0.0 sec
Grid point division into batches done        ...    0.0 sec
Reduced shell lists constructed in    0.2 sec

Total number of grid points                  ...    54748
Total number of batches                      ...      903
Average number of points per batch           ...       60
Average number of grid points per atom       ...      570
Average number of shells per batch           ...   106.41 (21.20%)
Average number of basis functions per batch  ...   221.78 (19.84%)
Average number of large shells per batch     ...    60.69 (57.04%)
Average number of large basis fcns per batch ...   130.91 (59.03%)
Maximum spatial batch extension              ...  18.81, 17.46, 19.47 au
Average spatial batch extension              ...   0.84,  0.68,  0.76 au

Overlap Fitting                  UseSFitting ... on
Constructing numerical overlap ... done (      0.2 sec)
Inverting numerical overlap    ... done (      0.1 sec)
Obtaining analytic overlap     ... done (      0.0 sec)
Final contraction and storage  ... done (      0.3 sec)


General Integration Accuracy     IntAcc      ...  4.010
Radial Grid Type                 RadialGrid  ... Gauss-Chebyshev
Angular Grid (max. acc.)         AngularGrid ... Lebedev-110
Angular grid pruning method      GridPruning ... 3 (G Style)
Weight generation scheme         WeightScheme... Becke
Basis function cutoff            BFCut       ...    1.0000e-11
Integration weight cutoff        WCut        ...    1.0000e-14
Grids for H and He will be reduced by one unit

# of grid points (after initial pruning)     ... 120276 (   0.0 sec)
# of grid points (after weights+screening)   ... 106882 (   1.0 sec)
nearest neighbour list constructed           ...    0.0 sec
Grid point re-assignment to atoms done       ...    0.0 sec
Grid point division into batches done        ...    0.1 sec
Reduced shell lists constructed in    0.3 sec

Total number of grid points                  ...   106882
Total number of batches                      ...     1717
Average number of points per batch           ...       62
Average number of grid points per atom       ...     1113
Average number of shells per batch           ...    98.14 (19.55%)
Average number of basis functions per batch  ...   204.56 (18.30%)
Average number of large shells per batch     ...    56.28 (57.35%)
Average number of large basis fcns per batch ...   121.32 (59.31%)
Maximum spatial batch extension              ...  21.25, 16.52, 16.09 au
Average spatial batch extension              ...   0.65,  0.54,  0.60 au

Overlap Fitting                  UseSFitting ... on
Constructing numerical overlap ... done (      0.3 sec)
Inverting numerical overlap    ... done (      0.1 sec)
Obtaining analytic overlap     ... done (      0.0 sec)
Final contraction and storage  ... done (      0.3 sec)

Time for X-Grid setup             =    4.442 sec
--------------
SCF ITERATIONS
--------------
ITER       Energy         Delta-E        Max-DP      RMS-DP      [F,P]     Damp
               ***  Starting incremental Fock matrix formation  ***
  0  -3851.9879963904   0.000000000000 0.08004851  0.00103992  0.2329106 0.7000
  1  -3852.4858632594  -0.497866869060 0.04628558  0.00074915  0.1175729 0.7000
                               ***Turning on DIIS***
  2  -3852.7117906570  -0.225927397629 0.06683108  0.00136577  0.0447387 0.0000
  3  -3853.0886516549  -0.376860997892 0.04891923  0.00051608  0.0627491 0.0000
  4  -3853.1507523031  -0.062100648183 0.01815242  0.00014618  0.0236905 0.0000
  5  -3853.1554894486  -0.004737145528 0.00637512  0.00006113  0.0066428 0.0000
                      *** Initiating the SOSCF procedure ***
                           *** Shutting down DIIS ***
                      *** Re-Reading the Fockian *** 
                      *** Removing any level shift *** 
ITER      Energy       Delta-E        Grad      Rot      Max-DP    RMS-DP
  6  -3853.15648474  -0.0009952961  0.002467  0.002467  0.002496  0.000035
               *** Restarting incremental Fock matrix formation ***
  7  -3853.15687856  -0.0003938129  0.001951  0.016986  0.001952  0.000041
  8  -3853.15722751  -0.0003489539  0.000656  0.017925  0.002431  0.000051
  9  -3853.15725164  -0.0000241278  0.000763  0.005870  0.001457  0.000020
 10  -3853.15734227  -0.0000906274  0.000137  0.001369  0.000811  0.000007
 11  -3853.15734216   0.0000001076  0.000134  0.000420  0.000361  0.000004
 12  -3853.15734591  -0.0000037524  0.000051  0.000415  0.000141  0.000002
 13  -3853.15734598  -0.0000000643  0.000028  0.000117  0.000082  0.000001
 14  -3853.15734619  -0.0000002113  0.000014  0.000137  0.000039  0.000001
 15  -3853.15734620  -0.0000000151  0.000009  0.000055  0.000020  0.000000
                  ***Gradient check signals convergence***
              ***Rediagonalizing the Fockian in SOSCF/NRSCF***

               *****************************************************
               *                     SUCCESS                       *
               *           SCF CONVERGED AFTER  16 CYCLES          *
               *****************************************************

Setting up the final grid:

General Integration Accuracy     IntAcc      ...  5.010
Radial Grid Type                 RadialGrid  ... Gauss-Chebyshev
Angular Grid (max. acc.)         AngularGrid ... Lebedev-434
Angular grid pruning method      GridPruning ... 3 (G Style)
Weight generation scheme         WeightScheme... Becke
Basis function cutoff            BFCut       ...    1.0000e-11
Integration weight cutoff        WCut        ...    1.0000e-14
Grids for H and He will be reduced by one unit

# of grid points (after initial pruning)     ... 924840 (   0.0 sec)
# of grid points (after weights+screening)   ... 794849 (   7.4 sec)
nearest neighbour list constructed           ...    0.0 sec
Grid point re-assignment to atoms done       ...    0.1 sec
Grid point division into batches done        ...    5.7 sec
Reduced shell lists constructed in    7.1 sec

Total number of grid points                  ...   794849
Total number of batches                      ...    12465
Average number of points per batch           ...       63
Average number of grid points per atom       ...     8280
Average number of shells per batch           ...    84.11 (16.75%)
Average number of basis functions per batch  ...   174.09 (15.57%)
Average number of large shells per batch     ...    48.27 (57.39%)
Average number of large basis fcns per batch ...   103.68 (59.56%)
Maximum spatial batch extension              ...  19.57, 18.10, 17.14 au
Average spatial batch extension              ...   0.31,  0.29,  0.30 au

Final grid set up in   15.0 sec
Final integration                            ... done (   2.6 sec)
Change in XC energy                          ...     0.000068991
Integrated number of electrons               ...   489.999691117
Previous integrated no of electrons          ...   490.000363434
Old exchange energy                            =   -123.672276530 Eh
New exchange energy                            =   -123.671689814 Eh
Exchange energy change after final integration =      0.000586716 Eh
Total energy after final integration           =  -3853.156690501 Eh
Final COS-X integration done in                =    49.836 sec

----------------
TOTAL SCF ENERGY
----------------

Total Energy       :        -3853.15669050 Eh         -104849.72401 eV

Components:
Nuclear Repulsion  :         9169.99289520 Eh          249528.19245 eV
Electronic Energy  :       -13023.14958570 Eh         -354377.91645 eV
One Electron Energy:       -23520.71680086 Eh         -640031.24271 eV
Two Electron Energy:        10497.56721516 Eh          285653.32626 eV

Virial components:
Potential Energy   :        -7677.25885021 Eh         -208908.83403 eV
Kinetic Energy     :         3824.10215971 Eh          104059.11003 eV
Virial Ratio       :            2.00759774


DFT components:
N(Alpha)           :      244.999845558369 electrons
N(Beta)            :      244.999845558369 electrons
N(Total)           :      489.999691116737 electrons
E(XC)              :     -343.075180770438 Eh       
DFET-embed. en.    :        0.000000000000 Eh       

---------------
SCF CONVERGENCE
---------------

  Last Energy change         ...   -5.4988e-09  Tolerance :   1.0000e-08
  Last MAX-Density change    ...    7.9936e-15  Tolerance :   1.0000e-07
  Last RMS-Density change    ...    3.8683e-17  Tolerance :   5.0000e-09
  Last Orbital Gradient      ...    1.8457e-06  Tolerance :   1.0000e-05
  Last Orbital Rotation      ...    1.6212e-05  Tolerance :   1.0000e-05

             **** THE GBW FILE WAS UPDATED (xtbopt.gbw) ****
             **** DENSITY FILE WAS UPDATED (xtbopt.scfp) ****
             **** ENERGY FILE WAS UPDATED (xtbopt.en.tmp) ****
             **** THE GBW FILE WAS UPDATED (xtbopt.gbw) ****
             **** DENSITY FILE WAS UPDATED (xtbopt.scfp) ****
----------------
ORBITAL ENERGIES
----------------

  NO   OCC          E(Eh)            E(eV) 
   0   2.0000     -89.004018     -2421.9224 
   1   2.0000     -88.999509     -2421.7998 
   2   2.0000     -24.822412      -675.4522 
   3   2.0000     -24.818384      -675.3426 
   4   2.0000     -24.817109      -675.3079 
   5   2.0000     -24.812846      -675.1919 
   6   2.0000     -19.220463      -523.0154 
   7   2.0000     -19.210721      -522.7503 
   8   2.0000     -14.429736      -392.6531 
   9   2.0000     -14.420934      -392.4136 
  10   2.0000     -14.419044      -392.3621 
  11   2.0000     -14.416155      -392.2835 
  12   2.0000     -14.412949      -392.1963 
  13   2.0000     -14.411145      -392.1472 
  14   2.0000     -14.407561      -392.0497 
  15   2.0000     -14.378070      -391.2472 
  16   2.0000     -10.405729      -283.1543 
  17   2.0000     -10.401777      -283.0467 
  18   2.0000     -10.399810      -282.9932 
  19   2.0000     -10.393812      -282.8300 
  20   2.0000     -10.380000      -282.4542 
  21   2.0000     -10.371169      -282.2139 
  22   2.0000     -10.361645      -281.9547 
  23   2.0000     -10.359188      -281.8878 
  24   2.0000     -10.353708      -281.7387 
  25   2.0000     -10.353251      -281.7263 
  26   2.0000     -10.352219      -281.6982 
  27   2.0000     -10.347954      -281.5821 
  28   2.0000     -10.340268      -281.3730 
  29   2.0000     -10.334276      -281.2099 
  30   2.0000     -10.334187      -281.2075 
  31   2.0000     -10.330256      -281.1006 
  32   2.0000     -10.329729      -281.0862 
  33   2.0000     -10.327814      -281.0341 
  34   2.0000     -10.327351      -281.0215 
  35   2.0000     -10.324089      -280.9327 
  36   2.0000     -10.321235      -280.8551 
  37   2.0000     -10.319644      -280.8118 
  38   2.0000     -10.317697      -280.7588 
  39   2.0000     -10.314611      -280.6748 
  40   2.0000     -10.314071      -280.6601 
  41   2.0000     -10.310208      -280.5550 
  42   2.0000     -10.309868      -280.5458 
  43   2.0000     -10.308746      -280.5152 
  44   2.0000     -10.307731      -280.4876 
  45   2.0000     -10.302788      -280.3531 
  46   2.0000     -10.300945      -280.3030 
  47   2.0000     -10.300484      -280.2904 
  48   2.0000     -10.299912      -280.2748 
  49   2.0000     -10.295619      -280.1580 
  50   2.0000     -10.294667      -280.1321 
  51   2.0000     -10.293931      -280.1121 
  52   2.0000     -10.292538      -280.0742 
  53   2.0000     -10.291981      -280.0591 
  54   2.0000     -10.290119      -280.0084 
  55   2.0000     -10.289607      -279.9944 
  56   2.0000     -10.289555      -279.9930 
  57   2.0000     -10.289481      -279.9910 
  58   2.0000     -10.288289      -279.9586 
  59   2.0000     -10.288141      -279.9545 
  60   2.0000     -10.288071      -279.9526 
  61   2.0000     -10.284902      -279.8664 
  62   2.0000     -10.283113      -279.8177 
  63   2.0000     -10.282410      -279.7986 
  64   2.0000     -10.281897      -279.7846 
  65   2.0000     -10.279486      -279.7190 
  66   2.0000     -10.278804      -279.7005 
  67   2.0000     -10.277547      -279.6663 
  68   2.0000     -10.276549      -279.6391 
  69   2.0000     -10.275810      -279.6190 
  70   2.0000      -8.095063      -220.2779 
  71   2.0000      -8.094664      -220.2670 
  72   2.0000      -6.064955      -165.0358 
  73   2.0000      -6.064208      -165.0155 
  74   2.0000      -6.060601      -164.9173 
  75   2.0000      -6.060149      -164.9050 
  76   2.0000      -6.056566      -164.8075 
  77   2.0000      -6.056033      -164.7930 
  78   2.0000      -1.341606       -36.5070 
  79   2.0000      -1.337300       -36.3898 
  80   2.0000      -1.328749       -36.1571 
  81   2.0000      -1.324035       -36.0288 
  82   2.0000      -1.134470       -30.8705 
  83   2.0000      -1.124879       -30.6095 
  84   2.0000      -1.085449       -29.5366 
  85   2.0000      -1.083094       -29.4725 
  86   2.0000      -1.065462       -28.9927 
  87   2.0000      -1.062831       -28.9211 
  88   2.0000      -1.035041       -28.1649 
  89   2.0000      -1.031416       -28.0663 
  90   2.0000      -1.007692       -27.4207 
  91   2.0000      -1.000690       -27.2301 
  92   2.0000      -0.999276       -27.1917 
  93   2.0000      -0.986299       -26.8386 
  94   2.0000      -0.964767       -26.2527 
  95   2.0000      -0.959315       -26.1043 
  96   2.0000      -0.946462       -25.7545 
  97   2.0000      -0.940288       -25.5865 
  98   2.0000      -0.938123       -25.5276 
  99   2.0000      -0.933895       -25.4126 
 100   2.0000      -0.918107       -24.9829 
 101   2.0000      -0.909042       -24.7363 
 102   2.0000      -0.905675       -24.6447 
 103   2.0000      -0.896106       -24.3843 
 104   2.0000      -0.882676       -24.0188 
 105   2.0000      -0.875881       -23.8339 
 106   2.0000      -0.873497       -23.7691 
 107   2.0000      -0.868501       -23.6331 
 108   2.0000      -0.866827       -23.5876 
 109   2.0000      -0.864317       -23.5193 
 110   2.0000      -0.854498       -23.2521 
 111   2.0000      -0.852611       -23.2007 
 112   2.0000      -0.846696       -23.0398 
 113   2.0000      -0.842753       -22.9325 
 114   2.0000      -0.827611       -22.5204 
 115   2.0000      -0.815713       -22.1967 
 116   2.0000      -0.800620       -21.7860 
 117   2.0000      -0.783530       -21.3209 
 118   2.0000      -0.775117       -21.0920 
 119   2.0000      -0.770425       -20.9643 
 120   2.0000      -0.761108       -20.7108 
 121   2.0000      -0.758857       -20.6496 
 122   2.0000      -0.756100       -20.5745 
 123   2.0000      -0.741400       -20.1745 
 124   2.0000      -0.732291       -19.9267 
 125   2.0000      -0.727415       -19.7940 
 126   2.0000      -0.726387       -19.7660 
 127   2.0000      -0.717764       -19.5314 
 128   2.0000      -0.712998       -19.4017 
 129   2.0000      -0.708785       -19.2870 
 130   2.0000      -0.707603       -19.2548 
 131   2.0000      -0.690449       -18.7881 
 132   2.0000      -0.689653       -18.7664 
 133   2.0000      -0.686378       -18.6773 
 134   2.0000      -0.676332       -18.4039 
 135   2.0000      -0.669329       -18.2134 
 136   2.0000      -0.666363       -18.1327 
 137   2.0000      -0.657682       -17.8964 
 138   2.0000      -0.656150       -17.8547 
 139   2.0000      -0.642345       -17.4791 
 140   2.0000      -0.638148       -17.3649 
 141   2.0000      -0.636789       -17.3279 
 142   2.0000      -0.633857       -17.2481 
 143   2.0000      -0.631964       -17.1966 
 144   2.0000      -0.624973       -17.0064 
 145   2.0000      -0.622759       -16.9461 
 146   2.0000      -0.620600       -16.8874 
 147   2.0000      -0.609901       -16.5963 
 148   2.0000      -0.607378       -16.5276 
 149   2.0000      -0.603079       -16.4106 
 150   2.0000      -0.602560       -16.3965 
 151   2.0000      -0.601575       -16.3697 
 152   2.0000      -0.599105       -16.3025 
 153   2.0000      -0.597113       -16.2483 
 154   2.0000      -0.592721       -16.1288 
 155   2.0000      -0.581474       -15.8227 
 156   2.0000      -0.580064       -15.7843 
 157   2.0000      -0.577060       -15.7026 
 158   2.0000      -0.574563       -15.6347 
 159   2.0000      -0.569670       -15.5015 
 160   2.0000      -0.568130       -15.4596 
 161   2.0000      -0.563980       -15.3467 
 162   2.0000      -0.562287       -15.3006 
 163   2.0000      -0.559694       -15.2301 
 164   2.0000      -0.557054       -15.1582 
 165   2.0000      -0.553155       -15.0521 
 166   2.0000      -0.548867       -14.9354 
 167   2.0000      -0.548640       -14.9293 
 168   2.0000      -0.546056       -14.8589 
 169   2.0000      -0.539240       -14.6735 
 170   2.0000      -0.537586       -14.6285 
 171   2.0000      -0.535604       -14.5745 
 172   2.0000      -0.529313       -14.4033 
 173   2.0000      -0.528015       -14.3680 
 174   2.0000      -0.525114       -14.2891 
 175   2.0000      -0.524176       -14.2635 
 176   2.0000      -0.523308       -14.2399 
 177   2.0000      -0.522639       -14.2217 
 178   2.0000      -0.516801       -14.0629 
 179   2.0000      -0.511779       -13.9262 
 180   2.0000      -0.510541       -13.8925 
 181   2.0000      -0.507947       -13.8219 
 182   2.0000      -0.505373       -13.7519 
 183   2.0000      -0.502983       -13.6869 
 184   2.0000      -0.502501       -13.6738 
 185   2.0000      -0.501498       -13.6465 
 186   2.0000      -0.501191       -13.6381 
 187   2.0000      -0.498725       -13.5710 
 188   2.0000      -0.497898       -13.5485 
 189   2.0000      -0.495541       -13.4844 
 190   2.0000      -0.493713       -13.4346 
 191   2.0000      -0.481248       -13.0954 
 192   2.0000      -0.480834       -13.0842 
 193   2.0000      -0.479977       -13.0608 
 194   2.0000      -0.475016       -12.9258 
 195   2.0000      -0.473964       -12.8972 
 196   2.0000      -0.471186       -12.8216 
 197   2.0000      -0.469016       -12.7626 
 198   2.0000      -0.468573       -12.7505 
 199   2.0000      -0.466229       -12.6867 
 200   2.0000      -0.464028       -12.6268 
 201   2.0000      -0.463562       -12.6142 
 202   2.0000      -0.462591       -12.5878 
 203   2.0000      -0.459970       -12.5164 
 204   2.0000      -0.455052       -12.3826 
 205   2.0000      -0.452218       -12.3055 
 206   2.0000      -0.450840       -12.2680 
 207   2.0000      -0.448247       -12.1974 
 208   2.0000      -0.445847       -12.1321 
 209   2.0000      -0.442031       -12.0283 
 210   2.0000      -0.435405       -11.8480 
 211   2.0000      -0.431618       -11.7449 
 212   2.0000      -0.429875       -11.6975 
 213   2.0000      -0.425112       -11.5679 
 214   2.0000      -0.422277       -11.4907 
 215   2.0000      -0.412852       -11.2343 
 216   2.0000      -0.407717       -11.0945 
 217   2.0000      -0.400505       -10.8983 
 218   2.0000      -0.396833       -10.7984 
 219   2.0000      -0.394076       -10.7234 
 220   2.0000      -0.390210       -10.6182 
 221   2.0000      -0.381649       -10.3852 
 222   2.0000      -0.379284       -10.3208 
 223   2.0000      -0.369700       -10.0600 
 224   2.0000      -0.367579       -10.0023 
 225   2.0000      -0.362059        -9.8521 
 226   2.0000      -0.359366        -9.7788 
 227   2.0000      -0.355299        -9.6682 
 228   2.0000      -0.351642        -9.5687 
 229   2.0000      -0.349630        -9.5139 
 230   2.0000      -0.345832        -9.4106 
 231   2.0000      -0.343856        -9.3568 
 232   2.0000      -0.343201        -9.3390 
 233   2.0000      -0.338889        -9.2216 
 234   2.0000      -0.337358        -9.1800 
 235   2.0000      -0.335277        -9.1234 
 236   2.0000      -0.334725        -9.1083 
 237   2.0000      -0.330859        -9.0031 
 238   2.0000      -0.328208        -8.9310 
 239   2.0000      -0.314151        -8.5485 
 240   2.0000      -0.300489        -8.1767 
 241   2.0000      -0.299699        -8.1552 
 242   2.0000      -0.281951        -7.6723 
 243   2.0000      -0.278724        -7.5845 
 244   2.0000      -0.236792        -6.4434 
 245   0.0000      -0.123070        -3.3489 
 246   0.0000      -0.121432        -3.3043 
 247   0.0000      -0.087376        -2.3776 
 248   0.0000      -0.076340        -2.0773 
 249   0.0000      -0.058510        -1.5921 
 250   0.0000      -0.045197        -1.2299 
 251   0.0000      -0.042968        -1.1692 
 252   0.0000      -0.016832        -0.4580 
 253   0.0000      -0.001853        -0.0504 
 254   0.0000       0.010320         0.2808 
 255   0.0000       0.017812         0.4847 
 256   0.0000       0.021274         0.5789 
 257   0.0000       0.032613         0.8875 
 258   0.0000       0.035182         0.9573 
 259   0.0000       0.035706         0.9716 
 260   0.0000       0.040481         1.1015 
 261   0.0000       0.053418         1.4536 
 262   0.0000       0.069519         1.8917 
 263   0.0000       0.073122         1.9897 
 264   0.0000       0.077635         2.1126 
 265   0.0000       0.080129         2.1804 
 266   0.0000       0.082675         2.2497 
 267   0.0000       0.088251         2.4014 
 268   0.0000       0.090501         2.4627 
 269   0.0000       0.097205         2.6451 
 270   0.0000       0.098360         2.6765 
 271   0.0000       0.100844         2.7441 
 272   0.0000       0.104703         2.8491 
 273   0.0000       0.105912         2.8820 
 274   0.0000       0.108208         2.9445 
 275   0.0000       0.116837         3.1793 
 276   0.0000       0.124276         3.3817 
 277   0.0000       0.124852         3.3974 
 278   0.0000       0.126494         3.4421 
 279   0.0000       0.128282         3.4907 
 280   0.0000       0.132350         3.6014 
 281   0.0000       0.140302         3.8178 
 282   0.0000       0.143490         3.9046 
 283   0.0000       0.146089         3.9753 
 284   0.0000       0.150364         4.0916 
 285   0.0000       0.153829         4.1859 
 286   0.0000       0.156313         4.2535 
 287   0.0000       0.157045         4.2734 
 288   0.0000       0.161802         4.4029 
 289   0.0000       0.162242         4.4148 
 290   0.0000       0.162819         4.4305 
 291   0.0000       0.167840         4.5672 
 292   0.0000       0.168641         4.5890 
 293   0.0000       0.169024         4.5994 
 294   0.0000       0.171364         4.6630 
 295   0.0000       0.175636         4.7793 
 296   0.0000       0.178857         4.8669 
 297   0.0000       0.182337         4.9616 
 298   0.0000       0.182984         4.9793 
 299   0.0000       0.186379         5.0716 
 300   0.0000       0.187456         5.1009 
 301   0.0000       0.189029         5.1437 
 302   0.0000       0.191607         5.2139 
 303   0.0000       0.194926         5.3042 
 304   0.0000       0.196368         5.3435 
 305   0.0000       0.207165         5.6373 
[...]
  53   4.582     270.6   0.136683   0.128114  96.063639  86.889239     0.19 (  93-> 102)    0.18 (  91->  97)    0.16 (  89->  98)
  54   4.687     264.5   0.012702   0.010045  -1.121855   0.207020     0.16 (  78->  95)    0.14 (  93-> 109)    0.13 (  78->  96)
  55   4.721     262.6   0.006001   0.006307   0.584733   1.504225     0.31 (  78->  94)    0.17 (  78->  95)    0.07 (  85->  94)
  56   4.761     260.4   0.012084   0.010055  -0.502682  -0.256641     0.85 (  93-> 103)    0.03 (  78->  94)    0.02 (  91-> 103)
  57   4.797     258.4   0.000007   0.000005   0.131366   0.105924     0.35 (  86->  94)    0.24 (  86->  95)    0.22 (  87->  94)
  58   4.867     254.7   0.049153   0.043665  -7.885733  -11.334973     0.19 (  78->  96)    0.13 (  90->  97)    0.08 (  85->  96)
  59   4.877     254.2   0.008469   0.007489  -0.560473  -1.632534     0.77 (  90->  97)    0.05 (  89->  97)    0.03 (  78->  96)
  60   4.912     252.4   0.001063   0.000868  -2.003334  -1.905797     0.37 (  84->  97)    0.23 (  92-> 101)    0.05 (  69->  94)
  61   4.977     249.1   0.011678   0.010091  -5.660118  -5.049684     0.48 (  79->  94)    0.25 (  79->  95)    0.09 (  79->  96)
  62   4.984     248.8   0.092041   0.076430  -11.977868  -19.538226     0.32 (  89->  99)    0.09 (  87->  98)    0.07 (  75->  97)
  63   4.986     248.7   0.019973   0.016587  20.104878  17.360207     0.46 (  75->  97)    0.28 (  75-> 100)    0.05 (  89->  99)
  64   4.999     248.0   0.017283   0.013618  -1.807562  -1.893244     0.36 (  87->  98)    0.15 (  86->  98)    0.10 (  89->  99)

-----------------------------------------------------------------------------
         ABSORPTION SPECTRUM VIA TRANSITION ELECTRIC DIPOLE MOMENTS
-----------------------------------------------------------------------------
State   Energy  Wavelength   fosc         T2         TX        TY        TZ  
        (cm-1)    (nm)                  (au**2)     (au)      (au)      (au) 
-----------------------------------------------------------------------------
   0   11475.4    871.4   0.154158476   4.42258  -0.55219  -1.87671  -0.77177
   1   12371.4    808.3   0.041280063   1.09849  -0.52446  -0.90730  -0.01534
   2   14861.8    672.9   0.081898868   1.81419   0.17606  -1.20411   0.57734
   3   17777.5    562.5   0.195555105   3.62137   1.45344  -0.26733  -1.19893
   4   18584.9    538.1   0.030410937   0.53870   0.18402   0.56265   0.43389
   5   21336.8    468.7   0.001346824   0.02078  -0.00585  -0.04693  -0.13617
   6   22009.4    454.4   0.001163447   0.01740   0.01054   0.10679  -0.07673
   7   22863.9    437.4   0.295636666   4.25681  -1.23473  -0.20797  -1.63982
   8   23660.2    422.7   0.511408699   7.11582   0.94744   1.92031   1.59079
   9   24247.6    412.4   0.226329308   3.07289   0.73914   1.40088   0.75107
  10   24504.2    408.1   0.512403495   6.88411  -0.85760  -2.47417  -0.16476
  11   24843.6    402.5   0.100384475   1.33023   1.01533  -0.19811  -0.50998
  12   24862.6    402.2   0.075900568   1.00502  -0.71077   0.34886   0.61492
  13   25339.1    394.6   0.027727716   0.36025  -0.40157  -0.06969  -0.44060
  14   25557.0    391.3   0.001672908   0.02155   0.03910   0.12591   0.06454
  15   25841.9    387.0   0.013804107   0.17586   0.35896   0.17093  -0.13337
  16   25899.5    386.1   0.842035512  10.70324  -1.04464  -2.94400  -0.97201
  17   26317.7    380.0   0.936503626  11.71487   2.37113  -0.80573  -2.33311
  18   26766.9    373.6   0.366873880   4.51226   0.98584  -1.54248  -1.07755
  19   26948.5    371.1   0.200796920   2.45301  -0.76922   0.93987   0.98891
  20   27071.6    369.4   0.020913914   0.25433   0.26425  -0.17148  -0.39383
  21   27518.0    363.4   0.357613735   4.27832  -0.35656  -1.87394  -0.79970
  22   27761.8    360.2   0.003061676   0.03631  -0.17231   0.06176  -0.05294
  23   27940.0    357.9   0.000228360   0.00269  -0.03646  -0.02330   0.02861
  24   28191.1    354.7   0.004663510   0.05446   0.01420   0.23271   0.01026
  25   29723.8    336.4   0.007314496   0.08101   0.07087  -0.22867  -0.15394
  26   30793.2    324.7   0.053899420   0.57624   0.42848   0.26981   0.56555
  27   30910.6    323.5   0.000653460   0.00696  -0.06951  -0.01587  -0.04332
  28   31058.0    322.0   0.082125354   0.87052  -0.65214  -0.42237   0.51657
  29   31064.4    321.9   0.004208640   0.04460   0.10956   0.13745  -0.11707
  30   31202.3    320.5   0.024091034   0.25418   0.22573   0.14652   0.42633
  31   31319.0    319.3   0.037905054   0.39844   0.16977   0.57433   0.19941
  32   31593.9    316.5   0.164184455   1.71082   0.84074  -0.98640  -0.17606
  33   32081.1    311.7   0.268308745   2.75335   0.54658   0.96427   1.23482
  34   32873.1    304.2   0.250468900   2.50836  -0.42671  -1.32524  -0.75499
  35   33062.8    302.5   0.039372246   0.39204   0.09972   0.60490   0.12724
  36   33234.6    300.9   0.159443559   1.57940   0.18994   1.18635   0.36863
  37   33785.5    296.0   0.090315525   0.88005  -0.66646   0.34058   0.56559
  38   33881.2    295.1   0.209741107   2.03798  -0.05048  -1.42428   0.08287
  39   33902.1    295.0   0.037475094   0.36391   0.15193  -0.58086   0.05852
  40   34025.2    293.9   0.078505009   0.75958   0.22492   0.71625   0.44269
  41   34363.1    291.0   0.009463715   0.09067  -0.11988  -0.23126   0.15105
  42   34694.0    288.2   0.043645321   0.41415   0.33006   0.54239   0.10497
  43   34839.6    287.0   0.028918580   0.27326   0.12085   0.42067   0.28583
  44   35113.9    284.8   0.013775084   0.12915  -0.17130   0.09956  -0.29982
  45   35666.1    280.4   0.024702917   0.22802   0.03165  -0.08923   0.46803
  46   35905.6    278.5   0.067146955   0.61566  -0.17429  -0.63298  -0.42967
  47   35961.2    278.1   0.001001287   0.00917  -0.07197   0.04339   0.04587
  48   36198.5    276.3   0.064453286   0.58618  -0.26533   0.62343   0.35653
  49   36346.3    275.1   0.037206248   0.33700   0.27821   0.49685   0.11288
  50   36389.6    274.8   0.058215767   0.52667   0.39248   0.60768  -0.05791
  51   36641.8    272.9   0.293137430   2.63373  -0.99715  -1.26541   0.19529
  52   36730.0    272.3   0.038755114   0.34736   0.51967   0.20689   0.18574
  53   36956.3    270.6   0.136683173   1.21759  -0.61878  -0.60580  -0.68389
  54   37804.8    264.5   0.012702108   0.11061  -0.02775  -0.33059   0.02350
  55   38077.5    262.6   0.006001011   0.05188   0.08539  -0.20899   0.03023
  56   38400.1    260.4   0.012084420   0.10360  -0.05750   0.31663   0.00649
  57   38693.9    258.4   0.000006661   0.00006  -0.00459   0.00568  -0.00185
  58   39254.6    254.7   0.049152848   0.41222   0.16608  -0.50663  -0.35772
  59   39335.1    254.2   0.008468825   0.07088  -0.06374   0.17900   0.18648
  60   39619.5    252.4   0.001063173   0.00883  -0.03616   0.07056   0.05048
  61   40141.0    249.1   0.011678038   0.09578   0.01260  -0.28095  -0.12916
  62   40196.6    248.8   0.092040994   0.75382  -0.31897  -0.57084  -0.57116
  63   40211.7    248.7   0.019973395   0.16352  -0.17766  -0.18866  -0.31043
  64   40315.9    248.0   0.017283490   0.14113  -0.01679  -0.15492  -0.34184

-----------------------------------------------------------------------------
         ABSORPTION SPECTRUM VIA TRANSITION VELOCITY DIPOLE MOMENTS
-----------------------------------------------------------------------------
State   Energy  Wavelength   fosc         P2         PX        PY        PZ  
        (cm-1)    (nm)                  (au**2)     (au)      (au)      (au) 
-----------------------------------------------------------------------------
   0   11475.4    871.4   0.234805233   0.01842  -0.03503  -0.12224  -0.04740
   1   12371.4    808.3   0.050536080   0.00427  -0.03492  -0.05522   0.00199
   2   14861.8    672.9   0.087596286   0.00890   0.01179  -0.08436   0.04051
   3   17777.5    562.5   0.252733711   0.03071   0.13288  -0.02822  -0.11069
   4   18584.9    538.1   0.039440726   0.00501   0.01317   0.05966   0.03574
   5   21336.8    468.7   0.001756506   0.00026   0.00098  -0.00441  -0.01535
   6   22009.4    454.4   0.001400178   0.00021   0.00077   0.01180  -0.00842
   7   22863.9    437.4   0.321867576   0.05030  -0.13404  -0.02199  -0.17846
   8   23660.2    422.7   0.541410249   0.08755   0.10705   0.20918   0.17981
   9   24247.6    412.4   0.232010147   0.03845   0.08434   0.15424   0.08686
  10   24504.2    408.1   0.519859378   0.08706  -0.09781  -0.27765  -0.02015
  11   24843.6    402.5   0.099480435   0.01689   0.11522  -0.01786  -0.05741
  12   24862.6    402.2   0.072459335   0.01231  -0.08174   0.03136   0.06817
  13   25339.1    394.6   0.025398058   0.00440  -0.04319  -0.01498  -0.04805
  14   25557.0    391.3   0.001587797   0.00028   0.00395   0.01415   0.00784
  15   25841.9    387.0   0.014030797   0.00248   0.04302   0.02014  -0.01489
  16   25899.5    386.1   0.803238657   0.14218  -0.12340  -0.33818  -0.11220
  17   26317.7    380.0   0.944426682   0.16987   0.28535  -0.09549  -0.28165
  18   26766.9    373.6   0.343186511   0.06278   0.11949  -0.17882  -0.12857
  19   26948.5    371.1   0.198785168   0.03661  -0.09858   0.10957   0.12202
  20   27071.6    369.4   0.019261725   0.00356   0.03234  -0.02036  -0.04586
  21   27518.0    363.4   0.359982499   0.06770  -0.04715  -0.23437  -0.10271
  22   27761.8    360.2   0.004177884   0.00079  -0.02425   0.01026  -0.00997
  23   27940.0    357.9   0.000317400   0.00006  -0.00575  -0.00345   0.00396
  24   28191.1    354.7   0.004088372   0.00079   0.00161   0.02798   0.00158
  25   29723.8    336.4   0.006730030   0.00137   0.00879  -0.02889  -0.02134
  26   30793.2    324.7   0.054316325   0.01143   0.06081   0.03569   0.08037
  27   30910.6    323.5   0.000729255   0.00015  -0.01078  -0.00353  -0.00503
  28   31058.0    322.0   0.076938489   0.01633  -0.08995  -0.05353   0.07332
  29   31064.4    321.9   0.003928646   0.00083   0.01444   0.01784  -0.01753
  30   31202.3    320.5   0.022703709   0.00484   0.02726   0.02654   0.05826
  31   31319.0    319.3   0.035724655   0.00765   0.02325   0.08089   0.02372
  32   31593.9    316.5   0.153165073   0.03307   0.11610  -0.13795  -0.02374
  33   32081.1    311.7   0.256261382   0.05619   0.07851   0.13745   0.17644
  34   32873.1    304.2   0.222312490   0.04995  -0.05794  -0.19007  -0.10230
  35   33062.8    302.5   0.036991895   0.00836   0.01456   0.08826   0.01889
  36   33234.6    300.9   0.146981393   0.03339   0.02615   0.17323   0.05189
  37   33785.5    296.0   0.076033524   0.01756  -0.09456   0.04867   0.07903
  38   33881.2    295.1   0.172810550   0.04002  -0.00866  -0.19935   0.01417
  39   33902.1    295.0   0.032883810   0.00762   0.02143  -0.08437   0.00643
  40   34025.2    293.9   0.073935427   0.01719   0.03530   0.10843   0.06473
  41   34363.1    291.0   0.008726244   0.00205  -0.02041  -0.03157   0.02522
  42   34694.0    288.2   0.037064231   0.00879   0.05097   0.07795   0.01071
  43   34839.6    287.0   0.025241858   0.00601   0.01697   0.06291   0.04200
  44   35113.9    284.8   0.012020997   0.00288  -0.02719   0.00777  -0.04566
  45   35666.1    280.4   0.021941988   0.00535   0.00096  -0.01172   0.07218
  46   35905.6    278.5   0.059092808   0.01450  -0.02468  -0.09896  -0.06403
  47   35961.2    278.1   0.001004462   0.00025  -0.01219   0.00751   0.00647
  48   36198.5    276.3   0.060357921   0.01493  -0.04193   0.09872   0.05855
  49   36346.3    275.1   0.028810916   0.00716   0.04253   0.07126   0.01641
  50   36389.6    274.8   0.045739664   0.01138   0.05885   0.08840  -0.00990
  51   36641.8    272.9   0.254452943   0.06372  -0.16019  -0.19143   0.03764
  52   36730.0    272.3   0.036898201   0.00926   0.08415   0.03432   0.03168
  53   36956.3    270.6   0.128113511   0.03236  -0.09962  -0.10116  -0.11047
  54   37804.8    264.5   0.010045091   0.00260  -0.00431  -0.05071   0.00226
  55   38077.5    262.6   0.006306636   0.00164   0.01479  -0.03762   0.00261
  56   38400.1    260.4   0.010055099   0.00264  -0.01119   0.05010   0.00202
  57   38693.9    258.4   0.000005049   0.00000  -0.00088   0.00072  -0.00020
  58   39254.6    254.7   0.043665256   0.01171   0.02778  -0.08728  -0.05767
  59   39335.1    254.2   0.007489356   0.00201  -0.01054   0.03167   0.02998
  60   39619.5    252.4   0.000867825   0.00023  -0.01035   0.00747   0.00848
  61   40141.0    249.1   0.010091071   0.00277   0.00261  -0.04750  -0.02249
  62   40196.6    248.8   0.076430221   0.02100  -0.05131  -0.09896  -0.09258
  63   40211.7    248.7   0.016586506   0.00456  -0.02885  -0.03351  -0.05102
  64   40315.9    248.0   0.013618300   0.00375  -0.00134  -0.02591  -0.05549

-------------------------------------------------------------------
                             CD SPECTRUM
-------------------------------------------------------------------
State   Energy Wavelength       R         MX        MY        MZ   
        (cm-1)   (nm)       (1e40*cgs)   (au)      (au)      (au)  
-------------------------------------------------------------------
   0   11475.4    871.4     72.01143   0.09920  -0.53048   1.61481
   1   12371.4    808.3      8.17449   0.20318  -0.10145   1.31397
   2   14861.8    672.9    -77.72269  -0.01184   0.32473   1.25198
   3   17777.5    562.5    -13.26442  -2.58185  -0.40688  -3.08613
   4   18584.9    538.1     11.76145   0.07149   0.35791  -0.60944
   5   21336.8    468.7      7.91685   0.22511   0.05043   0.21958
   6   22009.4    454.4     -9.00195   0.06056   0.16053  -0.26598
   7   22863.9    437.4    -106.74581   1.51217  -1.48069  -1.22699
   8   23660.2    422.7    -134.28151  -0.87354   1.58705  -1.03744
   9   24247.6    412.4    238.31980  -1.06218   0.97443  -2.11828
  10   24504.2    408.1     46.14579   0.85348  -0.55000   5.00489
  11   24843.6    402.5    173.17200  -1.77550  -0.06147  -2.07047
  12   24862.6    402.2    -75.98046   1.41620   0.18392   2.05679
  13   25339.1    394.6     37.12997   1.15229  -0.35217  -0.63701
  14   25557.0    391.3      1.06210   0.02780  -0.00406  -0.07873
  15   25841.9    387.0      4.79195  -0.44670  -0.04914  -1.11280
  16   25899.5    386.1    258.12006   0.43391  -1.37821   4.83451
  17   26317.7    380.0    -600.27527  -5.55421  -1.40134  -6.25224
  18   26766.9    373.6     68.65228  -3.10547  -0.53391  -1.80660
  19   26948.5    371.1    -29.76235   2.35577   0.34635   1.63094
  20   27071.6    369.4    -47.01431  -1.89681  -0.07938  -1.74458
  21   27518.0    363.4     70.84754   0.46220  -1.32155   3.26654
  22   27761.8    360.2     -1.21210  -0.16404  -0.05725   0.36998
  23   27940.0    357.9      0.13904   0.29088  -0.04460   0.31378
  24   28191.1    354.7     -1.27581  -0.08364   0.04264  -0.32385
  25   29723.8    336.4     -2.52206   0.00961  -0.11380   0.10396
  26   30793.2    324.7     20.03738  -0.69860   0.64652   0.07053
  27   30910.6    323.5      7.76073   0.38900  -0.51373   0.32407
  28   31058.0    322.0    -105.13598   1.89494   0.01798   3.27041
  29   31064.4    321.9     -2.42580  -0.25960  -0.58013  -1.01201
  30   31202.3    320.5    -33.13851   0.08741   0.51547   0.10632
  31   31319.0    319.3     24.67457  -0.25165   0.31491  -1.21769
  32   31593.9    316.5    333.33439  -1.64492   0.03430  -0.01523
  33   32081.1    311.7    -232.83608  -0.53240   1.56514  -0.18664
  34   32873.1    304.2     67.07147   0.35107  -0.99734   1.92911
  35   33062.8    302.5     14.81083  -0.37173   0.16358  -0.98017
  36   33234.6    300.9     21.20162  -0.34447   0.59051  -1.96691
  37   33785.5    296.0     52.16423   2.04242   0.26122   1.85813
  38   33881.2    295.1    -63.97616   0.65154  -0.05592   2.71108
  39   33902.1    295.0     16.92307   0.00489   0.13793   0.12955
  40   34025.2    293.9     28.42968   0.25017   0.60521  -1.37872
  41   34363.1    291.0    -20.14955   0.37781   0.12870   1.06279
  42   34694.0    288.2     26.81846  -0.23169   0.26096  -1.70367
  43   34839.6    287.0     -6.23651  -0.14994   0.26053  -0.22748
  44   35113.9    284.8    -42.35407   0.31133  -0.22999  -0.85352
  45   35666.1    280.4    -136.74546  -0.04804   0.58560   1.35437
  46   35905.6    278.5      2.94462  -0.17082  -0.64696   1.05144
  47   35961.2    278.1     -6.48706  -0.14303   0.09589   0.28485
  48   36198.5    276.3    -66.27269  -0.05599   0.38646   0.07113
  49   36346.3    275.1     38.68826  -0.65008   0.32654  -1.28904
  50   36389.6    274.8     -0.86059  -0.93879   0.34642  -2.79033
  51   36641.8    272.9    -18.93579   0.81580   0.02291   4.72515
  52   36730.0    272.3    143.31885  -1.15905   0.27612  -0.33809
  53   36956.3    270.6     96.06364   0.62518  -1.07451   0.98205
  54   37804.8    264.5     -1.12185   0.14858   0.01925   0.64874
  55   38077.5    262.6      0.58473   0.18810   0.11687   0.19459
  56   38400.1    260.4     -0.50268  -0.11949  -0.00678  -0.39935
  57   38693.9    258.4      0.13137   0.03209  -0.06065   0.03558
  58   39254.6    254.7     -7.88573  -0.25808  -0.61919   0.66361
  59   39335.1    254.2     -0.56047   0.16723   0.31387  -0.23137
  60   39619.5    252.4     -2.00333  -0.17165   0.16035  -0.17874
  61   40141.0    249.1     -5.66012   0.01769  -0.19033   0.22984
  62   40196.6    248.8    -11.97787   0.10205  -1.07310   0.92655
  63   40211.7    248.7     20.10488   0.02918  -0.20472   0.38247
  64   40315.9    248.0     -1.80756  -0.08012  -0.44618   0.18371

sTD-DFT done

Total run time:        3.023 sec

           *** ORCA-CIS/TD-DFT FINISHED WITHOUT ERROR ***

-------------------------   --------------------
FINAL SINGLE POINT ENERGY     -3853.156690501255
-------------------------   --------------------


                            ***************************************
                            *     ORCA property calculations      *
                            ***************************************

                                    ---------------------
                                    Active property flags
                                    ---------------------
   (+) Dipole Moment


------------------------------------------------------------------------------
                       ORCA ELECTRIC PROPERTIES CALCULATION
------------------------------------------------------------------------------

Dipole Moment Calculation                       ... on
Quadrupole Moment Calculation                   ... off
Polarizability Calculation                      ... off
GBWName                                         ... xtbopt.gbw
Electron density file                           ... xtbopt.scfp
The origin for moment calculation is the CENTER OF MASS  = ( 9.878620, -11.467358 -3.852181)

-------------
DIPOLE MOMENT
-------------
                                X             Y             Z
Electronic contribution:      2.27772     -29.29245     -34.50992
Nuclear contribution   :     -2.66785      29.24556      36.20147
                        -----------------------------------------
Total Dipole Moment    :     -0.39014      -0.04689       1.69155
                        -----------------------------------------
Magnitude (a.u.)       :      1.73659
Magnitude (Debye)      :      4.41406



--------------------
Rotational spectrum 
--------------------
 
Rotational constants in cm-1:     0.001330     0.000253     0.000249 
Rotational constants in MHz :    39.884502     7.573892     7.450841 

 Dipole components along the rotational axes: 
x,y,z [a.u.] :     0.421974     1.214814     1.167006 
x,y,z [Debye]:     1.072573     3.087811     2.966293 

 

Timings for individual modules:

Sum of individual times         ...      503.450 sec (=   8.391 min)
GTO integral calculation        ...        2.703 sec (=   0.045 min)   0.5 %
SCF iterations                  ...      497.015 sec (=   8.284 min)  98.7 %
CIS module                      ...        3.732 sec (=   0.062 min)   0.7 %
                             ****ORCA TERMINATED NORMALLY****
TOTAL RUN TIME: 0 days 0 hours 8 minutes 24 seconds 396 msec
