      -----------------------------------------------------------      
     |                   =====================                   |     
     |                           x T B                           |     
     |                   =====================                   |     
     |                         S. Grimme                         |     
     |          Mulliken Center for Theoretical Chemistry        |     
     |                    University of Bonn                     |     
     |                Version 6.2 RC2 (SAW190805)                |     
      -----------------------------------------------------------      

   This program is distributed in the hope that it will be useful,
   but WITHOUT ANY WARRANTY; without even the implied warranty of
   MERCHANTABILITY or FITNESS FOR A PARTICULAR PURPOSE.
   
   FOR NON-COMMERCIAL, ACADEMIA USE ONLY.
   
   Cite this work as:
   * S. Grimme, C. Bannwarth, P. Shushkov, J. Chem. Theory Comput., 2017,
     13, 1989-2009. DOI: 10.1021/acs.jctc.7b00118
   * C. Bannwarth, S. Ehlert and S. Grimme., J. Chem. Theory Comput., 2019,
     15, 1652-1671. DOI: 10.1021/acs.jctc.8b01176
   * P. Pracht, E. Caldeweyher, S. Ehlert, S. Grimme, ChemRxiv, 2019, preprint.
     DOI: 10.26434/chemrxiv.8326202.v1
   
   for DFT-D4:
   * E. Caldeweyher, C. Bannwarth and S. Grimme, J. Chem. Phys., 2017,
     147, 034112. DOI: 10.1063/1.4993215
   * E. Caldeweyher, S. Ehlert, A. Hansen, H. Neugebauer, S. Spicher,
     C. Bannwarth and S. Grimme, J. Chem. Phys., 2019, 150, 154122.
     DOI: 10.1063/1.5090222
   
   for sTDA-xTB:
   * S. Grimme and C. Bannwarth, J. Chem. Phys., 2016, 145, 054103.
     DOI: 10.1063/1.4959605
   
   in the mass-spec context:
   * V. Asgeirsson, C. Bauer and S. Grimme, Chem. Sci., 2017, 8, 4879.
     DOI: 10.1039/c7sc00601b
   
   for metadynamics refer to:
   * S. Grimme, J. Chem. Theory Comput., 2019, 155, 2847-2862
     DOI: 10.1021/acs.jctc.9b00143
   
   with help from (in alphabetical order)
   C. Bannwarth, F. Bohle, G. Brandenburg, E. Caldeweyher, M. Checinski,
   S. Dohm, S. Ehlert, S. Ehrlich, F. März, H. Neugebauer, J. Pisarek,
   P. Pracht, P. Shushkov, and S. Spicher.
   
 * started run on 2021/09/14 at 20:14:20.861     

           -------------------------------------------------
          |                Calculation Setup                |
           -------------------------------------------------

          program call               : /ihome/ghutchison/geoffh/xtb/xtb /ihome/ghutchison/blp62/GA/running_GA/v5/generations/49/255_66_580_189_255_13051.xyz -opt
          hostname                   : smp-n180
          coordinate file            : /ihome/ghutchison/blp62/GA/running_GA/v5/generations/49/255_66_580_189_255_13051.xyz
          omp threads                :                    12
          number of atoms            :                    91
          number of electrons        :                   330
          charge                     :                     0
          spin                       :                   0.0
          first test random number   :      0.69622553707062


########################################################################
# WARNING! Please study the warnings concerning your input carefully
#  - XTBPATH is not set, using XTBHOME instead
#  - the use of '-opt' is discouraged, please use '--opt' next time
########################################################################

           ------------------------------------------------- 
          |                 G F N 2 - x T B                 |
          | Geometry, Frequencies, Noncovalent interactions |
          |            JCTC 2019 parametrisation            |
           ------------------------------------------------- 
             KAB for C  - Si     :                1.0500
             KAB for H  - Pd     :                0.9500
             k(s)              :                1.8500
             k(p)              :                2.2300
             k(d)              :                2.2300
             k(f)              :                2.0000
             kEN (H0ij)        :               -2.0000
             D4 a1             :                0.5200
             D4 a2             :                5.0000
             D4 s6             :                1.0000
             D4 s8             :                2.7000
             D4 s9             :                5.0000
             alphaj            :                2.0000

  Z AO/shell   Hii/eV     exponent
  1     Wed Apr 25 08:07:45 CEST 2018   EN: 2.200 GM2: 0.406  GM3: 0.0800  RAES: 1.40
     1s    -10.707211    1.230000
  6     Wed Apr 25 08:07:45 CEST 2018   EN: 2.550 GM2: 0.538  GM3: 0.1500  RAES: 3.00
     2s    -13.970922    2.096432
     2p    -10.063292    1.800000
  7     Wed Apr 25 08:07:45 CEST 2018   EN: 3.040 GM2: 0.461  GM3:-0.0640  RAES: 1.90
     2s    -16.686243    2.339881
     2p    -12.523956    2.014332
  8     Wed Apr 25 08:07:45 CEST 2018   EN: 3.440 GM2: 0.452  GM3:-0.0517  RAES: 1.80
     2s    -20.229985    2.439742
     2p    -15.503117    2.137023
 35     Tue Apr 24 12:21:41 CEST 2018   EN: 2.960 GM2: 0.261  GM3: 0.1300  RAES: 4.00
     4s    -23.583718    2.077587
     4p    -12.588824    2.263120
     4d      0.047980    1.845038

           ------------------------------------------------- 
          |        Self-Consistent Charge Iterations        |
           ------------------------------------------------- 

          ...................................................
          :                      SETUP                      :
          :.................................................:
          :  # basis functions                 319          :
          :  # atomic orbitals                 315          :
          :  # shells                          163          :
          :  # electrons                       330          :
          :  max. iterations                   250          :
          :  Hamiltonian                  GFN2-xTB          :
          :  restarted?                      false          :
          :  GBSA solvation                  false          :
          :  PC potential                    false          :
          :  electronic temp.          300.0000000     K    :
          :  accuracy                    1.0000000          :
          :  -> integral cutoff          0.2500000E+02      :
          :  -> integral neglect         0.1000000E-07      :
          :  -> SCF convergence          0.1000000E-05 Eh   :
          :  -> wf. convergence          0.1000000E-03 e    :
          :  Broyden damping             0.4000000          :
          ...................................................

 iter      E             dE          RMSdq      gap      omega  full diag
   1   -187.3463472 -0.187346E+03  0.574E+00    1.60       0.0  T
   2   -187.6240803 -0.277733E+00  0.362E+00    1.21       1.0  T
   3   -187.5501149  0.739653E-01  0.232E+00    0.88       1.0  T
   4   -187.7735640 -0.223449E+00  0.105E+00    1.00       1.0  T
   5   -187.8502030 -0.766391E-01  0.305E-01    0.73       1.0  T
   6   -187.8535718 -0.336874E-02  0.176E-01    0.84       1.0  T
   7   -187.8543204 -0.748599E-03  0.964E-02    0.83       1.0  T
   8   -187.8545736 -0.253221E-03  0.590E-02    0.84       1.0  T
   9   -187.8546214 -0.478034E-04  0.430E-02    0.83       1.0  T
  10   -187.8546462 -0.247519E-04  0.253E-02    0.83       1.0  T
  11   -187.8546674 -0.212336E-04  0.122E-02    0.83       1.0  T
  12   -187.8546719 -0.453388E-05  0.667E-03    0.83       1.6  T
  13   -187.8546731 -0.112678E-05  0.373E-03    0.83       2.8  T
  14   -187.8546736 -0.563602E-06  0.179E-03    0.83       5.9  T
  15   -187.8546738 -0.151117E-06  0.833E-04    0.83      12.6  T
  16   -187.8546738 -0.111444E-07  0.637E-04    0.83      16.5  T

   *** convergence criteria satisfied after 16 iterations ***

         #    Occupation            Energy/Eh            Energy/eV
      -------------------------------------------------------------
         1        2.0000           -0.8774278             -23.8760
       ...           ...                  ...                  ...
       159        2.0000           -0.4297307             -11.6936
       160        2.0000           -0.4289515             -11.6724
       161        2.0000           -0.4278113             -11.6413
       162        2.0000           -0.4231993             -11.5158
       163        2.0000           -0.4134684             -11.2510
       164        2.0000           -0.4010877             -10.9142
       165        2.0000           -0.3946509             -10.7390 (HOMO)
       166        0.0000           -0.3641607              -9.9093 (LUMO)
       167                         -0.3557792              -9.6812
       168                         -0.3543218              -9.6416
       169                         -0.3454701              -9.4007
       170                         -0.3437220              -9.3532
       ...                                ...                  ...
       315                          1.0692412              29.0955
      -------------------------------------------------------------
                  HL-Gap            0.0304902 Eh            0.8297 eV
             Fermi-level           -0.3794054 Eh          -10.3241 eV

 SCC (total)                   0 d,  0 h,  0 min,  0.530 sec
 SCC setup                      ...        0 min,  0.002 sec (  0.393%)
 Dispersion                     ...        0 min,  0.003 sec (  0.649%)
 integral evaluation            ...        0 min,  0.029 sec (  5.462%)
 zeroth order Hamiltonian       ...        0 min,  0.001 sec (  0.192%)
 iterations                     ...        0 min,  0.465 sec ( 87.809%)
 molecular gradient             ...        0 min,  0.027 sec (  5.064%)
 printout                       ...        0 min,  0.002 sec (  0.405%)

         :::::::::::::::::::::::::::::::::::::::::::::::::::::
         ::                     SUMMARY                     ::
         :::::::::::::::::::::::::::::::::::::::::::::::::::::
         :: total energy            -185.283023229400 Eh    ::
         :: gradient norm              0.168251576312 Eh/a0 ::
         :: HOMO-LUMO gap              0.829679532336 eV    ::
         ::.................................................::
         :: SCC energy              -187.854673783082 Eh    ::
         :: -> isotropic ES            0.230629772060 Eh    ::
         :: -> anisotropic ES          0.015852853513 Eh    ::
         :: -> anisotropic XC          0.120510892501 Eh    ::
         :: -> dispersion             -0.134052006649 Eh    ::
         :: repulsion energy           2.572016493470 Eh    ::
         :: add. restraining           0.000000000000 Eh    ::
         :::::::::::::::::::::::::::::::::::::::::::::::::::::

      ----------------------------------------------------------- 
     |                   =====================                   |
     |                        A N C O P T                        |
     |                   =====================                   |
     |               Approximate Normal Coordinate               |
     |                Rational Function Optimizer                |
      ----------------------------------------------------------- 

          ...................................................
          :                      SETUP                      :
          :.................................................:
          :   optimization level            normal          :
          :   max. optcycles                   273          :
          :   ANC micro-cycles                  20          :
          :   degrees of freedom               267          :
          :.................................................:
          :   RF solver                   davidson          :
          :   input Hessian                  false          :
          :   write xtbopt.log                true          :
          :   linear?                        false          :
          :   energy convergence         0.5000000E-05 Eh   :
          :   grad. convergence          0.1000000E-02 Eh/α :
          :   maximium RF displ.         2.0000000          :
          :   Hlow (freq-cutoff)         0.5000000E-02      :
          :   Hmax (freq-cutoff)         5.0000000          :
          :   S6 in model hess.         20.0000000          :
          ...................................................

generating ANC from model Hessian ...
Using Lindh-Hessian (1995)
 Shifting diagonal of input Hessian by   5.062055101005500E-003
 Lowest  eigenvalues of input Hessian
    0.005000   -0.000000   -0.000000   -0.000000   -0.000000   -0.000000
    0.000000    0.005074    0.005091    0.005117    0.005137    0.005157
    0.005228    0.005336    0.005421    0.005579    0.005838    0.005909
 Highest eigenvalues
    2.398839    2.495203    2.507254    2.512154    2.568048    2.574575
 

........................................................................
.............................. CYCLE    1 ..............................
........................................................................
   1   -187.8546738 -0.187855E+03  0.427E-04    0.83       0.0  T
   2   -187.8546738 -0.107519E-09  0.386E-04    0.83      27.2  T
   3   -187.8546738 -0.387351E-08  0.315E-04    0.83      33.3  T
     SCC iter.                  ...        0 min,  0.087 sec
     gradient                   ...        0 min,  0.031 sec
 * total energy  :  -185.2830233 Eh     change       -0.4333262E-07 Eh
   gradient norm :     0.1682494 Eh/α   predicted     0.0000000E+00 (-100.00%)
   displ. norm   :     0.4302872 α      lambda       -0.3466622E-01
   maximum displ.:     0.0993836 α      in ANC's #55, #124, #49, ...

........................................................................
.............................. CYCLE    2 ..............................
........................................................................
   1   -187.9640006 -0.187964E+03  0.347E-01    0.77       0.0  T
   2   -187.9645085 -0.507875E-03  0.173E-01    0.78       1.0  T
   3   -187.9642948  0.213735E-03  0.730E-02    0.78       1.0  T
   4   -187.9645642 -0.269393E-03  0.337E-02    0.78       1.0  T
   5   -187.9646110 -0.467911E-04  0.180E-02    0.78       1.0  T
   6   -187.9646177 -0.671299E-05  0.109E-02    0.78       1.0  T
   7   -187.9646215 -0.381471E-05  0.665E-03    0.78       1.6  T
   8   -187.9646222 -0.729771E-06  0.491E-03    0.78       2.1  T
   9   -187.9646223 -0.431003E-07  0.333E-03    0.78       3.1  T
     SCC iter.                  ...        0 min,  0.243 sec
     gradient                   ...        0 min,  0.023 sec
 * total energy  :  -185.3066220 Eh     change       -0.2359872E-01 Eh
   gradient norm :     0.0678840 Eh/α   predicted    -0.2054239E-01 ( -12.95%)
   displ. norm   :     0.4879942 α      lambda       -0.1313385E-01
   maximum displ.:     0.1396278 α      in ANC's #41, #20, #56, ...

........................................................................
.............................. CYCLE    3 ..............................
........................................................................
   1   -187.9969005 -0.187997E+03  0.280E-01    0.72       0.0  T
   2   -187.9971595 -0.258981E-03  0.146E-01    0.74       1.0  T
   3   -187.9969797  0.179767E-03  0.634E-02    0.73       1.0  T
   4   -187.9971983 -0.218519E-03  0.269E-02    0.74       1.0  T
   5   -187.9972248 -0.265266E-04  0.151E-02    0.74       1.0  T
   6   -187.9972312 -0.637163E-05  0.899E-03    0.74       1.2  T
   7   -187.9972338 -0.265677E-05  0.558E-03    0.74       1.9  T
   8   -187.9972342 -0.411594E-06  0.430E-03    0.74       2.4  T
     SCC iter.                  ...        0 min,  0.235 sec
     gradient                   ...        0 min,  0.026 sec
 * total energy  :  -185.3151623 Eh     change       -0.8540300E-02 Eh
   gradient norm :     0.0280778 Eh/α   predicted    -0.8130777E-02 (  -4.80%)
   displ. norm   :     0.6044115 α      lambda       -0.7156885E-02
   maximum displ.:     0.1936366 α      in ANC's #20, #41, #32, ...

........................................................................
.............................. CYCLE    4 ..............................
........................................................................
   1   -187.9930493 -0.187993E+03  0.339E-01    0.68       0.0  T
   2   -187.9932054 -0.156082E-03  0.187E-01    0.73       1.0  T
   3   -187.9925745  0.630974E-03  0.883E-02    0.70       1.0  T
   4   -187.9933007 -0.726201E-03  0.221E-02    0.73       1.0  T
   5   -187.9933192 -0.185751E-04  0.129E-02    0.73       1.0  T
   6   -187.9933251 -0.584196E-05  0.704E-03    0.73       1.5  T
   7   -187.9933272 -0.217745E-05  0.428E-03    0.72       2.5  T
   8   -187.9933276 -0.360659E-06  0.322E-03    0.72       3.3  T
     SCC iter.                  ...        0 min,  0.211 sec
     gradient                   ...        0 min,  0.030 sec
 * total energy  :  -185.3170089 Eh     change       -0.1846648E-02 Eh
   gradient norm :     0.0493690 Eh/α   predicted    -0.4885702E-02 ( 164.57%)
   displ. norm   :     0.5314453 α      lambda       -0.9346060E-02
   maximum displ.:     0.1686046 α      in ANC's #1, #21, #27, ...

........................................................................
.............................. CYCLE    5 ..............................
........................................................................
   1   -187.9982862 -0.187998E+03  0.343E-01    0.70       0.0  T
   2   -187.9984146 -0.128434E-03  0.190E-01    0.74       1.0  T
   3   -187.9979790  0.435588E-03  0.746E-02    0.71       1.0  T
   4   -187.9984951 -0.516024E-03  0.163E-02    0.74       1.0  T
   5   -187.9985041 -0.905607E-05  0.100E-02    0.73       1.0  T
   6   -187.9985084 -0.423705E-05  0.529E-03    0.73       2.0  T
   7   -187.9985100 -0.164861E-05  0.283E-03    0.73       3.7  T
     SCC iter.                  ...        0 min,  0.203 sec
     gradient                   ...        0 min,  0.030 sec
 * total energy  :  -185.3211488 Eh     change       -0.4139846E-02 Eh
   gradient norm :     0.0342991 Eh/α   predicted    -0.5992848E-02 (  44.76%)
   displ. norm   :     0.4630336 α      lambda       -0.5695846E-02
   maximum displ.:     0.1568586 α      in ANC's #20, #30, #15, ...

........................................................................
.............................. CYCLE    6 ..............................
........................................................................
   1   -187.9829545 -0.187983E+03  0.330E-01    0.71       0.0  T
   2   -187.9830956 -0.141106E-03  0.186E-01    0.75       1.0  T
   3   -187.9825428  0.552829E-03  0.809E-02    0.72       1.0  T
   4   -187.9831803 -0.637537E-03  0.175E-02    0.75       1.0  T
   5   -187.9831955 -0.152253E-04  0.978E-03    0.74       1.1  T
   6   -187.9831984 -0.281892E-05  0.554E-03    0.74       1.9  T
   7   -187.9831995 -0.109025E-05  0.296E-03    0.74       3.5  T
     SCC iter.                  ...        0 min,  0.299 sec
     gradient                   ...        0 min,  0.031 sec
 * total energy  :  -185.3219574 Eh     change       -0.8086351E-03 Eh
   gradient norm :     0.0486595 Eh/α   predicted    -0.3458523E-02 ( 327.70%)
   displ. norm   :     0.3642811 α      lambda       -0.5767785E-02
   maximum displ.:     0.1323874 α      in ANC's #20, #35, #27, ...

........................................................................
.............................. CYCLE    7 ..............................
........................................................................
   1   -187.9942094 -0.187994E+03  0.213E-01    0.73       0.0  T
   2   -187.9942766 -0.672440E-04  0.119E-01    0.76       1.0  T
   3   -187.9940707  0.205891E-03  0.461E-02    0.74       1.0  T
   4   -187.9943039 -0.233199E-03  0.126E-02    0.76       1.0  T
   5   -187.9943154 -0.114765E-04  0.611E-03    0.76       1.7  T
   6   -187.9943168 -0.142813E-05  0.343E-03    0.76       3.1  T
   7   -187.9943174 -0.618163E-06  0.170E-03    0.76       6.2  T
     SCC iter.                  ...        0 min,  0.209 sec
     gradient                   ...        0 min,  0.029 sec
 * total energy  :  -185.3251944 Eh     change       -0.3236970E-02 Eh
   gradient norm :     0.0241511 Eh/α   predicted    -0.3266589E-02 (   0.92%)
   displ. norm   :     0.5216370 α      lambda       -0.4616061E-02
   maximum displ.:     0.1803458 α      in ANC's #27, #20, #31, ...

........................................................................
.............................. CYCLE    8 ..............................
........................................................................
   1   -187.9921378 -0.187992E+03  0.287E-01    0.73       0.0  T
   2   -187.9922299 -0.921243E-04  0.165E-01    0.77       1.0  T
   3   -187.9914195  0.810398E-03  0.918E-02    0.73       1.0  T
   4   -187.9923045 -0.884985E-03  0.209E-02    0.77       1.0  T
   5   -187.9923381 -0.335550E-04  0.948E-03    0.77       1.1  T
   6   -187.9923394 -0.132818E-05  0.591E-03    0.76       1.8  T
   7   -187.9923420 -0.254966E-05  0.250E-03    0.76       4.2  T
     SCC iter.                  ...        0 min,  0.223 sec
     gradient                   ...        0 min,  0.030 sec
 * total energy  :  -185.3256126 Eh     change       -0.4181756E-03 Eh
   gradient norm :     0.0421854 Eh/α   predicted    -0.2936054E-02 ( 602.11%)
   displ. norm   :     0.3593835 α      lambda       -0.4497485E-02
   maximum displ.:     0.1446445 α      in ANC's #20, #17, #15, ...

........................................................................
.............................. CYCLE    9 ..............................
........................................................................
   1   -187.9931972 -0.187993E+03  0.197E-01    0.75       0.0  T
   2   -187.9932413 -0.441335E-04  0.113E-01    0.77       1.0  T
   3   -187.9930897  0.151578E-03  0.412E-02    0.76       1.0  T
   4   -187.9932618 -0.172118E-03  0.125E-02    0.77       1.0  T
   5   -187.9932709 -0.907807E-05  0.671E-03    0.77       1.6  T
   6   -187.9932719 -0.950554E-06  0.401E-03    0.77       2.6  T
   7   -187.9932730 -0.116680E-05  0.171E-03    0.77       6.1  T
     SCC iter.                  ...        0 min,  0.243 sec
     gradient                   ...        0 min,  0.026 sec
 * total energy  :  -185.3285248 Eh     change       -0.2912188E-02 Eh
   gradient norm :     0.0190908 Eh/α   predicted    -0.2539186E-02 ( -12.81%)
   displ. norm   :     0.5096147 α      lambda       -0.2884044E-02
   maximum displ.:     0.1971866 α      in ANC's #20, #17, #14, ...

........................................................................
.............................. CYCLE   10 ..............................
........................................................................
   1   -187.9868348 -0.187987E+03  0.243E-01    0.75       0.0  T
   2   -187.9869048 -0.700179E-04  0.135E-01    0.78       1.0  T
   3   -187.9865090  0.395811E-03  0.624E-02    0.75       1.0  T
   4   -187.9869490 -0.439997E-03  0.149E-02    0.77       1.0  T
   5   -187.9869610 -0.120225E-04  0.880E-03    0.77       1.2  T
   6   -187.9869649 -0.393396E-05  0.431E-03    0.77       2.4  T
   7   -187.9869659 -0.973220E-06  0.232E-03    0.77       4.5  T
   8   -187.9869660 -0.120923E-06  0.166E-03    0.77       6.3  T
     SCC iter.                  ...        0 min,  0.258 sec
     gradient                   ...        0 min,  0.027 sec
 * total energy  :  -185.3296527 Eh     change       -0.1127908E-02 Eh
   gradient norm :     0.0490980 Eh/α   predicted    -0.1816526E-02 (  61.05%)
   displ. norm   :     0.4953437 α      lambda       -0.3631069E-02
   maximum displ.:     0.1804455 α      in ANC's #17, #27, #20, ...

........................................................................
.............................. CYCLE   11 ..............................
........................................................................
   1   -188.0010590 -0.188001E+03  0.214E-01    0.76       0.0  T
   2   -188.0011035 -0.445693E-04  0.120E-01    0.78       1.0  T
   3   -188.0009071  0.196446E-03  0.449E-02    0.76       1.0  T
   4   -188.0011260 -0.218886E-03  0.127E-02    0.78       1.0  T
   5   -188.0011306 -0.458780E-05  0.840E-03    0.78       1.2  T
   6   -188.0011348 -0.427919E-05  0.379E-03    0.78       2.8  T
   7   -188.0011356 -0.725237E-06  0.227E-03    0.77       4.6  T
     SCC iter.                  ...        0 min,  0.212 sec
     gradient                   ...        0 min,  0.030 sec
 * total energy  :  -185.3315585 Eh     change       -0.1905800E-02 Eh
   gradient norm :     0.0284179 Eh/α   predicted    -0.2261004E-02 (  18.64%)
   displ. norm   :     0.5474111 α      lambda       -0.2758440E-02
   maximum displ.:     0.1706614 α      in ANC's #17, #42, #20, ...

........................................................................
.............................. CYCLE   12 ..............................
........................................................................
   1   -187.9969175 -0.187997E+03  0.200E-01    0.75       0.0  T
   2   -187.9969553 -0.377458E-04  0.113E-01    0.77       1.0  T
   3   -187.9967066  0.248734E-03  0.502E-02    0.75       1.0  T
   4   -187.9969754 -0.268827E-03  0.141E-02    0.77       1.0  T
   5   -187.9969854 -0.997088E-05  0.822E-03    0.77       1.3  T
   6   -187.9969887 -0.338578E-05  0.414E-03    0.77       2.5  T
   7   -187.9969898 -0.110537E-05  0.238E-03    0.77       4.4  T
     SCC iter.                  ...        0 min,  0.381 sec
     gradient                   ...        0 min,  0.021 sec
 * total energy  :  -185.3329983 Eh     change       -0.1439859E-02 Eh
   gradient norm :     0.0260247 Eh/α   predicted    -0.1792513E-02 (  24.49%)
   displ. norm   :     0.4451917 α      lambda       -0.2430144E-02
   maximum displ.:     0.1811242 α      in ANC's #17, #14, #20, ...

........................................................................
.............................. CYCLE   13 ..............................
........................................................................
   1   -188.0066635 -0.188007E+03  0.148E-01    0.77       0.0  T
   2   -188.0066911 -0.275727E-04  0.830E-02    0.77       1.0  T
   3   -188.0066150  0.760904E-04  0.334E-02    0.77       1.0  T
   4   -188.0067006 -0.856209E-04  0.103E-02    0.77       1.0  T
   5   -188.0067045 -0.387252E-05  0.593E-03    0.77       1.8  T
   6   -188.0067057 -0.121872E-05  0.388E-03    0.77       2.7  T
     SCC iter.                  ...        0 min,  0.159 sec
     gradient                   ...        0 min,  0.019 sec
 * total energy  :  -185.3343817 Eh     change       -0.1383399E-02 Eh
   gradient norm :     0.0197267 Eh/α   predicted    -0.1455898E-02 (   5.24%)
   displ. norm   :     0.6101082 α      lambda       -0.2491350E-02
   maximum displ.:     0.2235131 α      in ANC's #17, #14, #20, ...

........................................................................
.............................. CYCLE   14 ..............................
........................................................................
   1   -187.9978662 -0.187998E+03  0.227E-01    0.75       0.0  T
   2   -187.9979047 -0.385179E-04  0.125E-01    0.76       1.0  T
   3   -187.9976984  0.206268E-03  0.493E-02    0.75       1.0  T
   4   -187.9979237 -0.225249E-03  0.151E-02    0.76       1.0  T
   5   -187.9979293 -0.564594E-05  0.103E-02    0.76       1.0  T
   6   -187.9979365 -0.716219E-05  0.476E-03    0.76       2.2  T
   7   -187.9979379 -0.138192E-05  0.279E-03    0.76       3.8  T
   8   -187.9979380 -0.137040E-06  0.210E-03    0.76       5.0  T
     SCC iter.                  ...        0 min,  0.279 sec
     gradient                   ...        0 min,  0.020 sec
 * total energy  :  -185.3357200 Eh     change       -0.1338278E-02 Eh
   gradient norm :     0.0230873 Eh/α   predicted    -0.1709366E-02 (  27.73%)
   displ. norm   :     0.4896477 α      lambda       -0.1552945E-02
   maximum displ.:     0.1899641 α      in ANC's #17, #14, #12, ...

........................................................................
.............................. CYCLE   15 ..............................
........................................................................
   1   -188.0054638 -0.188005E+03  0.193E-01    0.75       0.0  T
   2   -188.0054873 -0.234624E-04  0.107E-01    0.76       1.0  T
   3   -188.0051555  0.331788E-03  0.583E-02    0.76       1.0  T
   4   -188.0055124 -0.356885E-03  0.126E-02    0.75       1.0  T
   5   -188.0055183 -0.593429E-05  0.852E-03    0.76       1.2  T
   6   -188.0055233 -0.498372E-05  0.364E-03    0.76       2.9  T
   7   -188.0055239 -0.614107E-06  0.226E-03    0.76       4.6  T
     SCC iter.                  ...        0 min,  0.211 sec
     gradient                   ...        0 min,  0.030 sec
 * total energy  :  -185.3365577 Eh     change       -0.8377212E-03 Eh
   gradient norm :     0.0189842 Eh/α   predicted    -0.9626420E-03 (  14.91%)
   displ. norm   :     0.4747961 α      lambda       -0.1370212E-02
   maximum displ.:     0.1792240 α      in ANC's #17, #11, #14, ...

........................................................................
.............................. CYCLE   16 ..............................
........................................................................
   1   -188.0083092 -0.188008E+03  0.157E-01    0.75       0.0  T
   2   -188.0083219 -0.126883E-04  0.873E-02    0.75       1.0  T
   3   -188.0080867  0.235154E-03  0.456E-02    0.76       1.0  T
   4   -188.0083346 -0.247922E-03  0.116E-02    0.75       1.0  T
   5   -188.0083404 -0.576408E-05  0.674E-03    0.75       1.6  T
   6   -188.0083427 -0.225473E-05  0.309E-03    0.75       3.4  T
   7   -188.0083430 -0.362100E-06  0.206E-03    0.75       5.1  T
   8   -188.0083431 -0.458313E-07  0.156E-03    0.75       6.7  T
     SCC iter.                  ...        0 min,  0.230 sec
     gradient                   ...        0 min,  0.024 sec
 * total energy  :  -185.3375002 Eh     change       -0.9425073E-03 Eh
   gradient norm :     0.0132125 Eh/α   predicted    -0.8395528E-03 ( -10.92%)
   displ. norm   :     0.5171304 α      lambda       -0.1004578E-02
   maximum displ.:     0.1824659 α      in ANC's #17, #11, #12, ...

........................................................................
.............................. CYCLE   17 ..............................
........................................................................
   1   -188.0093380 -0.188009E+03  0.158E-01    0.75       0.0  T
   2   -188.0093380  0.851171E-08  0.882E-02    0.75       1.0  T
   3   -188.0088616  0.476377E-03  0.641E-02    0.76       1.0  T
   4   -188.0093719 -0.510256E-03  0.109E-02    0.75       1.0  T
   5   -188.0093741 -0.219261E-05  0.654E-03    0.75       1.6  T
   6   -188.0093762 -0.211778E-05  0.286E-03    0.75       3.7  T
   7   -188.0093764 -0.222417E-06  0.200E-03    0.75       5.2  T
     SCC iter.                  ...        0 min,  0.239 sec
     gradient                   ...        0 min,  0.022 sec
 * total energy  :  -185.3381964 Eh     change       -0.6962205E-03 Eh
   gradient norm :     0.0147854 Eh/α   predicted    -0.6366161E-03 (  -8.56%)
   displ. norm   :     0.5700836 α      lambda       -0.1235711E-02
   maximum displ.:     0.2319129 α      in ANC's #11, #17, #8, ...

........................................................................
.............................. CYCLE   18 ..............................
........................................................................
   1   -188.0214738 -0.188021E+03  0.182E-01    0.75       0.0  T
   2   -188.0214852 -0.113498E-04  0.101E-01    0.75       1.0  T
   3   -188.0209342  0.551025E-03  0.684E-02    0.76       1.0  T
   4   -188.0215233 -0.589130E-03  0.138E-02    0.75       1.0  T
   5   -188.0215300 -0.673036E-05  0.731E-03    0.75       1.4  T
   6   -188.0215317 -0.166727E-05  0.351E-03    0.75       3.0  T
   7   -188.0215322 -0.476992E-06  0.236E-03    0.75       4.4  T
   8   -188.0215322 -0.438783E-07  0.182E-03    0.75       5.8  T
     SCC iter.                  ...        0 min,  0.275 sec
     gradient                   ...        0 min,  0.019 sec
 * total energy  :  -185.3384716 Eh     change       -0.2751388E-03 Eh
   gradient norm :     0.0253667 Eh/α   predicted    -0.8186571E-03 ( 197.54%)
   displ. norm   :     0.4466799 α      lambda       -0.1465101E-02
   maximum displ.:     0.1523535 α      in ANC's #11, #17, #14, ...

........................................................................
.............................. CYCLE   19 ..............................
........................................................................
   1   -188.0050232 -0.188005E+03  0.138E-01    0.73       0.0  T
   2   -188.0050220  0.114023E-05  0.782E-02    0.75       1.0  T
   3   -188.0045222  0.499824E-03  0.644E-02    0.73       1.0  T
   4   -188.0050574 -0.535245E-03  0.120E-02    0.74       1.0  T
   5   -188.0050641 -0.667783E-05  0.637E-03    0.74       1.6  T
   6   -188.0050654 -0.130479E-05  0.311E-03    0.74       3.4  T
   7   -188.0050659 -0.499910E-06  0.187E-03    0.74       5.6  T
     SCC iter.                  ...        0 min,  0.438 sec
     gradient                   ...        0 min,  0.030 sec
 * total energy  :  -185.3389465 Eh     change       -0.4749470E-03 Eh
   gradient norm :     0.0224137 Eh/α   predicted    -0.8787086E-03 (  85.01%)
   displ. norm   :     0.2177130 α      lambda       -0.1461751E-02
   maximum displ.:     0.0919564 α      in ANC's #11, #3, #8, ...

........................................................................
.............................. CYCLE   20 ..............................
........................................................................
   1   -188.0103243 -0.188010E+03  0.897E-02    0.75       0.0  T
   2   -188.0103074  0.169681E-04  0.552E-02    0.74       1.0  T
   3   -188.0099611  0.346242E-03  0.585E-02    0.76       1.0  T
   4   -188.0103623 -0.401171E-03  0.964E-03    0.75       1.1  T
   5   -188.0103689 -0.663206E-05  0.438E-03    0.74       2.4  T
   6   -188.0103698 -0.864079E-06  0.208E-03    0.75       5.0  T
   7   -188.0103699 -0.140497E-06  0.105E-03    0.74      10.0  T
     SCC iter.                  ...        0 min,  0.204 sec
     gradient                   ...        0 min,  0.023 sec
 * total energy  :  -185.3388518 Eh     change        0.9475408E-04 Eh
   gradient norm :     0.0292242 Eh/α   predicted    -0.7655198E-03 (-907.90%)
   displ. norm   :     0.1800699 α      lambda       -0.1488852E-02
   maximum displ.:     0.0669140 α      in ANC's #11, #8, #42, ...
 * RMSD in coord.:     0.7202259 α      energy gain  -0.5582855E-01 Eh

generating ANC from model Hessian ...
Using Lindh-Hessian (1995)
 Shifting diagonal of input Hessian by   5.039736326680021E-003
 Lowest  eigenvalues of input Hessian
    0.005000   -0.000000    0.000000    0.000000    0.000000    0.000000
    0.000000    0.005054    0.005084    0.005111    0.005141    0.005202
    0.005330    0.005382    0.005581    0.005759    0.005792    0.005848
 Highest eigenvalues
    2.426465    2.599652    2.603121    2.637446    2.644485    2.672620
 

........................................................................
.............................. CYCLE   21 ..............................
........................................................................
   1   -188.0130944 -0.188013E+03  0.692E-02    0.74       0.0  T
   2   -188.0130913  0.307047E-05  0.398E-02    0.75       1.0  T
   3   -188.0129309  0.160400E-03  0.408E-02    0.74       1.0  T
   4   -188.0131132 -0.182316E-03  0.732E-03    0.74       1.4  T
   5   -188.0131166 -0.336086E-05  0.376E-03    0.75       2.8  T
   6   -188.0131172 -0.593472E-06  0.192E-03    0.74       5.5  T
   7   -188.0131173 -0.159292E-06  0.100E-03    0.74      10.4  T
   8   -188.0131174 -0.389203E-07  0.691E-04    0.74      15.2  T
   9   -188.0131174 -0.660705E-08  0.468E-04    0.74      22.4  T
     SCC iter.                  ...        0 min,  0.316 sec
     gradient                   ...        0 min,  0.033 sec
 * total energy  :  -185.3395623 Eh     change       -0.7105139E-03 Eh
   gradient norm :     0.0162760 Eh/α   predicted     0.0000000E+00 (-100.00%)
   displ. norm   :     0.1983682 α      lambda       -0.5647804E-03
   maximum displ.:     0.0853142 α      in ANC's #10, #3, #8, ...

........................................................................
.............................. CYCLE   22 ..............................
........................................................................
   1   -188.0127436 -0.188013E+03  0.938E-02    0.74       0.0  T
   2   -188.0127509 -0.727965E-05  0.520E-02    0.74       1.0  T
   3   -188.0127050  0.459035E-04  0.212E-02    0.74       1.0  T
   4   -188.0127542 -0.492075E-04  0.620E-03    0.74       1.7  T
   5   -188.0127564 -0.222179E-05  0.340E-03    0.74       3.1  T
   6   -188.0127568 -0.402004E-06  0.191E-03    0.74       5.5  T
   7   -188.0127571 -0.274025E-06  0.836E-04    0.74      12.5  T
     SCC iter.                  ...        0 min,  0.177 sec
     gradient                   ...        0 min,  0.029 sec
 * total energy  :  -185.3398951 Eh     change       -0.3328364E-03 Eh
   gradient norm :     0.0069806 Eh/α   predicted    -0.2935022E-03 ( -11.82%)
   displ. norm   :     0.3131182 α      lambda       -0.8651012E-03
   maximum displ.:     0.1241269 α      in ANC's #10, #7, #6, ...

........................................................................
.............................. CYCLE   23 ..............................
........................................................................
   1   -188.0108055 -0.188011E+03  0.170E-01    0.73       0.0  T
   2   -188.0108323 -0.268578E-04  0.953E-02    0.74       1.0  T
   3   -188.0106965  0.135847E-03  0.367E-02    0.73       1.0  T
   4   -188.0108410 -0.144559E-03  0.109E-02    0.74       1.0  T
   5   -188.0108513 -0.102319E-04  0.503E-03    0.74       2.1  T
   6   -188.0108520 -0.697835E-06  0.275E-03    0.74       3.8  T
   7   -188.0108523 -0.357958E-06  0.131E-03    0.74       8.0  T
     SCC iter.                  ...        0 min,  0.263 sec
     gradient                   ...        0 min,  0.030 sec
 * total energy  :  -185.3395752 Eh     change        0.3199082E-03 Eh
   gradient norm :     0.0224092 Eh/α   predicted    -0.4749600E-03 (-248.47%)
   displ. norm   :     0.1295834 α      lambda       -0.1288401E-02
   maximum displ.:     0.0485610 α      in ANC's #20, #8, #1, ...

........................................................................
.............................. CYCLE   24 ..............................
........................................................................
   1   -188.0125494 -0.188013E+03  0.112E-01    0.74       0.0  T
   2   -188.0125615 -0.121536E-04  0.624E-02    0.74       1.0  T
   3   -188.0125448  0.167037E-04  0.161E-02    0.74       1.0  T
   4   -188.0125679 -0.230947E-04  0.342E-03    0.74       3.1  T
   5   -188.0125682 -0.251143E-06  0.213E-03    0.74       4.9  T
   6   -188.0125684 -0.212808E-06  0.940E-04    0.74      11.1  T
     SCC iter.                  ...        0 min,  0.193 sec
     gradient                   ...        0 min,  0.031 sec
 * total energy  :  -185.3402648 Eh     change       -0.6896252E-03 Eh
   gradient norm :     0.0107075 Eh/α   predicted    -0.6550219E-03 (  -5.02%)
   displ. norm   :     0.1707672 α      lambda       -0.5376741E-03
   maximum displ.:     0.0688406 α      in ANC's #10, #3, #6, ...

........................................................................
.............................. CYCLE   25 ..............................
........................................................................
   1   -188.0097560 -0.188010E+03  0.102E-01    0.73       0.0  T
   2   -188.0097655 -0.950841E-05  0.567E-02    0.74       1.0  T
   3   -188.0097278  0.376908E-04  0.217E-02    0.73       1.0  T
   4   -188.0097717 -0.438921E-04  0.511E-03    0.74       2.1  T
   5   -188.0097715  0.136113E-06  0.388E-03    0.73       2.7  T
   6   -188.0097727 -0.118497E-05  0.196E-03    0.73       5.4  T
   7   -188.0097730 -0.287054E-06  0.926E-04    0.74      11.3  T
     SCC iter.                  ...        0 min,  0.387 sec
     gradient                   ...        0 min,  0.023 sec
 * total energy  :  -185.3403808 Eh     change       -0.1159200E-03 Eh
   gradient norm :     0.0095227 Eh/α   predicted    -0.2766796E-03 ( 138.68%)
   displ. norm   :     0.2391242 α      lambda       -0.4763563E-03
   maximum displ.:     0.1053126 α      in ANC's #10, #6, #3, ...

........................................................................
.............................. CYCLE   26 ..............................
........................................................................
   1   -188.0102679 -0.188010E+03  0.939E-02    0.73       0.0  T
   2   -188.0102743 -0.639926E-05  0.521E-02    0.73       1.0  T
   3   -188.0102545  0.198018E-04  0.160E-02    0.73       1.0  T
   4   -188.0102757 -0.211542E-04  0.657E-03    0.73       1.6  T
   5   -188.0102768 -0.109123E-05  0.435E-03    0.73       2.4  T
   6   -188.0102784 -0.157262E-05  0.169E-03    0.73       6.2  T
   7   -188.0102785 -0.154470E-06  0.101E-03    0.73      10.4  T
     SCC iter.                  ...        0 min,  0.250 sec
     gradient                   ...        0 min,  0.034 sec
 * total energy  :  -185.3407155 Eh     change       -0.3347265E-03 Eh
   gradient norm :     0.0067981 Eh/α   predicted    -0.2517998E-03 ( -24.77%)
   displ. norm   :     0.4855121 α      lambda       -0.6822943E-03
   maximum displ.:     0.2190000 α      in ANC's #10, #6, #3, ...

........................................................................
.............................. CYCLE   27 ..............................
........................................................................
   1   -188.0087114 -0.188009E+03  0.181E-01    0.73       0.0  T
   2   -188.0087320 -0.205881E-04  0.997E-02    0.73       1.0  T
   3   -188.0087018  0.302500E-04  0.232E-02    0.73       1.0  T
   4   -188.0087383 -0.365422E-04  0.112E-02    0.73       1.0  T
   5   -188.0087415 -0.317588E-05  0.544E-03    0.73       1.9  T
   6   -188.0087431 -0.164799E-05  0.286E-03    0.73       3.7  T
   7   -188.0087434 -0.267653E-06  0.196E-03    0.73       5.3  T
     SCC iter.                  ...        0 min,  0.212 sec
     gradient                   ...        0 min,  0.019 sec
 * total energy  :  -185.3410522 Eh     change       -0.3367424E-03 Eh
   gradient norm :     0.0120180 Eh/α   predicted    -0.4215708E-03 (  25.19%)
   displ. norm   :     0.4100882 α      lambda       -0.5058647E-03
   maximum displ.:     0.1877752 α      in ANC's #10, #3, #6, ...

........................................................................
.............................. CYCLE   28 ..............................
........................................................................
   1   -188.0083349 -0.188008E+03  0.149E-01    0.73       0.0  T
   2   -188.0083464 -0.114068E-04  0.811E-02    0.73       1.0  T
   3   -188.0083323  0.140184E-04  0.177E-02    0.72       1.0  T
   4   -188.0083439 -0.115357E-04  0.114E-02    0.73       1.0  T
   5   -188.0083480 -0.416853E-05  0.668E-03    0.73       1.6  T
   6   -188.0083522 -0.416297E-05  0.273E-03    0.73       3.8  T
   7   -188.0083526 -0.354793E-06  0.189E-03    0.73       5.5  T
   8   -188.0083526 -0.284382E-08  0.128E-03    0.73       8.2  T
     SCC iter.                  ...        0 min,  0.239 sec
     gradient                   ...        0 min,  0.020 sec
 * total energy  :  -185.3414620 Eh     change       -0.4097998E-03 Eh
   gradient norm :     0.0099358 Eh/α   predicted    -0.2954742E-03 ( -27.90%)
   displ. norm   :     0.5420277 α      lambda       -0.6396590E-03
   maximum displ.:     0.2508871 α      in ANC's #10, #3, #6, ...

........................................................................
.............................. CYCLE   29 ..............................
........................................................................
   1   -188.0107961 -0.188011E+03  0.205E-01    0.73       0.0  T
   2   -188.0108168 -0.207175E-04  0.109E-01    0.73       1.0  T
   3   -188.0107617  0.551149E-04  0.271E-02    0.73       1.0  T
   4   -188.0108139 -0.522150E-04  0.154E-02    0.73       1.0  T
   5   -188.0108231 -0.924831E-05  0.890E-03    0.73       1.2  T
   6   -188.0108292 -0.611503E-05  0.355E-03    0.73       3.0  T
   7   -188.0108297 -0.429095E-06  0.252E-03    0.73       4.2  T
   8   -188.0108297 -0.162871E-07  0.154E-03    0.73       6.8  T
     SCC iter.                  ...        0 min,  0.271 sec
     gradient                   ...        0 min,  0.031 sec
 * total energy  :  -185.3419397 Eh     change       -0.4776981E-03 Eh
   gradient norm :     0.0068641 Eh/α   predicted    -0.4137945E-03 ( -13.38%)
   displ. norm   :     0.6362046 α      lambda       -0.5524794E-03
   maximum displ.:     0.2960568 α      in ANC's #10, #3, #6, ...

........................................................................
.............................. CYCLE   30 ..............................
........................................................................
   1   -188.0089157 -0.188009E+03  0.231E-01    0.73       0.0  T
   2   -188.0089427 -0.269871E-04  0.125E-01    0.73       1.0  T
   3   -188.0088934  0.493044E-04  0.285E-02    0.73       1.0  T
   4   -188.0089323 -0.388893E-04  0.185E-02    0.72       1.0  T
   5   -188.0089515 -0.192232E-04  0.894E-03    0.73       1.2  T
   6   -188.0089574 -0.588638E-05  0.398E-03    0.73       2.6  T
   7   -188.0089579 -0.562041E-06  0.279E-03    0.73       3.8  T
   8   -188.0089580 -0.542241E-07  0.162E-03    0.73       6.5  T
     SCC iter.                  ...        0 min,  0.236 sec
     gradient                   ...        0 min,  0.031 sec
 * total energy  :  -185.3423455 Eh     change       -0.4058097E-03 Eh
   gradient norm :     0.0111878 Eh/α   predicted    -0.3880511E-03 (  -4.38%)
   displ. norm   :     0.5541499 α      lambda       -0.5451664E-03
   maximum displ.:     0.2554377 α      in ANC's #10, #3, #6, ...

........................................................................
.............................. CYCLE   31 ..............................
........................................................................
   1   -188.0118485 -0.188012E+03  0.202E-01    0.73       0.0  T
   2   -188.0118672 -0.187022E-04  0.108E-01    0.73       1.0  T
   3   -188.0117656  0.101606E-03  0.339E-02    0.73       1.0  T
   4   -188.0118705 -0.104991E-03  0.145E-02    0.73       1.0  T
   5   -188.0118750 -0.444007E-05  0.873E-03    0.73       1.2  T
   6   -188.0118819 -0.687780E-05  0.322E-03    0.73       3.3  T
   7   -188.0118820 -0.175802E-06  0.248E-03    0.73       4.2  T
   8   -188.0118821 -0.462960E-07  0.169E-03    0.73       6.2  T
     SCC iter.                  ...        0 min,  0.227 sec
     gradient                   ...        0 min,  0.203 sec
 * total energy  :  -185.3427841 Eh     change       -0.4385146E-03 Eh
   gradient norm :     0.0086266 Eh/α   predicted    -0.3562905E-03 ( -18.75%)
   displ. norm   :     0.5790581 α      lambda       -0.5693137E-03
   maximum displ.:     0.2663857 α      in ANC's #3, #10, #6, ...

........................................................................
.............................. CYCLE   32 ..............................
........................................................................
   1   -188.0168735 -0.188017E+03  0.208E-01    0.73       0.0  T
   2   -188.0168948 -0.212092E-04  0.111E-01    0.73       1.0  T
   3   -188.0168188  0.759083E-04  0.320E-02    0.73       1.0  T
   4   -188.0168940 -0.751933E-04  0.155E-02    0.73       1.0  T
   5   -188.0168985 -0.445604E-05  0.999E-03    0.73       1.0  T
   6   -188.0169084 -0.993007E-05  0.348E-03    0.73       3.0  T
   7   -188.0169087 -0.224454E-06  0.266E-03    0.73       3.9  T
   8   -188.0169087 -0.285061E-07  0.194E-03    0.73       5.4  T
     SCC iter.                  ...        0 min,  0.229 sec
     gradient                   ...        0 min,  0.032 sec
 * total energy  :  -185.3431499 Eh     change       -0.3658423E-03 Eh
   gradient norm :     0.0097466 Eh/α   predicted    -0.3801046E-03 (   3.90%)
   displ. norm   :     0.6399176 α      lambda       -0.6200552E-03
   maximum displ.:     0.2974823 α      in ANC's #10, #3, #6, ...

........................................................................
.............................. CYCLE   33 ..............................
........................................................................
   1   -188.0104433 -0.188010E+03  0.241E-01    0.72       0.0  T
   2   -188.0104819 -0.385854E-04  0.131E-01    0.72       1.0  T
   3   -188.0104612  0.207483E-04  0.236E-02    0.72       1.0  T
   4   -188.0104706 -0.945690E-05  0.179E-02    0.73       1.0  T
   5   -188.0104910 -0.203530E-04  0.960E-03    0.72       1.1  T
   6   -188.0104978 -0.677495E-05  0.418E-03    0.72       2.5  T
   7   -188.0104985 -0.719270E-06  0.279E-03    0.72       3.8  T
   8   -188.0104986 -0.895573E-07  0.183E-03    0.72       5.7  T
     SCC iter.                  ...        0 min,  0.273 sec
     gradient                   ...        0 min,  0.019 sec
 * total energy  :  -185.3434056 Eh     change       -0.2556844E-03 Eh
   gradient norm :     0.0149205 Eh/α   predicted    -0.4369828E-03 (  70.91%)
   displ. norm   :     0.3253478 α      lambda       -0.3683527E-03
   maximum displ.:     0.1529067 α      in ANC's #3, #10, #6, ...

........................................................................
.............................. CYCLE   34 ..............................
........................................................................
   1   -188.0108391 -0.188011E+03  0.134E-01    0.72       0.0  T
   2   -188.0108531 -0.139914E-04  0.694E-02    0.73       1.0  T
   3   -188.0108382  0.148533E-04  0.160E-02    0.72       1.0  T
   4   -188.0108519 -0.137465E-04  0.972E-03    0.73       1.1  T
   5   -188.0108548 -0.282434E-05  0.658E-03    0.72       1.6  T
   6   -188.0108579 -0.312509E-05  0.302E-03    0.72       3.5  T
   7   -188.0108584 -0.470159E-06  0.195E-03    0.72       5.4  T
   8   -188.0108584 -0.490710E-07  0.141E-03    0.72       7.4  T
     SCC iter.                  ...        0 min,  0.193 sec
     gradient                   ...        0 min,  0.019 sec
 * total energy  :  -185.3436307 Eh     change       -0.2251383E-03 Eh
   gradient norm :     0.0061053 Eh/α   predicted    -0.2036804E-03 (  -9.53%)
   displ. norm   :     0.2972176 α      lambda       -0.2885635E-03
   maximum displ.:     0.1443138 α      in ANC's #3, #6, #10, ...

........................................................................
.............................. CYCLE   35 ..............................
........................................................................
   1   -188.0180289 -0.188018E+03  0.110E-01    0.73       0.0  T
   2   -188.0180363 -0.744625E-05  0.579E-02    0.73       1.0  T
   3   -188.0180177  0.185818E-04  0.155E-02    0.72       1.0  T
   4   -188.0180343 -0.165895E-04  0.901E-03    0.73       1.2  T
   5   -188.0180380 -0.370721E-05  0.569E-03    0.72       1.8  T
   6   -188.0180401 -0.206857E-05  0.253E-03    0.72       4.1  T
   7   -188.0180403 -0.186054E-06  0.185E-03    0.72       5.7  T
     SCC iter.                  ...        0 min,  0.206 sec
     gradient                   ...        0 min,  0.019 sec
 * total energy  :  -185.3437879 Eh     change       -0.1571280E-03 Eh
   gradient norm :     0.0095044 Eh/α   predicted    -0.1570277E-03 (  -0.06%)
   displ. norm   :     0.5791228 α      lambda       -0.4096460E-03
   maximum displ.:     0.2701642 α      in ANC's #3, #10, #6, ...

........................................................................
.............................. CYCLE   36 ..............................
........................................................................
   1   -188.0114438 -0.188011E+03  0.204E-01    0.72       0.0  T
   2   -188.0114800 -0.361624E-04  0.112E-01    0.72       1.0  T
   3   -188.0111655  0.314507E-03  0.518E-02    0.72       1.0  T
   4   -188.0114830 -0.317457E-03  0.188E-02    0.72       1.0  T
   5   -188.0115049 -0.219085E-04  0.986E-03    0.72       1.1  T
   6   -188.0115092 -0.436058E-05  0.477E-03    0.72       2.2  T
   7   -188.0115105 -0.123120E-05  0.267E-03    0.72       3.9  T
   8   -188.0115106 -0.137990E-06  0.196E-03    0.72       5.4  T
     SCC iter.                  ...        0 min,  0.235 sec
     gradient                   ...        0 min,  0.022 sec
 * total energy  :  -185.3437650 Eh     change        0.2283284E-04 Eh
   gradient norm :     0.0215040 Eh/α   predicted    -0.2735174E-03 (*******%)
   displ. norm   :     0.1685629 α      lambda       -0.5782396E-03
   maximum displ.:     0.0679324 α      in ANC's #3, #6, #14, ...

........................................................................
.............................. CYCLE   37 ..............................
........................................................................
   1   -188.0116632 -0.188012E+03  0.923E-02    0.72       0.0  T
   2   -188.0116824 -0.192271E-04  0.486E-02    0.72       1.0  T
   3   -188.0116464  0.359843E-04  0.198E-02    0.72       1.0  T
   4   -188.0116855 -0.391295E-04  0.746E-03    0.72       1.4  T
   5   -188.0116885 -0.295050E-05  0.465E-03    0.72       2.3  T
   6   -188.0116898 -0.134389E-05  0.260E-03    0.72       4.0  T
     SCC iter.                  ...        0 min,  0.141 sec
     gradient                   ...        0 min,  0.019 sec
 * total energy  :  -185.3440753 Eh     change       -0.3102891E-03 Eh
   gradient norm :     0.0055284 Eh/α   predicted    -0.2973356E-03 (  -4.17%)
   displ. norm   :     0.2214582 α      lambda       -0.1805042E-03
   maximum displ.:     0.0947473 α      in ANC's #3, #14, #6, ...

........................................................................
.............................. CYCLE   38 ..............................
........................................................................
   1   -188.0154530 -0.188015E+03  0.931E-02    0.72       0.0  T
   2   -188.0154580 -0.496140E-05  0.480E-02    0.72       1.0  T
   3   -188.0154485  0.947006E-05  0.122E-02    0.72       1.0  T
   4   -188.0154597 -0.111372E-04  0.652E-03    0.72       1.6  T
   5   -188.0154592  0.451747E-06  0.488E-03    0.72       2.1  T
   6   -188.0154611 -0.187790E-05  0.247E-03    0.72       4.3  T
   7   -188.0154613 -0.194193E-06  0.184E-03    0.72       5.7  T
     SCC iter.                  ...        0 min,  0.212 sec
     gradient                   ...        0 min,  0.208 sec
 * total energy  :  -185.3441565 Eh     change       -0.8119782E-04 Eh
   gradient norm :     0.0061654 Eh/α   predicted    -0.9467990E-04 (  16.60%)
   displ. norm   :     0.4012785 α      lambda       -0.1962123E-03
   maximum displ.:     0.1915744 α      in ANC's #3, #6, #14, ...

........................................................................
.............................. CYCLE   39 ..............................
........................................................................
   1   -188.0132008 -0.188013E+03  0.141E-01    0.72       0.0  T
   2   -188.0132110 -0.102282E-04  0.750E-02    0.72       1.0  T
   3   -188.0132049  0.609452E-05  0.138E-02    0.72       1.0  T
   4   -188.0132121 -0.716065E-05  0.871E-03    0.72       1.2  T
   5   -188.0132150 -0.290190E-05  0.372E-03    0.72       2.8  T
   6   -188.0132156 -0.656214E-06  0.242E-03    0.72       4.3  T
   7   -188.0132157 -0.660919E-07  0.198E-03    0.72       5.3  T
     SCC iter.                  ...        0 min,  0.207 sec
     gradient                   ...        0 min,  0.029 sec
 * total energy  :  -185.3443000 Eh     change       -0.1434933E-03 Eh
   gradient norm :     0.0054032 Eh/α   predicted    -0.1139054E-03 ( -20.62%)
   displ. norm   :     0.4012878 α      lambda       -0.1763394E-03
   maximum displ.:     0.1842660 α      in ANC's #3, #14, #6, ...

........................................................................
.............................. CYCLE   40 ..............................
........................................................................
   1   -188.0134683 -0.188013E+03  0.125E-01    0.73       0.0  T
   2   -188.0134768 -0.853892E-05  0.688E-02    0.73       1.0  T
   3   -188.0134615  0.153200E-04  0.156E-02    0.73       1.0  T
   4   -188.0134785 -0.169899E-04  0.809E-03    0.72       1.3  T
   5   -188.0134785 -0.340611E-07  0.591E-03    0.73       1.8  T
   6   -188.0134816 -0.303943E-05  0.256E-03    0.73       4.1  T
   7   -188.0134818 -0.231589E-06  0.191E-03    0.73       5.5  T
   8   -188.0134819 -0.556739E-07  0.140E-03    0.73       7.5  T
     SCC iter.                  ...        0 min,  0.260 sec
     gradient                   ...        0 min,  0.030 sec
 * total energy  :  -185.3443913 Eh     change       -0.9125321E-04 Eh
   gradient norm :     0.0062644 Eh/α   predicted    -0.1023734E-03 (  12.19%)
   displ. norm   :     0.3451621 α      lambda       -0.1417777E-03
   maximum displ.:     0.1700254 α      in ANC's #3, #14, #6, ...

........................................................................
.............................. CYCLE   41 ..............................
........................................................................
   1   -188.0118844 -0.188012E+03  0.131E-01    0.73       0.0  T
   2   -188.0118943 -0.983263E-05  0.688E-02    0.73       1.0  T
   3   -188.0118374  0.568542E-04  0.249E-02    0.73       1.0  T
   4   -188.0118954 -0.580201E-04  0.113E-02    0.73       1.0  T
   5   -188.0119002 -0.476645E-05  0.757E-03    0.73       1.4  T
   6   -188.0119028 -0.261653E-05  0.388E-03    0.73       2.7  T
   7   -188.0119031 -0.250398E-06  0.308E-03    0.73       3.4  T
   8   -188.0119032 -0.107701E-06  0.204E-03    0.73       5.1  T
   9   -188.0119033 -0.132637E-06  0.864E-04    0.73      12.1  T
     SCC iter.                  ...        0 min,  0.303 sec
     gradient                   ...        0 min,  0.031 sec
 * total energy  :  -185.3444620 Eh     change       -0.7078205E-04 Eh
   gradient norm :     0.0047514 Eh/α   predicted    -0.7933957E-04 (  12.09%)
   displ. norm   :     0.1783627 α      lambda       -0.8910677E-04
   maximum displ.:     0.0861606 α      in ANC's #3, #14, #6, ...

........................................................................
.............................. CYCLE   42 ..............................
........................................................................
   1   -188.0118150 -0.188012E+03  0.629E-02    0.73       0.0  T
   2   -188.0118179 -0.289436E-05  0.338E-02    0.73       1.0  T
   3   -188.0117951  0.227978E-04  0.156E-02    0.73       1.0  T
   4   -188.0118184 -0.232609E-04  0.600E-03    0.73       1.7  T
   5   -188.0118201 -0.169064E-05  0.406E-03    0.73       2.6  T
   6   -188.0118209 -0.775708E-06  0.201E-03    0.73       5.2  T
   7   -188.0118209 -0.529496E-07  0.155E-03    0.73       6.8  T
     SCC iter.                  ...        0 min,  0.223 sec
     gradient                   ...        0 min,  0.030 sec
 * total energy  :  -185.3445068 Eh     change       -0.4479504E-04 Eh
   gradient norm :     0.0055907 Eh/α   predicted    -0.4597362E-04 (   2.63%)
   displ. norm   :     0.1781647 α      lambda       -0.7971192E-04
   maximum displ.:     0.0900130 α      in ANC's #3, #6, #14, ...
 * RMSD in coord.:     0.7199620 α      energy gain  -0.5655049E-02 Eh

generating ANC from model Hessian ...
Using Lindh-Hessian (1995)
 Shifting diagonal of input Hessian by   5.025429015177759E-003
 Lowest  eigenvalues of input Hessian
    0.005000   -0.000000   -0.000000   -0.000000   -0.000000    0.000000
    0.000000    0.005035    0.005068    0.005106    0.005130    0.005186
    0.005325    0.005407    0.005587    0.005721    0.005794    0.005831
 Highest eigenvalues
    2.425504    2.597334    2.609288    2.640816    2.643121    2.670088
 

........................................................................
.............................. CYCLE   43 ..............................
........................................................................
   1   -188.0141293 -0.188014E+03  0.552E-02    0.73       0.0  T
   2   -188.0141308 -0.145776E-05  0.304E-02    0.73       1.0  T
   3   -188.0141128  0.179919E-04  0.132E-02    0.73       1.0  T
   4   -188.0141317 -0.189156E-04  0.388E-03    0.73       2.7  T
   5   -188.0141320 -0.308002E-06  0.280E-03    0.73       3.7  T
   6   -188.0141327 -0.621439E-06  0.101E-03    0.73      10.4  T
   7   -188.0141327 -0.461681E-07  0.614E-04    0.73      17.1  T
   8   -188.0141327 -0.619576E-08  0.453E-04    0.73      23.1  T
     SCC iter.                  ...        0 min,  0.215 sec
     gradient                   ...        0 min,  0.029 sec
 * total energy  :  -185.3445461 Eh     change       -0.3923704E-04 Eh
   gradient norm :     0.0049335 Eh/α   predicted     0.0000000E+00 (-100.00%)
   displ. norm   :     0.0798965 α      lambda       -0.7569600E-04
   maximum displ.:     0.0416074 α      in ANC's #10, #3, #5, ...

........................................................................
.............................. CYCLE   44 ..............................
........................................................................
   1   -188.0140885 -0.188014E+03  0.627E-02    0.73       0.0  T
   2   -188.0140916 -0.312827E-05  0.341E-02    0.73       1.0  T
   3   -188.0140896  0.206066E-05  0.641E-03    0.73       1.6  T
   4   -188.0140931 -0.351820E-05  0.214E-03    0.73       4.9  T
   5   -188.0140931 -0.280802E-07  0.129E-03    0.73       8.1  T
   6   -188.0140932 -0.110934E-06  0.583E-04    0.73      18.0  T
     SCC iter.                  ...        0 min,  0.161 sec
     gradient                   ...        0 min,  0.020 sec
 * total energy  :  -185.3445438 Eh     change        0.2290296E-05 Eh
   gradient norm :     0.0036800 Eh/α   predicted    -0.3810845E-04 (*******%)
   displ. norm   :     0.0804123 α      lambda       -0.1324280E-03
   maximum displ.:     0.0380045 α      in ANC's #8, #19, #3, ...

........................................................................
.............................. CYCLE   45 ..............................
........................................................................
   1   -188.0148709 -0.188015E+03  0.592E-02    0.73       0.0  T
   2   -188.0148740 -0.311244E-05  0.326E-02    0.73       1.0  T
   3   -188.0148701  0.388250E-05  0.707E-03    0.73       1.5  T
   4   -188.0148752 -0.512227E-05  0.250E-03    0.73       4.2  T
   5   -188.0148754 -0.164291E-06  0.176E-03    0.73       6.0  T
   6   -188.0148756 -0.207394E-06  0.762E-04    0.73      13.7  T
   7   -188.0148756 -0.309142E-07  0.436E-04    0.73      24.1  T
     SCC iter.                  ...        0 min,  0.387 sec
     gradient                   ...        0 min,  0.020 sec
 * total energy  :  -185.3445340 Eh     change        0.9778942E-05 Eh
   gradient norm :     0.0077042 Eh/α   predicted    -0.6664335E-04 (-781.50%)
   displ. norm   :     0.0754305 α      lambda       -0.1988327E-03
   maximum displ.:     0.0339059 α      in ANC's #51, #50, #13, ...

........................................................................
.............................. CYCLE   46 ..............................
........................................................................
   1   -188.0151402 -0.188015E+03  0.719E-02    0.73       0.0  T
   2   -188.0151448 -0.462521E-05  0.387E-02    0.73       1.0  T
   3   -188.0151445  0.363217E-06  0.600E-03    0.73       1.7  T
   4   -188.0151468 -0.231040E-05  0.256E-03    0.73       4.1  T
   5   -188.0151469 -0.963830E-07  0.117E-03    0.73       9.0  T
     SCC iter.                  ...        0 min,  0.142 sec
     gradient                   ...        0 min,  0.026 sec
 * total energy  :  -185.3445511 Eh     change       -0.1715052E-04 Eh
   gradient norm :     0.0052969 Eh/α   predicted    -0.9998266E-04 ( 482.97%)
   displ. norm   :     0.0515655 α      lambda       -0.1491963E-03
   maximum displ.:     0.0195177 α      in ANC's #51, #35, #50, ...

........................................................................
.............................. CYCLE   47 ..............................
........................................................................
   1   -188.0149789 -0.188015E+03  0.517E-02    0.73       0.0  T
   2   -188.0149815 -0.254943E-05  0.280E-02    0.73       1.0  T
   3   -188.0149781  0.335113E-05  0.717E-03    0.73       1.5  T
   4   -188.0149828 -0.461681E-05  0.190E-03    0.73       5.5  T
   5   -188.0149827  0.679316E-07  0.150E-03    0.73       7.0  T
   6   -188.0149829 -0.178969E-06  0.696E-04    0.73      15.1  T
     SCC iter.                  ...        0 min,  0.205 sec
     gradient                   ...        0 min,  0.019 sec
 * total energy  :  -185.3446098 Eh     change       -0.5864590E-04 Eh
   gradient norm :     0.0031140 Eh/α   predicted    -0.7479695E-04 (  27.54%)
   displ. norm   :     0.0547281 α      lambda       -0.3853574E-04
   maximum displ.:     0.0224560 α      in ANC's #10, #3, #6, ...

........................................................................
.............................. CYCLE   48 ..............................
........................................................................
   1   -188.0148265 -0.188015E+03  0.371E-02    0.73       0.0  T
   2   -188.0148273 -0.759734E-06  0.187E-02    0.73       1.0  T
   3   -188.0148247  0.257066E-05  0.587E-03    0.73       1.8  T
   4   -188.0148277 -0.295246E-05  0.219E-03    0.73       4.8  T
   5   -188.0148275  0.163291E-06  0.181E-03    0.73       5.8  T
   6   -188.0148279 -0.336629E-06  0.552E-04    0.73      19.0  T
   7   -188.0148279 -0.138014E-07  0.378E-04    0.73      27.7  T
     SCC iter.                  ...        0 min,  0.203 sec
     gradient                   ...        0 min,  0.032 sec
 * total energy  :  -185.3446269 Eh     change       -0.1707889E-04 Eh
   gradient norm :     0.0011127 Eh/α   predicted    -0.1932612E-04 (  13.16%)
   displ. norm   :     0.0820662 α      lambda        0.5237338E-04
   maximum displ.:     0.0336727 α      in ANC's #10, #3, #6, ...

........................................................................
.............................. CYCLE   49 ..............................
........................................................................
   1   -188.0142719 -0.188014E+03  0.559E-02    0.73       0.0  T
   2   -188.0142737 -0.179930E-05  0.282E-02    0.73       1.0  T
   3   -188.0142697  0.399988E-05  0.789E-03    0.73       1.3  T
   4   -188.0142745 -0.481368E-05  0.326E-03    0.73       3.2  T
   5   -188.0142744  0.173833E-06  0.229E-03    0.73       4.6  T
   6   -188.0142748 -0.479933E-06  0.942E-04    0.73      11.1  T
   7   -188.0142749 -0.378806E-07  0.664E-04    0.73      15.8  T
     SCC iter.                  ...        0 min,  0.251 sec
     gradient                   ...        0 min,  0.028 sec
 * total energy  :  -185.3445718 Eh     change        0.5508208E-04 Eh
   gradient norm :     0.0061257 Eh/α   predicted     0.2626041E-04 ( -52.32%)
   displ. norm   :     0.0465678 α      lambda       -0.1043633E-03
   maximum displ.:     0.0128879 α      in ANC's #10, #3, #44, ...

........................................................................
.............................. CYCLE   50 ..............................
........................................................................
   1   -188.0146833 -0.188015E+03  0.409E-02    0.73       0.0  T
   2   -188.0146847 -0.136847E-05  0.212E-02    0.73       1.0  T
   3   -188.0146818  0.290597E-05  0.647E-03    0.73       1.6  T
   4   -188.0146854 -0.360666E-05  0.209E-03    0.73       5.0  T
   5   -188.0146852  0.121004E-06  0.168E-03    0.73       6.2  T
   6   -188.0146855 -0.290982E-06  0.503E-04    0.73      20.8  T
     SCC iter.                  ...        0 min,  0.157 sec
     gradient                   ...        0 min,  0.024 sec
 * total energy  :  -185.3446349 Eh     change       -0.6313724E-04 Eh
   gradient norm :     0.0051449 Eh/α   predicted    -0.5229512E-04 ( -17.17%)
   displ. norm   :     0.0662394 α      lambda       -0.9128673E-04
   maximum displ.:     0.0256184 α      in ANC's #44, #3, #10, ...

........................................................................
.............................. CYCLE   51 ..............................
........................................................................
   1   -188.0149254 -0.188015E+03  0.758E-02    0.73       0.0  T
   2   -188.0149286 -0.323100E-05  0.366E-02    0.73       1.0  T
   3   -188.0149267  0.193797E-05  0.705E-03    0.73       1.5  T
   4   -188.0149295 -0.280515E-05  0.381E-03    0.73       2.8  T
   5   -188.0149292  0.317588E-06  0.297E-03    0.73       3.5  T
   6   -188.0149300 -0.801195E-06  0.121E-03    0.73       8.7  T
     SCC iter.                  ...        0 min,  0.206 sec
     gradient                   ...        0 min,  0.031 sec
 * total energy  :  -185.3446424 Eh     change       -0.7479061E-05 Eh
   gradient norm :     0.0031076 Eh/α   predicted    -0.4584520E-04 ( 512.98%)
   displ. norm   :     0.0597195 α      lambda       -0.6138349E-04
   maximum displ.:     0.0239518 α      in ANC's #3, #10, #6, ...

........................................................................
.............................. CYCLE   52 ..............................
........................................................................
   1   -188.0149693 -0.188015E+03  0.431E-02    0.73       0.0  T
   2   -188.0149705 -0.113250E-05  0.213E-02    0.73       1.0  T
   3   -188.0149675  0.294467E-05  0.603E-03    0.73       1.7  T
   4   -188.0149708 -0.325261E-05  0.265E-03    0.73       3.9  T
   5   -188.0149708 -0.320385E-07  0.191E-03    0.73       5.5  T
   6   -188.0149712 -0.359814E-06  0.536E-04    0.73      19.5  T
   7   -188.0149712 -0.121843E-07  0.376E-04    0.73      27.9  T
     SCC iter.                  ...        0 min,  0.390 sec
     gradient                   ...        0 min,  0.024 sec
 * total energy  :  -185.3446769 Eh     change       -0.3450138E-04 Eh
   gradient norm :     0.0015409 Eh/α   predicted    -0.3080596E-04 ( -10.71%)
   displ. norm   :     0.1361799 α      lambda       -0.2675811E-04
   maximum displ.:     0.0629857 α      in ANC's #10, #3, #6, ...

........................................................................
.............................. CYCLE   53 ..............................
........................................................................
   1   -188.0149118 -0.188015E+03  0.558E-02    0.72       0.0  T
   2   -188.0149131 -0.132986E-05  0.295E-02    0.73       1.0  T
   3   -188.0149083  0.484175E-05  0.758E-03    0.73       1.4  T
   4   -188.0149130 -0.468947E-05  0.411E-03    0.72       2.5  T
   5   -188.0149137 -0.702985E-06  0.213E-03    0.73       4.9  T
   6   -188.0149140 -0.335249E-06  0.822E-04    0.73      12.8  T
   7   -188.0149140 -0.105214E-07  0.637E-04    0.73      16.5  T
     SCC iter.                  ...        0 min,  0.256 sec
     gradient                   ...        0 min,  0.031 sec
 * total energy  :  -185.3446986 Eh     change       -0.2172265E-04 Eh
   gradient norm :     0.0031524 Eh/α   predicted    -0.1348975E-04 ( -37.90%)
   displ. norm   :     0.1507761 α      lambda       -0.3564091E-04
   maximum displ.:     0.0709170 α      in ANC's #3, #10, #5, ...

........................................................................
.............................. CYCLE   54 ..............................
........................................................................
   1   -188.0147542 -0.188015E+03  0.545E-02    0.72       0.0  T
   2   -188.0147553 -0.109957E-05  0.293E-02    0.72       1.0  T
   3   -188.0147465  0.888469E-05  0.931E-03    0.72       1.1  T
   4   -188.0147557 -0.924506E-05  0.381E-03    0.72       2.7  T
   5   -188.0147561 -0.392889E-06  0.200E-03    0.72       5.2  T
   6   -188.0147564 -0.305773E-06  0.846E-04    0.72      12.4  T
   7   -188.0147564 -0.153618E-07  0.642E-04    0.72      16.3  T
     SCC iter.                  ...        0 min,  0.209 sec
     gradient                   ...        0 min,  0.032 sec
 * total energy  :  -185.3447302 Eh     change       -0.3161413E-04 Eh
   gradient norm :     0.0028196 Eh/α   predicted    -0.1822628E-04 ( -42.35%)
   displ. norm   :     0.3211440 α      lambda       -0.7306131E-04
   maximum displ.:     0.1543913 α      in ANC's #3, #10, #5, ...

........................................................................
.............................. CYCLE   55 ..............................
........................................................................
   1   -188.0141340 -0.188014E+03  0.119E-01    0.72       0.0  T
   2   -188.0141398 -0.577506E-05  0.632E-02    0.72       1.0  T
   3   -188.0141184  0.214403E-04  0.158E-02    0.72       1.0  T
   4   -188.0141383 -0.199571E-04  0.895E-03    0.72       1.2  T
   5   -188.0141428 -0.452559E-05  0.359E-03    0.72       2.9  T
   6   -188.0141436 -0.795203E-06  0.177E-03    0.72       5.9  T
   7   -188.0141437 -0.429567E-07  0.139E-03    0.72       7.6  T
   8   -188.0141437 -0.187535E-07  0.770E-04    0.72      13.6  T
   9   -188.0141437 -0.265191E-07  0.338E-04    0.72      31.0  T
     SCC iter.                  ...        0 min,  0.257 sec
     gradient                   ...        0 min,  0.024 sec
 * total energy  :  -185.3447837 Eh     change       -0.5342104E-04 Eh
   gradient norm :     0.0014346 Eh/α   predicted    -0.4029832E-04 ( -24.56%)
   displ. norm   :     0.4858125 α      lambda       -0.5667132E-04
   maximum displ.:     0.2430267 α      in ANC's #3, #10, #5, ...

........................................................................
.............................. CYCLE   56 ..............................
........................................................................
   1   -188.0130770 -0.188013E+03  0.174E-01    0.72       0.0  T
   2   -188.0130900 -0.130400E-04  0.929E-02    0.72       1.0  T
   3   -188.0130462  0.437901E-04  0.227E-02    0.72       1.0  T
   4   -188.0130870 -0.407559E-04  0.130E-02    0.72       1.0  T
   5   -188.0130968 -0.985848E-05  0.491E-03    0.72       2.1  T
   6   -188.0130983 -0.145638E-05  0.243E-03    0.72       4.3  T
   7   -188.0130983 -0.433047E-07  0.185E-03    0.72       5.7  T
   8   -188.0130984 -0.346346E-07  0.975E-04    0.72      10.8  T
   9   -188.0130984 -0.462274E-07  0.468E-04    0.72      22.4  T
     SCC iter.                  ...        0 min,  0.334 sec
     gradient                   ...        0 min,  0.032 sec
 * total energy  :  -185.3448269 Eh     change       -0.4321319E-04 Eh
   gradient norm :     0.0033807 Eh/α   predicted    -0.3131116E-04 ( -27.54%)
   displ. norm   :     0.1673988 α      lambda       -0.3738198E-04
   maximum displ.:     0.0896000 α      in ANC's #3, #5, #6, ...

........................................................................
.............................. CYCLE   57 ..............................
........................................................................
   1   -188.0140196 -0.188014E+03  0.592E-02    0.72       0.0  T
   2   -188.0140214 -0.172848E-05  0.314E-02    0.72       1.0  T
   3   -188.0140212  0.106790E-06  0.493E-03    0.72       2.1  T
   4   -188.0140207  0.514212E-06  0.402E-03    0.72       2.6  T
   5   -188.0140217 -0.950287E-06  0.210E-03    0.72       5.0  T
   6   -188.0140221 -0.401355E-06  0.882E-04    0.72      11.9  T
   7   -188.0140221 -0.146127E-07  0.685E-04    0.72      15.3  T
     SCC iter.                  ...        0 min,  0.218 sec
     gradient                   ...        0 min,  0.022 sec
 * total energy  :  -185.3448563 Eh     change       -0.2939670E-04 Eh
   gradient norm :     0.0020910 Eh/α   predicted    -0.1921529E-04 ( -34.63%)
   displ. norm   :     0.2273854 α      lambda       -0.6080304E-04
   maximum displ.:     0.1284598 α      in ANC's #3, #5, #6, ...

........................................................................
.............................. CYCLE   58 ..............................
........................................................................
   1   -188.0168102 -0.188017E+03  0.787E-02    0.72       0.0  T
   2   -188.0168136 -0.339855E-05  0.411E-02    0.72       1.0  T
   3   -188.0168133  0.299639E-06  0.666E-03    0.72       1.6  T
   4   -188.0168132  0.924907E-07  0.505E-03    0.72       2.1  T
   5   -188.0168143 -0.116791E-05  0.254E-03    0.72       4.1  T
   6   -188.0168149 -0.600741E-06  0.119E-03    0.72       8.8  T
   7   -188.0168150 -0.246549E-07  0.922E-04    0.72      11.4  T
   8   -188.0168150 -0.110686E-07  0.566E-04    0.72      18.5  T
     SCC iter.                  ...        0 min,  0.436 sec
     gradient                   ...        0 min,  0.026 sec
 * total energy  :  -185.3448971 Eh     change       -0.4085669E-04 Eh
   gradient norm :     0.0018500 Eh/α   predicted    -0.3197495E-04 ( -21.74%)
   displ. norm   :     0.3940942 α      lambda       -0.5540455E-04
   maximum displ.:     0.2264193 α      in ANC's #3, #5, #6, ...

........................................................................
.............................. CYCLE   59 ..............................
........................................................................
   1   -188.0179627 -0.188018E+03  0.124E-01    0.72       0.0  T
   2   -188.0179718 -0.910608E-05  0.660E-02    0.72       1.0  T
   3   -188.0179702  0.160914E-05  0.107E-02    0.72       1.0  T
   4   -188.0179701  0.655438E-07  0.835E-03    0.72       1.3  T
   5   -188.0179733 -0.318796E-05  0.484E-03    0.72       2.2  T
   6   -188.0179757 -0.235225E-05  0.177E-03    0.72       5.9  T
   7   -188.0179757 -0.279441E-07  0.136E-03    0.72       7.7  T
   8   -188.0179757 -0.107678E-07  0.799E-04    0.72      13.1  T
   9   -188.0179757 -0.251690E-07  0.371E-04    0.72      28.3  T
     SCC iter.                  ...        0 min,  0.319 sec
     gradient                   ...        0 min,  0.026 sec
 * total energy  :  -185.3449538 Eh     change       -0.5668105E-04 Eh
   gradient norm :     0.0035224 Eh/α   predicted    -0.2961475E-04 ( -47.75%)
   displ. norm   :     0.2662686 α      lambda       -0.5634983E-04
   maximum displ.:     0.1534327 α      in ANC's #3, #5, #6, ...

........................................................................
.............................. CYCLE   60 ..............................
........................................................................
   1   -188.0163506 -0.188016E+03  0.792E-02    0.72       0.0  T
   2   -188.0163544 -0.376007E-05  0.425E-02    0.72       1.0  T
   3   -188.0163549 -0.502105E-06  0.608E-03    0.72       1.7  T
   4   -188.0163548  0.715218E-07  0.427E-03    0.72       2.5  T
   5   -188.0163557 -0.920419E-06  0.171E-03    0.72       6.1  T
[...]
       164        2.0000           -0.4002749             -10.8920
       165        2.0000           -0.3950138             -10.7489 (HOMO)
       166        0.0000           -0.3688864             -10.0379 (LUMO)
       167                         -0.3600285              -9.7969
       168                         -0.3538197              -9.6279
       169                         -0.3486168              -9.4863
       170                         -0.3443397              -9.3700
       171                         -0.3254988              -8.8573
       172                         -0.3050180              -8.3000
       173                         -0.2990055              -8.1364
       174                         -0.2980599              -8.1106
       175                         -0.2870664              -7.8115
       176                         -0.2720878              -7.4039
       ...                                ...                  ...
       315                          1.1393300              31.0027
      -------------------------------------------------------------
                  HL-Gap            0.0261274 Eh            0.7110 eV
             Fermi-level           -0.3819483 Eh          -10.3933 eV

     #   Z        covCN         q      C6AA      α(0)
     1   6 C      2.861     0.231    23.157     7.888
     2   8 O      0.856    -0.358    20.867     6.125
     3   6 C      3.044    -0.019    28.452     8.748
     4   6 C      3.028     0.008    27.802     8.649
     5   6 C      2.998    -0.035    28.870     8.814
     6   6 C      2.981     0.080    26.214     8.398
     7   6 C      2.985     0.077    26.272     8.408
     8   6 C      2.992    -0.023    28.566     8.767
     9  35 Br     1.254    -0.096   187.692    22.090
    10  35 Br     1.261    -0.093   187.603    22.084
    11   6 C      3.016     0.029    27.328     8.575
    12   6 C      2.947     0.015    27.670     8.627
    13   6 C      1.947     0.124    28.042     8.552
    14   7 N      0.911    -0.211    25.597     7.317
    15   6 C      1.945     0.122    28.091     8.559
    16   7 N      0.911    -0.215    25.691     7.331
    17   6 C      3.000    -0.023    28.564     8.767
    18   6 C      2.895    -0.023    28.578     8.765
    19   6 C      3.073     0.129    25.116     8.217
    20   8 O      1.730    -0.144    16.465     5.479
    21   6 C      3.063     0.147    24.755     8.159
    22   6 C      3.006    -0.022    28.541     8.763
    23   6 C      2.985    -0.047    29.148     8.856
    24   7 N      2.756     0.551    13.469     5.451
    25   8 O      0.931    -0.379    21.230     6.179
    26   8 O      0.933    -0.379    21.236     6.180
    27   6 C      2.896    -0.040    28.992     8.828
    28   6 C      2.908    -0.025    28.638     8.775
    29   6 C      3.001     0.082    26.149     8.388
    30   7 N      2.832    -0.069    22.570     7.056
    31   6 C      3.739    -0.001    20.674     6.488
    32   6 C      3.752    -0.111    22.683     6.792
    33   6 C      2.842     0.268    22.494     7.773
    34   8 O      0.857    -0.405    21.773     6.256
    35   6 C      3.171    -0.070    29.347     8.850
    36   6 C      3.141    -0.067    29.401     8.873
    37   6 C      2.852     0.268    22.479     7.771
    38   8 O      0.857    -0.386    21.408     6.203
    39   7 N      2.826    -0.068    22.554     7.054
    40   6 C      3.739     0.002    20.630     6.481
    41   6 C      3.752    -0.111    22.686     6.792
    42   6 C      2.988     0.082    26.161     8.390
    43   6 C      2.899    -0.034    28.853     8.807
    44   6 C      2.898    -0.030    28.741     8.790
    45   6 C      2.962     0.002    27.987     8.677
    46   6 C      2.920     0.081    26.203     8.394
    47   7 N      1.844    -0.220    26.645     7.650
    48   6 C      2.956     0.185    24.049     8.044
    49   7 N      1.839    -0.238    27.077     7.711
    50   6 C      2.927     0.081    26.195     8.393
    51   6 C      2.911    -0.015    28.385     8.736
    52   6 C      3.007    -0.009    28.238     8.717
    53   6 C      2.867     0.232    23.157     7.888
    54   8 O      0.856    -0.328    20.299     6.041
    55   6 C      3.040    -0.017    28.384     8.738
    56   6 C      3.035     0.011    27.735     8.638
    57   6 C      3.014     0.041    27.064     8.534
    58   6 C      2.947     0.029    27.343     8.576
    59   6 C      1.933     0.135    27.784     8.512
    60   7 N      0.911    -0.224    25.887     7.359
    61   6 C      1.933     0.125    28.033     8.550
    62   7 N      0.911    -0.210    25.575     7.314
    63   6 C      2.999    -0.034    28.838     8.809
    64   6 C      2.981     0.081    26.197     8.396
    65   6 C      2.984     0.078    26.261     8.406
    66   6 C      2.993    -0.021    28.527     8.761
    67  35 Br     1.253    -0.094   187.626    22.086
    68  35 Br     1.260    -0.091   187.554    22.082
    69   1 H      0.926     0.084     1.937     2.176
    70   1 H      0.926     0.085     1.928     2.171
    71   1 H      0.926     0.085     1.932     2.173
    72   1 H      0.926     0.095     1.832     2.116
    73   1 H      0.926     0.123     1.590     1.972
    74   1 H      0.925     0.102     1.766     2.078
    75   1 H      0.924     0.060     2.202     2.320
    76   1 H      0.924     0.081     1.974     2.197
    77   1 H      0.925     0.048     2.348     2.396
    78   1 H      0.925     0.054     2.273     2.358
    79   1 H      0.925     0.052     2.300     2.372
    80   1 H      0.924     0.082     1.957     2.188
    81   1 H      0.924     0.053     2.283     2.363
    82   1 H      0.925     0.059     2.207     2.323
    83   1 H      0.925     0.054     2.272     2.357
    84   1 H      0.925     0.041     2.432     2.439
    85   1 H      0.925     0.082     1.958     2.188
    86   1 H      0.926     0.064     2.157     2.297
    87   1 H      0.925     0.064     2.158     2.297
    88   1 H      0.925     0.049     2.333     2.389
    89   1 H      0.925     0.103     1.761     2.075
    90   1 H      0.926     0.084     1.941     2.179
    91   1 H      0.926     0.091     1.873     2.140

 Mol. C6AA /au·bohr⁶  :     168455.769434
 Mol. C8AA /au·bohr⁸  :    4964342.600288
 Mol. α(0) /au        :        648.693888


Wiberg/Mayer (AO) data.
largest (>0.10) Wiberg bond orders for each atom
          total WBO             WBO to atom ...
     1  C   3.924        O    2 1.773    C   17 1.028    C    3 1.017
     2  O   2.054        C    1 1.773
     3  C   3.976        C    8 1.418    C    4 1.288    C    1 1.017
     4  C   3.983        C    5 1.399    C    3 1.288    C   11 1.086
     5  C   3.973        C    6 1.399    C    4 1.399    H   69 0.954
     6  C   3.943        C    5 1.399    C    7 1.349    Br  10 1.030
     7  C   3.935        C    8 1.393    C    6 1.349    Br   9 1.025
     8  C   3.980        C    3 1.418    C    7 1.393    H   70 0.960
     9  Br  1.196        C    7 1.025
    10  Br  1.204        C    6 1.030
    11  C   3.970        C   12 1.505    C   17 1.124    C    4 1.086
    12  C   3.940        C   11 1.505    C   15 1.092    C   13 1.089
    13  C   3.947        N   14 2.775    C   12 1.089
    14  N   2.976        C   13 2.775
    15  C   3.947        N   16 2.763    C   12 1.092
    16  N   2.974        C   15 2.763
    17  C   3.958        C   18 1.555    C   11 1.124    C    1 1.028
    18  C   3.946        C   17 1.555    C   19 1.226    H   71 0.941
    19  C   3.896        C   23 1.397    C   18 1.226    O   20 1.090
    20  O   2.460        C   21 1.150    C   19 1.090
    21  C   3.897        C   22 1.301    C   27 1.212    O   20 1.150
    22  C   3.927        C   23 1.366    C   21 1.301    N   24 1.000
    23  C   3.953        C   19 1.397    C   22 1.366    H   72 0.966
    24  N   3.913        O   25 1.440    O   26 1.439    C   22 1.000
    25  O   1.927        N   24 1.440    O   26 0.363
    26  O   1.912        N   24 1.439    O   25 0.363
    27  C   3.928        C   28 1.590    C   21 1.212    H   73 0.943
    28  C   3.962        C   27 1.590    C   29 1.220    H   74 0.945
    29  C   3.929        C   36 1.319    C   28 1.220    N   30 1.186
    30  N   3.570        C   29 1.186    C   33 1.075    C   31 0.982    O   34 0.122
    31  C   3.959        C   32 1.006    N   30 0.982    H   76 0.965    H   75 0.964
    32  C   3.989        C   31 1.006    H   79 0.987    H   77 0.985    H   78 0.983
    33  C   3.943        O   34 1.681    N   30 1.075    C   35 1.072
    34  O   2.013        C   33 1.681    N   30 0.122
    35  C   3.939        C   42 1.322    C   36 1.252    C   33 1.072
    36  C   3.936        C   29 1.319    C   35 1.252    C   37 1.073
    37  C   3.940        O   38 1.694    C   36 1.073    N   39 1.057
    38  O   2.030        C   37 1.694    N   39 0.114
    39  N   3.568        C   42 1.202    C   37 1.057    C   40 0.983    O   38 0.114
    40  C   3.959        C   41 1.004    N   39 0.983    H   81 0.965    H   80 0.963
    41  C   3.988        C   40 1.004    H   82 0.986    H   84 0.984    H   83 0.983
    42  C   3.919        C   35 1.322    N   39 1.202    C   43 1.191
    43  C   3.969        C   44 1.659    C   42 1.191    H   85 0.951
    44  C   3.927        C   43 1.659    C   45 1.151    H   86 0.952
    45  C   3.972        C   50 1.319    C   46 1.311    C   44 1.151
    46  C   3.956        N   47 1.502    C   45 1.311    H   87 0.956
    47  N   3.069        C   46 1.502    C   48 1.335
    48  C   3.946        N   47 1.335    N   49 1.326    C   51 1.118
    49  N   3.081        C   50 1.493    C   48 1.326
    50  C   3.951        N   49 1.493    C   45 1.319    H   88 0.959
    51  C   3.943        C   52 1.653    C   48 1.118    H   89 0.949
    52  C   3.961        C   51 1.653    C   57 1.103    C   53 0.989
    53  C   3.925        O   54 1.814    C   55 1.016    C   52 0.989
    54  O   2.086        C   53 1.814
    55  C   3.977        C   66 1.416    C   56 1.284    C   53 1.016
    56  C   3.984        C   63 1.399    C   55 1.284    C   57 1.082
    57  C   3.977        C   58 1.527    C   52 1.103    C   56 1.082
    58  C   3.972        C   57 1.527    C   61 1.091    C   59 1.085
    59  C   3.946        N   60 2.771    C   58 1.085
    60  N   2.985        C   59 2.771
    61  C   3.948        N   62 2.780    C   58 1.091
    62  N   2.983        C   61 2.780
    63  C   3.976        C   64 1.400    C   56 1.399    H   90 0.956
    64  C   3.945        C   63 1.400    C   65 1.348    Br  68 1.030
    65  C   3.937        C   66 1.395    C   64 1.348    Br  67 1.026
    66  C   3.982        C   55 1.416    C   65 1.395    H   91 0.959
    67  Br  1.197        C   65 1.026
    68  Br  1.203        C   64 1.030
    69  H   0.992        C    5 0.954
    70  H   0.992        C    8 0.960
    71  H   0.992        C   18 0.941
    72  H   0.990        C   23 0.966
    73  H   0.984        C   27 0.943
    74  H   0.989        C   28 0.945
    75  H   0.995        C   31 0.964
    76  H   0.992        C   31 0.965
    77  H   0.998        C   32 0.985
    78  H   0.996        C   32 0.983
    79  H   0.997        C   32 0.987
    80  H   0.992        C   40 0.963
    81  H   0.996        C   40 0.965
    82  H   0.996        C   41 0.986
    83  H   0.996        C   41 0.983
    84  H   0.998        C   41 0.984
    85  H   0.993        C   43 0.951
    86  H   0.996        C   44 0.952
    87  H   0.995        C   46 0.956
    88  H   0.997        C   50 0.959
    89  H   0.987        C   51 0.949
    90  H   0.992        C   63 0.956
    91  H   0.991        C   66 0.959

molecular dipole:
                 x           y           z       tot (Debye)
 q only:        0.811      -0.272       0.784
   full:        0.591       0.261       0.692       2.406
molecular quadrupole (traceless):
                xx          xy          yy          xz          yz          zz
 q only:       19.266     -32.357     -32.543     -29.809       5.668      13.277
  q+dip:       44.890     -25.887     -84.601     -40.061       6.733      39.711
   full:       54.189     -25.621     -90.054     -49.478       6.877      35.864

           -------------------------------------------------
          |                Geometry Summary                 |
           -------------------------------------------------

      molecular mass/u    :     1157.3818000
   center of mass at/Å    :        0.7945126     -11.7630040       2.8169576
  moments of inertia/u·Å² :        0.1308648E+05   0.1027312E+06   0.1119483E+06
rotational constants/cm⁻¹ :        0.1288171E-02   0.1640946E-03   0.1505841E-03

 * 84 selected distances

     #   Z        #   Z                                     value/Å
     1   6 C      2   8 O                                 1.2109296
     3   6 C      4   6 C                                 1.4044897
     4   6 C      5   6 C                                 1.3861128
     5   6 C      6   6 C                                 1.3903675
     6   6 C      7   6 C                                 1.3972246
     3   6 C      8   6 C                                 1.3796152
     7   6 C      8   6 C                                 1.3882979
     7   6 C      9  35 Br                                1.8892478
     6   6 C     10  35 Br                                1.8899702 (max)
    11   6 C     12   6 C                                 1.3687966
    13   6 C     14   7 N                                 1.1470320
    15   6 C     16   7 N                                 1.1479146
    17   6 C     18   6 C                                 1.3670651
    18   6 C     19   6 C                                 1.4120025
    19   6 C     20   8 O                                 1.3511597
    20   8 O     21   6 C                                 1.3368276
    21   6 C     22   6 C                                 1.4083591
    19   6 C     23   6 C                                 1.3903446
    22   6 C     23   6 C                                 1.4003120
    22   6 C     24   7 N                                 1.4199439
    24   7 N     25   8 O                                 1.2120889
    24   7 N     26   8 O                                 1.2129808
    21   6 C     27   6 C                                 1.4167744
    27   6 C     28   6 C                                 1.3627668
    28   6 C     29   6 C                                 1.4127802
    29   6 C     30   7 N                                 1.3754705
    30   7 N     31   6 C                                 1.4437511
    31   6 C     32   6 C                                 1.5261754
    30   7 N     33   6 C                                 1.4082343
    33   6 C     34   8 O                                 1.2114378
    33   6 C     35   6 C                                 1.4490782
    29   6 C     36   6 C                                 1.3954771
    35   6 C     36   6 C                                 1.4110516
    36   6 C     37   6 C                                 1.4479677
    37   6 C     38   8 O                                 1.2094886
    37   6 C     39   7 N                                 1.4167076
    39   7 N     40   6 C                                 1.4436323
    40   6 C     41   6 C                                 1.5274952
    35   6 C     42   6 C                                 1.3951026
    39   7 N     42   6 C                                 1.3712969
    42   6 C     43   6 C                                 1.4231699
    43   6 C     44   6 C                                 1.3518950
    45   6 C     46   6 C                                 1.4074007
    46   6 C     47   7 N                                 1.3100126
    47   7 N     48   6 C                                 1.3348345
    48   6 C     49   7 N                                 1.3371490
    45   6 C     50   6 C                                 1.4055429
    49   7 N     50   6 C                                 1.3107817
    51   6 C     52   6 C                                 1.3501568
    53   6 C     54   8 O                                 1.2044167
    55   6 C     56   6 C                                 1.4083276
    57   6 C     58   6 C                                 1.3635921
    59   6 C     60   7 N                                 1.1474527
    61   6 C     62   7 N                                 1.1468374
    56   6 C     63   6 C                                 1.3851877
    63   6 C     64   6 C                                 1.3898558
    64   6 C     65   6 C                                 1.3981506
    55   6 C     66   6 C                                 1.3804336
    65   6 C     66   6 C                                 1.3886396
    65   6 C     67  35 Br                                1.8886002
    64   6 C     68  35 Br                                1.8886001
     5   6 C     69   1 H                                 1.0775661
     8   6 C     70   1 H                                 1.0789630
    18   6 C     71   1 H                                 1.0810980
    23   6 C     72   1 H                                 1.0711300 (min)
    27   6 C     73   1 H                                 1.0811097
    28   6 C     74   1 H                                 1.0820582
    31   6 C     75   1 H                                 1.0932107
    31   6 C     76   1 H                                 1.0935786
    32   6 C     77   1 H                                 1.0874552
    32   6 C     78   1 H                                 1.0861912
    32   6 C     79   1 H                                 1.0873234
    40   6 C     80   1 H                                 1.0943238
    40   6 C     81   1 H                                 1.0918392
    41   6 C     82   1 H                                 1.0869798
    41   6 C     83   1 H                                 1.0864402
    41   6 C     84   1 H                                 1.0882780
    43   6 C     85   1 H                                 1.0827926
    44   6 C     86   1 H                                 1.0797299
    46   6 C     87   1 H                                 1.0817719
    50   6 C     88   1 H                                 1.0837407
    51   6 C     89   1 H                                 1.0839003
    63   6 C     90   1 H                                 1.0782183
    66   6 C     91   1 H                                 1.0790236

 * 6 distinct bonds (by element types)

   Z      Z             #   av. dist./Å        max./Å        min./Å
   1 H    6 C          23     1.0842053     1.0943238     1.0711300
   6 C    6 C          34     1.4026473     1.5274952     1.3501568
   6 C    7 N          15     1.3174034     1.4437511     1.1468374
   6 C    8 O           6     1.2540433     1.3511597     1.2044167
   7 N    8 O           2     1.2125349     1.2129808     1.2120889
   6 C   35 Br          4     1.8891046     1.8899702     1.8886001


optimized geometry written to: xtbopt.xyz


           -------------------------------------------------
          | TOTAL ENERGY             -185.346107365101 Eh   |
          | GRADIENT NORM               0.000972412705 Eh/α |
          | HOMO-LUMO GAP               0.710961740657 eV   |
           -------------------------------------------------

------------------------------------------------------------------------
 * finished run on 2021/09/14 at 20:14:54.983     
------------------------------------------------------------------------
 total:
 * wall-time:     0 d,  0 h,  0 min, 34.122 sec
 *  cpu-time:     0 d,  0 h,  5 min,  6.837 sec
 * ratio c/w:     8.992 speedup
 SCF:
 * wall-time:     0 d,  0 h,  0 min,  0.531 sec
 *  cpu-time:     0 d,  0 h,  0 min,  4.769 sec
 * ratio c/w:     8.981 speedup
 ANC optimizer:
 * wall-time:     0 d,  0 h,  0 min, 33.372 sec
 *  cpu-time:     0 d,  0 h,  5 min,  0.350 sec
 * ratio c/w:     9.000 speedup

