      -----------------------------------------------------------      
     |                   =====================                   |     
     |                           x T B                           |     
     |                   =====================                   |     
     |                         S. Grimme                         |     
     |          Mulliken Center for Theoretical Chemistry        |     
     |                    University of Bonn                     |     
     |                Version 6.2 RC2 (SAW190805)                |     
      -----------------------------------------------------------      

   This program is distributed in the hope that it will be useful,
   but WITHOUT ANY WARRANTY; without even the implied warranty of
   MERCHANTABILITY or FITNESS FOR A PARTICULAR PURPOSE.
   
   FOR NON-COMMERCIAL, ACADEMIA USE ONLY.
   
   Cite this work as:
   * S. Grimme, C. Bannwarth, P. Shushkov, J. Chem. Theory Comput., 2017,
     13, 1989-2009. DOI: 10.1021/acs.jctc.7b00118
   * C. Bannwarth, S. Ehlert and S. Grimme., J. Chem. Theory Comput., 2019,
     15, 1652-1671. DOI: 10.1021/acs.jctc.8b01176
   * P. Pracht, E. Caldeweyher, S. Ehlert, S. Grimme, ChemRxiv, 2019, preprint.
     DOI: 10.26434/chemrxiv.8326202.v1
   
   for DFT-D4:
   * E. Caldeweyher, C. Bannwarth and S. Grimme, J. Chem. Phys., 2017,
     147, 034112. DOI: 10.1063/1.4993215
   * E. Caldeweyher, S. Ehlert, A. Hansen, H. Neugebauer, S. Spicher,
     C. Bannwarth and S. Grimme, J. Chem. Phys., 2019, 150, 154122.
     DOI: 10.1063/1.5090222
   
   for sTDA-xTB:
   * S. Grimme and C. Bannwarth, J. Chem. Phys., 2016, 145, 054103.
     DOI: 10.1063/1.4959605
   
   in the mass-spec context:
   * V. Asgeirsson, C. Bauer and S. Grimme, Chem. Sci., 2017, 8, 4879.
     DOI: 10.1039/c7sc00601b
   
   for metadynamics refer to:
   * S. Grimme, J. Chem. Theory Comput., 2019, 155, 2847-2862
     DOI: 10.1021/acs.jctc.9b00143
   
   with help from (in alphabetical order)
   C. Bannwarth, F. Bohle, G. Brandenburg, E. Caldeweyher, M. Checinski,
   S. Dohm, S. Ehlert, S. Ehrlich, F. März, H. Neugebauer, J. Pisarek,
   P. Pracht, P. Shushkov, and S. Spicher.
   
 * started run on 2021/09/15 at 23:18:55.742     

           -------------------------------------------------
          |                Calculation Setup                |
           -------------------------------------------------

          program call               : /ihome/ghutchison/geoffh/xtb/xtb /ihome/ghutchison/blp62/GA/running_GA/v5/generations/86/263_7_580_22_263_13051.xyz -opt
          hostname                   : smp-n5
          coordinate file            : /ihome/ghutchison/blp62/GA/running_GA/v5/generations/86/263_7_580_22_263_13051.xyz
          omp threads                :                    12
          number of atoms            :                    92
          number of electrons        :                   304
          charge                     :                     0
          spin                       :                   0.0
          first test random number   :      0.71995262438244


########################################################################
# WARNING! Please study the warnings concerning your input carefully
#  - XTBPATH is not set, using XTBHOME instead
#  - the use of '-opt' is discouraged, please use '--opt' next time
########################################################################

           ------------------------------------------------- 
          |                 G F N 2 - x T B                 |
          | Geometry, Frequencies, Noncovalent interactions |
          |            JCTC 2019 parametrisation            |
           ------------------------------------------------- 
             KAB for C  - Si     :                1.0500
             KAB for H  - Pd     :                0.9500
             k(s)              :                1.8500
             k(p)              :                2.2300
             k(d)              :                2.2300
             k(f)              :                2.0000
             kEN (H0ij)        :               -2.0000
             D4 a1             :                0.5200
             D4 a2             :                5.0000
             D4 s6             :                1.0000
             D4 s8             :                2.7000
             D4 s9             :                5.0000
             alphaj            :                2.0000

  Z AO/shell   Hii/eV     exponent
  1     Wed Apr 25 08:07:45 CEST 2018   EN: 2.200 GM2: 0.406  GM3: 0.0800  RAES: 1.40
     1s    -10.707211    1.230000
  6     Wed Apr 25 08:07:45 CEST 2018   EN: 2.550 GM2: 0.538  GM3: 0.1500  RAES: 3.00
     2s    -13.970922    2.096432
     2p    -10.063292    1.800000
  7     Wed Apr 25 08:07:45 CEST 2018   EN: 3.040 GM2: 0.461  GM3:-0.0640  RAES: 1.90
     2s    -16.686243    2.339881
     2p    -12.523956    2.014332
  8     Wed Apr 25 08:07:45 CEST 2018   EN: 3.440 GM2: 0.452  GM3:-0.0517  RAES: 1.80
     2s    -20.229985    2.439742
     2p    -15.503117    2.137023
 16     Tue Apr 24 11:44:34 CEST 2018   EN: 2.580 GM2: 0.340  GM3:-0.0502  RAES: 3.10
     3s    -20.029654    1.981333
     3p    -11.377694    2.025643
     3d     -0.420282    1.702555

           ------------------------------------------------- 
          |        Self-Consistent Charge Iterations        |
           ------------------------------------------------- 

          ...................................................
          :                      SETUP                      :
          :.................................................:
          :  # basis functions                 287          :
          :  # atomic orbitals                 286          :
          :  # shells                          156          :
          :  # electrons                       304          :
          :  max. iterations                   250          :
          :  Hamiltonian                  GFN2-xTB          :
          :  restarted?                      false          :
          :  GBSA solvation                  false          :
          :  PC potential                    false          :
          :  electronic temp.          300.0000000     K    :
          :  accuracy                    1.0000000          :
          :  -> integral cutoff          0.2500000E+02      :
          :  -> integral neglect         0.1000000E-07      :
          :  -> SCF convergence          0.1000000E-05 Eh   :
          :  -> wf. convergence          0.1000000E-03 e    :
          :  Broyden damping             0.4000000          :
          ...................................................

 iter      E             dE          RMSdq      gap      omega  full diag
   1   -170.6029520 -0.170603E+03  0.490E+00    0.93       0.0  T
   2   -170.9110415 -0.308090E+00  0.319E+00    0.89       1.0  T
   3   -170.9399854 -0.289439E-01  0.194E+00    0.58       1.0  T
   4   -170.9951895 -0.552041E-01  0.951E-01    0.92       1.0  T
   5   -171.0619259 -0.667364E-01  0.307E-01    0.54       1.0  T
   6   -171.0694857 -0.755988E-02  0.149E-01    0.70       1.0  T
   7   -171.0709914 -0.150562E-02  0.833E-02    0.65       1.0  T
   8   -171.0714597 -0.468325E-03  0.276E-02    0.64       1.0  T
   9   -171.0714924 -0.327258E-04  0.155E-02    0.65       1.0  T
  10   -171.0715043 -0.118563E-04  0.723E-03    0.65       1.4  T
  11   -171.0715073 -0.306869E-05  0.308E-03    0.65       3.4  T
  12   -171.0715075 -0.178231E-06  0.152E-03    0.65       6.8  T
  13   -171.0715077 -0.130429E-06  0.640E-04    0.65      16.3  T
  14   -171.0715077 -0.465201E-08  0.339E-04    0.65      30.7  T

   *** convergence criteria satisfied after 14 iterations ***

         #    Occupation            Energy/Eh            Energy/eV
      -------------------------------------------------------------
         1        2.0000           -0.7733904             -21.0450
       ...           ...                  ...                  ...
       146        2.0000           -0.4129875             -11.2380
       147        2.0000           -0.4126866             -11.2298
       148        2.0000           -0.4114946             -11.1973
       149        2.0000           -0.4088951             -11.1266
       150        2.0000           -0.4053837             -11.0311
       151        2.0000           -0.4036389             -10.9836
       152        2.0000           -0.3841275             -10.4526 (HOMO)
       153        0.0000           -0.3602690              -9.8034 (LUMO)
       154                         -0.3277833              -8.9194
       155                         -0.3221139              -8.7652
       156                         -0.3215882              -8.7509
       157                         -0.2956311              -8.0445
       ...                                ...                  ...
       286                          1.1138167              30.3085
      -------------------------------------------------------------
                  HL-Gap            0.0238585 Eh            0.6492 eV
             Fermi-level           -0.3721983 Eh          -10.1280 eV

 SCC (total)                   0 d,  0 h,  0 min,  0.150 sec
 SCC setup                      ...        0 min,  0.002 sec (  1.054%)
 Dispersion                     ...        0 min,  0.003 sec (  2.283%)
 integral evaluation            ...        0 min,  0.014 sec (  9.352%)
 zeroth order Hamiltonian       ...        0 min,  0.001 sec (  0.539%)
 iterations                     ...        0 min,  0.117 sec ( 77.746%)
 molecular gradient             ...        0 min,  0.013 sec (  8.534%)
 printout                       ...        0 min,  0.001 sec (  0.436%)

         :::::::::::::::::::::::::::::::::::::::::::::::::::::
         ::                     SUMMARY                     ::
         :::::::::::::::::::::::::::::::::::::::::::::::::::::
         :: total energy            -168.516936034915 Eh    ::
         :: gradient norm              0.180523645460 Eh/a0 ::
         :: HOMO-LUMO gap              0.649222574044 eV    ::
         ::.................................................::
         :: SCC energy              -171.071507659053 Eh    ::
         :: -> isotropic ES            0.186244127269 Eh    ::
         :: -> anisotropic ES          0.016894761444 Eh    ::
         :: -> anisotropic XC          0.124452743548 Eh    ::
         :: -> dispersion             -0.122317416627 Eh    ::
         :: repulsion energy           2.555386631755 Eh    ::
         :: add. restraining           0.000000000000 Eh    ::
         :::::::::::::::::::::::::::::::::::::::::::::::::::::

      ----------------------------------------------------------- 
     |                   =====================                   |
     |                        A N C O P T                        |
     |                   =====================                   |
     |               Approximate Normal Coordinate               |
     |                Rational Function Optimizer                |
      ----------------------------------------------------------- 

          ...................................................
          :                      SETUP                      :
          :.................................................:
          :   optimization level            normal          :
          :   max. optcycles                   276          :
          :   ANC micro-cycles                  20          :
          :   degrees of freedom               270          :
          :.................................................:
          :   RF solver                   davidson          :
          :   input Hessian                  false          :
          :   write xtbopt.log                true          :
          :   linear?                        false          :
          :   energy convergence         0.5000000E-05 Eh   :
          :   grad. convergence          0.1000000E-02 Eh/α :
          :   maximium RF displ.         2.0000000          :
          :   Hlow (freq-cutoff)         0.5000000E-02      :
          :   Hmax (freq-cutoff)         5.0000000          :
          :   S6 in model hess.         20.0000000          :
          ...................................................

generating ANC from model Hessian ...
Using Lindh-Hessian (1995)
 Shifting diagonal of input Hessian by   4.985601771060482E-003
 Lowest  eigenvalues of input Hessian
   -0.000000   -0.000000    0.000000    0.000000    0.000000    0.000000
    0.005000    0.005008    0.005016    0.005072    0.005100    0.005179
    0.005235    0.005342    0.005524    0.005581    0.005865    0.005916
 Highest eigenvalues
    2.367699    2.377118    2.393092    2.527335    2.573797    2.590773
 

........................................................................
.............................. CYCLE    1 ..............................
........................................................................
   1   -171.0715077 -0.171072E+03  0.141E-04    0.65       0.0  T
   2   -171.0715077  0.159417E-09  0.131E-04    0.65      79.6  T
   3   -171.0715077 -0.131863E-08  0.518E-05    0.65     201.1  T
     SCC iter.                  ...        0 min,  0.025 sec
     gradient                   ...        0 min,  0.012 sec
 * total energy  :  -168.5169360 Eh     change        0.6547779E-07 Eh
   gradient norm :     0.1805270 Eh/α   predicted     0.0000000E+00 (-100.00%)
   displ. norm   :     0.4285686 α      lambda       -0.3776980E-01
   maximum displ.:     0.1172262 α      in ANC's #71, #91, #64, ...

........................................................................
.............................. CYCLE    2 ..............................
........................................................................
   1   -171.1666574 -0.171167E+03  0.274E-01    0.54       0.0  T
   2   -171.1669845 -0.327035E-03  0.155E-01    0.61       1.0  T
   3   -171.1654182  0.156623E-02  0.135E-01    0.53       1.0  T
   4   -171.1670722 -0.165397E-02  0.520E-02    0.61       1.0  T
   5   -171.1673134 -0.241183E-03  0.214E-02    0.59       1.0  T
   6   -171.1673500 -0.365844E-04  0.848E-03    0.59       1.2  T
   7   -171.1673524 -0.245301E-05  0.488E-03    0.59       2.1  T
   8   -171.1673543 -0.186365E-05  0.151E-03    0.59       6.9  T
     SCC iter.                  ...        0 min,  0.062 sec
     gradient                   ...        0 min,  0.012 sec
 * total energy  :  -168.5431673 Eh     change       -0.2623129E-01 Eh
   gradient norm :     0.0803321 Eh/α   predicted    -0.2235369E-01 ( -14.78%)
   displ. norm   :     0.4647473 α      lambda       -0.1607770E-01
   maximum displ.:     0.1621538 α      in ANC's #42, #41, #71, ...

........................................................................
.............................. CYCLE    3 ..............................
........................................................................
   1   -171.2061562 -0.171206E+03  0.230E-01    0.50       0.0  T
   2   -171.2063283 -0.172043E-03  0.135E-01    0.59       1.0  T
   3   -171.2043906  0.193767E-02  0.141E-01    0.49       1.0  T
   4   -171.2064934 -0.210280E-02  0.522E-02    0.57       1.0  T
   5   -171.2067309 -0.237550E-03  0.223E-02    0.56       1.0  T
   6   -171.2067778 -0.468635E-04  0.821E-03    0.55       1.3  T
   7   -171.2067814 -0.356591E-05  0.456E-03    0.55       2.3  T
   8   -171.2067826 -0.123417E-05  0.150E-03    0.55       6.9  T
     SCC iter.                  ...        0 min,  0.062 sec
     gradient                   ...        0 min,  0.012 sec
 * total energy  :  -168.5533713 Eh     change       -0.1020400E-01 Eh
   gradient norm :     0.0282230 Eh/α   predicted    -0.9775165E-02 (  -4.20%)
   displ. norm   :     0.4730314 α      lambda       -0.5383198E-02
   maximum displ.:     0.1743045 α      in ANC's #41, #42, #17, ...

........................................................................
.............................. CYCLE    4 ..............................
........................................................................
   1   -171.2023513 -0.171202E+03  0.198E-01    0.51       0.0  T
   2   -171.2023203  0.310375E-04  0.116E-01    0.56       1.0  T
   3   -171.1999776  0.234266E-02  0.131E-01    0.47       1.0  T
   4   -171.2024152 -0.243761E-02  0.276E-02    0.55       1.0  T
   5   -171.2024921 -0.768979E-04  0.120E-02    0.54       1.0  T
   6   -171.2025063 -0.141780E-04  0.458E-03    0.54       2.3  T
   7   -171.2025069 -0.558870E-06  0.273E-03    0.54       3.8  T
   8   -171.2025073 -0.459354E-06  0.103E-03    0.54      10.1  T
     SCC iter.                  ...        0 min,  0.062 sec
     gradient                   ...        0 min,  0.012 sec
 * total energy  :  -168.5569195 Eh     change       -0.3548214E-02 Eh
   gradient norm :     0.0231293 Eh/α   predicted    -0.3293873E-02 (  -7.17%)
   displ. norm   :     0.6009057 α      lambda       -0.4524746E-02
   maximum displ.:     0.2306262 α      in ANC's #42, #41, #33, ...

........................................................................
.............................. CYCLE    5 ..............................
........................................................................
   1   -171.1950893 -0.171195E+03  0.268E-01    0.52       0.0  T
   2   -171.1951026 -0.132848E-04  0.152E-01    0.55       1.0  T
   3   -171.1928175  0.228514E-02  0.124E-01    0.47       1.0  T
   4   -171.1951243 -0.230681E-02  0.301E-02    0.55       1.0  T
   5   -171.1952295 -0.105188E-03  0.942E-03    0.54       1.1  T
   6   -171.1952331 -0.366109E-05  0.595E-03    0.54       1.8  T
   7   -171.1952355 -0.239635E-05  0.266E-03    0.54       3.9  T
     SCC iter.                  ...        0 min,  0.056 sec
     gradient                   ...        0 min,  0.012 sec
 * total energy  :  -168.5593834 Eh     change       -0.2463886E-02 Eh
   gradient norm :     0.0251308 Eh/α   predicted    -0.3079313E-02 (  24.98%)
   displ. norm   :     0.4733969 α      lambda       -0.3210566E-02
   maximum displ.:     0.1917638 α      in ANC's #17, #33, #41, ...

........................................................................
.............................. CYCLE    6 ..............................
........................................................................
   1   -171.1975603 -0.171198E+03  0.190E-01    0.53       0.0  T
   2   -171.1975885 -0.281831E-04  0.108E-01    0.55       1.0  T
   3   -171.1971143  0.474236E-03  0.617E-02    0.51       1.0  T
   4   -171.1975797 -0.465401E-03  0.192E-02    0.55       1.0  T
   5   -171.1976215 -0.417722E-04  0.763E-03    0.54       1.4  T
   6   -171.1976253 -0.382011E-05  0.413E-03    0.54       2.5  T
   7   -171.1976263 -0.104830E-05  0.226E-03    0.54       4.6  T
     SCC iter.                  ...        0 min,  0.056 sec
     gradient                   ...        0 min,  0.012 sec
 * total energy  :  -168.5616251 Eh     change       -0.2241753E-02 Eh
   gradient norm :     0.0229315 Eh/α   predicted    -0.1965035E-02 ( -12.34%)
   displ. norm   :     0.5523014 α      lambda       -0.3550532E-02
   maximum displ.:     0.2091962 α      in ANC's #17, #12, #13, ...

........................................................................
.............................. CYCLE    7 ..............................
........................................................................
   1   -171.2013321 -0.171201E+03  0.230E-01    0.54       0.0  T
   2   -171.2013878 -0.557626E-04  0.130E-01    0.56       1.0  T
   3   -171.2005599  0.827876E-03  0.815E-02    0.51       1.0  T
   4   -171.2013119 -0.751948E-03  0.302E-02    0.56       1.0  T
   5   -171.2014408 -0.128897E-03  0.926E-03    0.55       1.1  T
   6   -171.2014466 -0.579764E-05  0.456E-03    0.55       2.3  T
   7   -171.2014471 -0.471679E-06  0.303E-03    0.55       3.4  T
     SCC iter.                  ...        0 min,  0.057 sec
     gradient                   ...        0 min,  0.012 sec
 * total energy  :  -168.5637266 Eh     change       -0.2101454E-02 Eh
   gradient norm :     0.0225003 Eh/α   predicted    -0.2316797E-02 (  10.25%)
   displ. norm   :     0.5489477 α      lambda       -0.2624521E-02
   maximum displ.:     0.2099963 α      in ANC's #33, #17, #12, ...

........................................................................
.............................. CYCLE    8 ..............................
........................................................................
   1   -171.2014700 -0.171201E+03  0.193E-01    0.54       0.0  T
   2   -171.2014822 -0.122668E-04  0.110E-01    0.56       1.0  T
   3   -171.2006162  0.866014E-03  0.792E-02    0.51       1.0  T
   4   -171.2014797 -0.863503E-03  0.193E-02    0.56       1.0  T
   5   -171.2015256 -0.458875E-04  0.694E-03    0.55       1.5  T
   6   -171.2015275 -0.189165E-05  0.412E-03    0.55       2.5  T
   7   -171.2015288 -0.127123E-05  0.184E-03    0.55       5.7  T
     SCC iter.                  ...        0 min,  0.056 sec
     gradient                   ...        0 min,  0.012 sec
 * total energy  :  -168.5656421 Eh     change       -0.1915566E-02 Eh
   gradient norm :     0.0236621 Eh/α   predicted    -0.1707709E-02 ( -10.85%)
   displ. norm   :     0.5690227 α      lambda       -0.2183823E-02
   maximum displ.:     0.2121345 α      in ANC's #17, #12, #7, ...

........................................................................
.............................. CYCLE    9 ..............................
........................................................................
   1   -171.2064638 -0.171206E+03  0.179E-01    0.54       0.0  T
   2   -171.2064211  0.427347E-04  0.105E-01    0.56       1.0  T
   3   -171.2040493  0.237182E-02  0.127E-01    0.50       1.0  T
   4   -171.2064711 -0.242186E-02  0.213E-02    0.56       1.0  T
   5   -171.2065302 -0.590236E-04  0.763E-03    0.55       1.4  T
   6   -171.2065335 -0.336448E-05  0.347E-03    0.55       3.0  T
   7   -171.2065341 -0.606724E-06  0.163E-03    0.55       6.4  T
     SCC iter.                  ...        0 min,  0.056 sec
     gradient                   ...        0 min,  0.012 sec
 * total energy  :  -168.5672996 Eh     change       -0.1657452E-02 Eh
   gradient norm :     0.0185064 Eh/α   predicted    -0.1445461E-02 ( -12.79%)
   displ. norm   :     0.6394913 α      lambda       -0.1983032E-02
   maximum displ.:     0.2277141 α      in ANC's #12, #17, #7, ...

........................................................................
.............................. CYCLE   10 ..............................
........................................................................
   1   -171.2078409 -0.171208E+03  0.193E-01    0.54       0.0  T
   2   -171.2077353  0.105553E-03  0.115E-01    0.57       1.0  T
   3   -171.2033777  0.435764E-02  0.165E-01    0.48       1.0  T
   4   -171.2078584 -0.448075E-02  0.228E-02    0.56       1.0  T
   5   -171.2079300 -0.715551E-04  0.872E-03    0.55       1.2  T
   6   -171.2079351 -0.509334E-05  0.374E-03    0.55       2.8  T
   7   -171.2079354 -0.335451E-06  0.209E-03    0.55       5.0  T
   8   -171.2079358 -0.368332E-06  0.878E-04    0.55      11.9  T
     SCC iter.                  ...        0 min,  0.065 sec
     gradient                   ...        0 min,  0.014 sec
 * total energy  :  -168.5686103 Eh     change       -0.1310731E-02 Eh
   gradient norm :     0.0195253 Eh/α   predicted    -0.1397010E-02 (   6.58%)
   displ. norm   :     0.5611156 α      lambda       -0.1946464E-02
   maximum displ.:     0.2042117 α      in ANC's #12, #7, #17, ...

........................................................................
.............................. CYCLE   11 ..............................
........................................................................
   1   -171.2148628 -0.171215E+03  0.169E-01    0.55       0.0  T
   2   -171.2148904 -0.276745E-04  0.966E-02    0.55       1.0  T
   3   -171.2145337  0.356774E-03  0.581E-02    0.54       1.0  T
   4   -171.2148386 -0.304908E-03  0.239E-02    0.56       1.0  T
   5   -171.2149080 -0.694006E-04  0.102E-02    0.55       1.0  T
   6   -171.2149203 -0.123385E-04  0.375E-03    0.55       2.8  T
   7   -171.2149213 -0.948952E-06  0.169E-03    0.55       6.2  T
   8   -171.2149215 -0.250550E-06  0.665E-04    0.55      15.7  T
     SCC iter.                  ...        0 min,  0.062 sec
     gradient                   ...        0 min,  0.012 sec
 * total energy  :  -168.5696608 Eh     change       -0.1050495E-02 Eh
   gradient norm :     0.0180540 Eh/α   predicted    -0.1279659E-02 (  21.81%)
   displ. norm   :     0.5999472 α      lambda       -0.1603312E-02
   maximum displ.:     0.2120184 α      in ANC's #17, #12, #7, ...

........................................................................
.............................. CYCLE   12 ..............................
........................................................................
   1   -171.1958043 -0.171196E+03  0.175E-01    0.55       0.0  T
   2   -171.1957776  0.267252E-04  0.102E-01    0.56       1.0  T
   3   -171.1937786  0.199901E-02  0.114E-01    0.51       1.0  T
   4   -171.1957968 -0.201818E-02  0.192E-02    0.56       1.0  T
   5   -171.1958449 -0.481386E-04  0.769E-03    0.55       1.4  T
   6   -171.1958478 -0.289787E-05  0.426E-03    0.55       2.4  T
   7   -171.1958495 -0.165507E-05  0.195E-03    0.55       5.3  T
   8   -171.1958499 -0.393252E-06  0.696E-04    0.55      15.0  T
     SCC iter.                  ...        0 min,  0.061 sec
     gradient                   ...        0 min,  0.012 sec
 * total energy  :  -168.5700778 Eh     change       -0.4170047E-03 Eh
   gradient norm :     0.0250875 Eh/α   predicted    -0.1090201E-02 ( 161.44%)
   displ. norm   :     0.2879118 α      lambda       -0.1863617E-02
   maximum displ.:     0.1135963 α      in ANC's #8, #7, #12, ...

........................................................................
.............................. CYCLE   13 ..............................
........................................................................
   1   -171.2040003 -0.171204E+03  0.874E-02    0.56       0.0  T
   2   -171.2039491  0.511997E-04  0.524E-02    0.55       1.0  T
   3   -171.2030978  0.851356E-03  0.822E-02    0.59       1.0  T
   4   -171.2040239 -0.926176E-03  0.105E-02    0.56       1.0  T
   5   -171.2040302 -0.625395E-05  0.546E-03    0.56       1.9  T
   6   -171.2040324 -0.225307E-05  0.312E-03    0.56       3.3  T
   7   -171.2040333 -0.844600E-06  0.125E-03    0.56       8.4  T
     SCC iter.                  ...        0 min,  0.054 sec
     gradient                   ...        0 min,  0.012 sec
 * total energy  :  -168.5711308 Eh     change       -0.1052988E-02 Eh
   gradient norm :     0.0170283 Eh/α   predicted    -0.1009053E-02 (  -4.17%)
   displ. norm   :     0.3897146 α      lambda       -0.1082804E-02
   maximum displ.:     0.1684177 α      in ANC's #8, #12, #7, ...

........................................................................
.............................. CYCLE   14 ..............................
........................................................................
   1   -171.2133147 -0.171213E+03  0.119E-01    0.57       0.0  T
   2   -171.2133153 -0.664133E-06  0.680E-02    0.56       1.0  T
   3   -171.2127889  0.526421E-03  0.586E-02    0.59       1.0  T
   4   -171.2133293 -0.540366E-03  0.983E-03    0.56       1.1  T
   5   -171.2133379 -0.865120E-05  0.408E-03    0.56       2.6  T
   6   -171.2133383 -0.356186E-06  0.253E-03    0.56       4.1  T
   7   -171.2133387 -0.431550E-06  0.102E-03    0.56      10.2  T
     SCC iter.                  ...        0 min,  0.054 sec
     gradient                   ...        0 min,  0.012 sec
 * total energy  :  -168.5717657 Eh     change       -0.6349411E-03 Eh
   gradient norm :     0.0195047 Eh/α   predicted    -0.6236291E-03 (  -1.78%)
   displ. norm   :     0.5581712 α      lambda       -0.1184981E-02
   maximum displ.:     0.2431525 α      in ANC's #8, #7, #12, ...

........................................................................
.............................. CYCLE   15 ..............................
........................................................................
   1   -171.2157375 -0.171216E+03  0.163E-01    0.57       0.0  T
   2   -171.2157474 -0.989626E-05  0.930E-02    0.56       1.0  T
   3   -171.2151976  0.549772E-03  0.609E-02    0.59       1.0  T
   4   -171.2157553 -0.557692E-03  0.131E-02    0.56       1.0  T
   5   -171.2157706 -0.152716E-04  0.617E-03    0.57       1.7  T
   6   -171.2157719 -0.136932E-05  0.343E-03    0.56       3.0  T
   7   -171.2157732 -0.120591E-05  0.142E-03    0.56       7.4  T
   8   -171.2157733 -0.163563E-06  0.623E-04    0.56      16.7  T
     SCC iter.                  ...        0 min,  0.062 sec
     gradient                   ...        0 min,  0.012 sec
 * total energy  :  -168.5726030 Eh     change       -0.8372230E-03 Eh
   gradient norm :     0.0137402 Eh/α   predicted    -0.7770884E-03 (  -7.18%)
   displ. norm   :     0.6088793 α      lambda       -0.1122517E-02
   maximum displ.:     0.2810188 α      in ANC's #8, #7, #12, ...

........................................................................
.............................. CYCLE   16 ..............................
........................................................................
   1   -171.2174784 -0.171217E+03  0.175E-01    0.56       0.0  T
   2   -171.2174968 -0.183504E-04  0.998E-02    0.56       1.0  T
   3   -171.2172496  0.247149E-03  0.438E-02    0.57       1.0  T
   4   -171.2174997 -0.250051E-03  0.127E-02    0.56       1.0  T
   5   -171.2175096 -0.989160E-05  0.847E-03    0.57       1.2  T
   6   -171.2175140 -0.440772E-05  0.553E-03    0.56       1.9  T
   7   -171.2175177 -0.372441E-05  0.168E-03    0.56       6.2  T
   8   -171.2175180 -0.238211E-06  0.678E-04    0.56      15.4  T
   9   -171.2175180 -0.182167E-07  0.378E-04    0.56      27.6  T
     SCC iter.                  ...        0 min,  0.069 sec
     gradient                   ...        0 min,  0.012 sec
 * total energy  :  -168.5732073 Eh     change       -0.6042830E-03 Eh
   gradient norm :     0.0179478 Eh/α   predicted    -0.7693333E-03 (  27.31%)
   displ. norm   :     0.5667913 α      lambda       -0.1059430E-02
   maximum displ.:     0.2619582 α      in ANC's #8, #7, #12, ...

........................................................................
.............................. CYCLE   17 ..............................
........................................................................
   1   -171.2039962 -0.171204E+03  0.166E-01    0.56       0.0  T
   2   -171.2040015 -0.532670E-05  0.956E-02    0.57       1.0  T
   3   -171.2032105  0.791040E-03  0.693E-02    0.54       1.0  T
   4   -171.2040091 -0.798671E-03  0.147E-02    0.57       1.0  T
   5   -171.2040298 -0.206773E-04  0.709E-03    0.57       1.5  T
   6   -171.2040330 -0.319350E-05  0.373E-03    0.57       2.8  T
   7   -171.2040340 -0.100670E-05  0.154E-03    0.57       6.8  T
   8   -171.2040342 -0.203172E-06  0.594E-04    0.57      17.5  T
     SCC iter.                  ...        0 min,  0.062 sec
     gradient                   ...        0 min,  0.012 sec
 * total energy  :  -168.5736763 Eh     change       -0.4690373E-03 Eh
   gradient norm :     0.0156701 Eh/α   predicted    -0.6998968E-03 (  49.22%)
   displ. norm   :     0.3193286 α      lambda       -0.8872270E-03
   maximum displ.:     0.1765698 α      in ANC's #8, #7, #16, ...

........................................................................
.............................. CYCLE   18 ..............................
........................................................................
   1   -171.2134007 -0.171213E+03  0.103E-01    0.57       0.0  T
   2   -171.2134103 -0.959274E-05  0.579E-02    0.56       1.0  T
   3   -171.2132958  0.114516E-03  0.296E-02    0.58       1.0  T
   4   -171.2133979 -0.102099E-03  0.122E-02    0.56       1.0  T
   5   -171.2134187 -0.208164E-04  0.371E-03    0.56       2.8  T
   6   -171.2134195 -0.833692E-06  0.175E-03    0.56       6.0  T
   7   -171.2134196 -0.844720E-07  0.891E-04    0.56      11.7  T
     SCC iter.                  ...        0 min,  0.055 sec
     gradient                   ...        0 min,  0.012 sec
 * total energy  :  -168.5741745 Eh     change       -0.4982390E-03 Eh
   gradient norm :     0.0149938 Eh/α   predicted    -0.4888511E-03 (  -1.88%)
   displ. norm   :     0.4363775 α      lambda       -0.8378229E-03
   maximum displ.:     0.2385347 α      in ANC's #8, #7, #16, ...

........................................................................
.............................. CYCLE   19 ..............................
........................................................................
   1   -171.2275515 -0.171228E+03  0.127E-01    0.56       0.0  T
   2   -171.2275683 -0.168757E-04  0.722E-02    0.56       1.0  T
   3   -171.2275182  0.501274E-04  0.232E-02    0.57       1.0  T
   4   -171.2275576 -0.393725E-04  0.114E-02    0.56       1.0  T
   5   -171.2275747 -0.170921E-04  0.504E-03    0.56       2.1  T
   6   -171.2275772 -0.255717E-05  0.196E-03    0.56       5.3  T
   7   -171.2275773 -0.154401E-07  0.134E-03    0.56       7.8  T
     SCC iter.                  ...        0 min,  0.055 sec
     gradient                   ...        0 min,  0.012 sec
 * total energy  :  -168.5745825 Eh     change       -0.4079869E-03 Eh
   gradient norm :     0.0145372 Eh/α   predicted    -0.4986877E-03 (  22.23%)
   displ. norm   :     0.5595895 α      lambda       -0.7942794E-03
   maximum displ.:     0.2759291 α      in ANC's #8, #7, #12, ...

........................................................................
.............................. CYCLE   20 ..............................
........................................................................
   1   -171.2151326 -0.171215E+03  0.161E-01    0.56       0.0  T
   2   -171.2151467 -0.140749E-04  0.926E-02    0.57       1.0  T
   3   -171.2148131  0.333564E-03  0.504E-02    0.55       1.0  T
   4   -171.2151324 -0.319290E-03  0.160E-02    0.57       1.0  T
   5   -171.2151630 -0.305651E-04  0.677E-03    0.56       1.5  T
   6   -171.2151667 -0.367282E-05  0.351E-03    0.56       3.0  T
   7   -171.2151677 -0.102937E-05  0.166E-03    0.56       6.3  T
   8   -171.2151679 -0.255715E-06  0.700E-04    0.56      14.9  T
     SCC iter.                  ...        0 min,  0.063 sec
     gradient                   ...        0 min,  0.012 sec
 * total energy  :  -168.5750715 Eh     change       -0.4889604E-03 Eh
   gradient norm :     0.0163017 Eh/α   predicted    -0.5215068E-03 (   6.66%)
   displ. norm   :     0.4468316 α      lambda       -0.1054976E-02
   maximum displ.:     0.2571634 α      in ANC's #8, #7, #16, ...
 * RMSD in coord.:     0.8353243 α      energy gain  -0.5813544E-01 Eh

generating ANC from model Hessian ...
Using Lindh-Hessian (1995)
 Shifting diagonal of input Hessian by   4.987397430378100E-003
 Lowest  eigenvalues of input Hessian
   -0.000000   -0.000000   -0.000000   -0.000000    0.000000    0.000000
    0.005000    0.005007    0.005020    0.005064    0.005109    0.005150
    0.005219    0.005302    0.005377    0.005453    0.005577    0.005688
 Highest eigenvalues
    2.425685    2.532568    2.534436    2.631066    2.634449    2.650792
 

........................................................................
.............................. CYCLE   21 ..............................
........................................................................
   1   -171.2175709 -0.171218E+03  0.142E-01    0.56       0.0  T
   2   -171.2175810 -0.100659E-04  0.805E-02    0.56       1.0  T
   3   -171.2170607  0.520249E-03  0.599E-02    0.54       1.0  T
   4   -171.2175676 -0.506944E-03  0.157E-02    0.57       1.0  T
   5   -171.2176035 -0.358219E-04  0.425E-03    0.56       2.5  T
   6   -171.2176044 -0.894582E-06  0.247E-03    0.56       4.2  T
   7   -171.2176046 -0.266702E-06  0.140E-03    0.56       7.5  T
   8   -171.2176048 -0.178547E-06  0.566E-04    0.56      18.4  T
   9   -171.2176048 -0.303395E-07  0.219E-04    0.56      47.6  T
     SCC iter.                  ...        0 min,  0.068 sec
     gradient                   ...        0 min,  0.012 sec
 * total energy  :  -168.5754785 Eh     change       -0.4070194E-03 Eh
   gradient norm :     0.0183317 Eh/α   predicted     0.0000000E+00 (-100.00%)
   displ. norm   :     0.2077059 α      lambda       -0.7845541E-03
   maximum displ.:     0.1291887 α      in ANC's #7, #10, #15, ...

........................................................................
.............................. CYCLE   22 ..............................
........................................................................
   1   -171.2206173 -0.171221E+03  0.696E-02    0.56       0.0  T
   2   -171.2206220 -0.474636E-05  0.396E-02    0.56       1.0  T
   3   -171.2205912  0.308628E-04  0.162E-02    0.55       1.0  T
   4   -171.2206180 -0.268938E-04  0.704E-03    0.56       1.5  T
   5   -171.2206249 -0.687523E-05  0.318E-03    0.56       3.3  T
   6   -171.2206258 -0.886041E-06  0.151E-03    0.56       6.9  T
   7   -171.2206260 -0.155643E-06  0.561E-04    0.56      18.6  T
     SCC iter.                  ...        0 min,  0.056 sec
     gradient                   ...        0 min,  0.012 sec
 * total energy  :  -168.5760232 Eh     change       -0.5447456E-03 Eh
   gradient norm :     0.0074177 Eh/α   predicted    -0.4092007E-03 ( -24.88%)
   displ. norm   :     0.2696444 α      lambda       -0.6614762E-03
   maximum displ.:     0.1492938 α      in ANC's #7, #24, #34, ...

........................................................................
.............................. CYCLE   23 ..............................
........................................................................
   1   -171.2204633 -0.171220E+03  0.141E-01    0.56       0.0  T
   2   -171.2204819 -0.186608E-04  0.784E-02    0.56       1.0  T
   3   -171.2204110  0.709688E-04  0.258E-02    0.55       1.0  T
   4   -171.2204889 -0.779222E-04  0.724E-03    0.56       1.4  T
   5   -171.2204940 -0.508533E-05  0.417E-03    0.56       2.5  T
   6   -171.2204946 -0.622466E-06  0.300E-03    0.56       3.5  T
   7   -171.2204954 -0.821564E-06  0.128E-03    0.56       8.2  T
     SCC iter.                  ...        0 min,  0.055 sec
     gradient                   ...        0 min,  0.012 sec
 * total energy  :  -168.5760271 Eh     change       -0.3892464E-05 Eh
   gradient norm :     0.0148012 Eh/α   predicted    -0.3547927E-03 (9014.86%)
   displ. norm   :     0.2235890 α      lambda       -0.9449878E-03
   maximum displ.:     0.1021379 α      in ANC's #7, #10, #15, ...

........................................................................
.............................. CYCLE   24 ..............................
........................................................................
   1   -171.2210849 -0.171221E+03  0.112E-01    0.56       0.0  T
   2   -171.2210933 -0.837366E-05  0.627E-02    0.56       1.0  T
   3   -171.2209753  0.117964E-03  0.279E-02    0.55       1.0  T
   4   -171.2210919 -0.116534E-03  0.868E-03    0.56       1.2  T
   5   -171.2211014 -0.955347E-05  0.272E-03    0.56       3.8  T
   6   -171.2211014 -0.142336E-07  0.180E-03    0.56       5.8  T
   7   -171.2211017 -0.256208E-06  0.718E-04    0.56      14.5  T
     SCC iter.                  ...        0 min,  0.055 sec
     gradient                   ...        0 min,  0.012 sec
 * total energy  :  -168.5766056 Eh     change       -0.5784298E-03 Eh
   gradient norm :     0.0097817 Eh/α   predicted    -0.4961153E-03 ( -14.23%)
   displ. norm   :     0.2894186 α      lambda       -0.4665161E-03
   maximum displ.:     0.1694250 α      in ANC's #7, #23, #6, ...

........................................................................
.............................. CYCLE   25 ..............................
........................................................................
   1   -171.2180258 -0.171218E+03  0.103E-01    0.56       0.0  T
   2   -171.2180343 -0.855999E-05  0.580E-02    0.56       1.0  T
   3   -171.2180130  0.212947E-04  0.159E-02    0.56       1.0  T
   4   -171.2180377 -0.246875E-04  0.465E-03    0.56       2.2  T
   5   -171.2180372  0.468239E-06  0.429E-03    0.56       2.4  T
   6   -171.2180389 -0.163183E-05  0.213E-03    0.56       4.9  T
   7   -171.2180395 -0.572737E-06  0.825E-04    0.56      12.6  T
     SCC iter.                  ...        0 min,  0.055 sec
     gradient                   ...        0 min,  0.012 sec
 * total energy  :  -168.5768590 Eh     change       -0.2534111E-03 Eh
   gradient norm :     0.0097044 Eh/α   predicted    -0.2527985E-03 (  -0.24%)
   displ. norm   :     0.4960231 α      lambda       -0.8261546E-03
   maximum displ.:     0.3071524 α      in ANC's #7, #21, #17, ...

........................................................................
.............................. CYCLE   26 ..............................
........................................................................
   1   -171.2145750 -0.171215E+03  0.154E-01    0.56       0.0  T
   2   -171.2145794 -0.434143E-05  0.882E-02    0.57       1.0  T
   3   -171.2139699  0.609502E-03  0.606E-02    0.54       1.0  T
   4   -171.2145928 -0.622919E-03  0.949E-03    0.56       1.1  T
   5   -171.2145992 -0.640861E-05  0.517E-03    0.56       2.0  T
   6   -171.2146002 -0.103111E-05  0.269E-03    0.56       3.9  T
   7   -171.2146009 -0.651359E-06  0.125E-03    0.56       8.4  T
     SCC iter.                  ...        0 min,  0.055 sec
     gradient                   ...        0 min,  0.012 sec
 * total energy  :  -168.5772776 Eh     change       -0.4185916E-03 Eh
   gradient norm :     0.0113251 Eh/α   predicted    -0.5147143E-03 (  22.96%)
   displ. norm   :     0.2981789 α      lambda       -0.5132528E-03
   maximum displ.:     0.1963675 α      in ANC's #7, #6, #21, ...

........................................................................
.............................. CYCLE   27 ..............................
........................................................................
   1   -171.2185208 -0.171219E+03  0.880E-02    0.56       0.0  T
   2   -171.2185242 -0.336534E-05  0.503E-02    0.56       1.0  T
   3   -171.2184349  0.892631E-04  0.229E-02    0.55       1.0  T
   4   -171.2185266 -0.916722E-04  0.482E-03    0.56       2.2  T
   5   -171.2185282 -0.163258E-05  0.246E-03    0.56       4.2  T
   6   -171.2185284 -0.172774E-06  0.940E-04    0.56      11.1  T
     SCC iter.                  ...        0 min,  0.047 sec
     gradient                   ...        0 min,  0.012 sec
 * total energy  :  -168.5777011 Eh     change       -0.4235758E-03 Eh
   gradient norm :     0.0078471 Eh/α   predicted    -0.2794433E-03 ( -34.03%)
   displ. norm   :     0.4092084 α      lambda       -0.5732364E-03
   maximum displ.:     0.2657919 α      in ANC's #7, #6, #17, ...

........................................................................
.............................. CYCLE   28 ..............................
........................................................................
   1   -171.2216556 -0.171222E+03  0.118E-01    0.56       0.0  T
   2   -171.2216611 -0.553493E-05  0.672E-02    0.56       1.0  T
   3   -171.2214515  0.209614E-03  0.359E-02    0.54       1.0  T
   4   -171.2216634 -0.211912E-03  0.787E-03    0.56       1.3  T
   5   -171.2216699 -0.651317E-05  0.318E-03    0.56       3.3  T
   6   -171.2216701 -0.130514E-06  0.157E-03    0.56       6.7  T
   7   -171.2216702 -0.166980E-06  0.742E-04    0.56      14.0  T
     SCC iter.                  ...        0 min,  0.055 sec
     gradient                   ...        0 min,  0.012 sec
 * total energy  :  -168.5781502 Eh     change       -0.4490988E-03 Eh
   gradient norm :     0.0053370 Eh/α   predicted    -0.3346132E-03 ( -25.49%)
   displ. norm   :     0.5490371 α      lambda       -0.5230767E-03
   maximum displ.:     0.3396648 α      in ANC's #7, #6, #15, ...

........................................................................
.............................. CYCLE   29 ..............................
........................................................................
   1   -171.2224450 -0.171222E+03  0.139E-01    0.56       0.0  T
   2   -171.2224475 -0.249172E-05  0.806E-02    0.56       1.0  T
   3   -171.2219587  0.488774E-03  0.529E-02    0.54       1.0  T
   4   -171.2224559 -0.497236E-03  0.886E-03    0.56       1.2  T
   5   -171.2224626 -0.662537E-05  0.380E-03    0.56       2.7  T
   6   -171.2224629 -0.298512E-06  0.170E-03    0.56       6.1  T
   7   -171.2224630 -0.144813E-06  0.632E-04    0.56      16.5  T
     SCC iter.                  ...        0 min,  0.055 sec
     gradient                   ...        0 min,  0.012 sec
 * total energy  :  -168.5785416 Eh     change       -0.3913378E-03 Eh
   gradient norm :     0.0103051 Eh/α   predicted    -0.3403773E-03 ( -13.02%)
   displ. norm   :     0.6709084 α      lambda       -0.7563233E-03
   maximum displ.:     0.4410836 α      in ANC's #7, #6, #17, ...

........................................................................
.............................. CYCLE   30 ..............................
........................................................................
   1   -171.2181057 -0.171218E+03  0.193E-01    0.55       0.0  T
   2   -171.2180903  0.153477E-04  0.111E-01    0.56       1.0  T
   3   -171.2159470  0.214333E-02  0.111E-01    0.51       1.0  T
   4   -171.2181371 -0.219015E-02  0.119E-02    0.56       1.0  T
   5   -171.2181487 -0.115865E-04  0.596E-03    0.56       1.7  T
   6   -171.2181493 -0.582040E-06  0.405E-03    0.55       2.6  T
   7   -171.2181509 -0.158348E-05  0.127E-03    0.55       8.2  T
   8   -171.2181510 -0.131440E-06  0.566E-04    0.56      18.4  T
     SCC iter.                  ...        0 min,  0.063 sec
     gradient                   ...        0 min,  0.012 sec
 * total energy  :  -168.5790588 Eh     change       -0.5172212E-03 Eh
   gradient norm :     0.0122890 Eh/α   predicted    -0.5483810E-03 (   6.02%)
   displ. norm   :     0.5668363 α      lambda       -0.6843664E-03
   maximum displ.:     0.3892494 α      in ANC's #7, #6, #17, ...

........................................................................
.............................. CYCLE   31 ..............................
........................................................................
   1   -171.2239758 -0.171224E+03  0.136E-01    0.55       0.0  T
   2   -171.2239655  0.103246E-04  0.793E-02    0.56       1.0  T
   3   -171.2228370  0.112852E-02  0.803E-02    0.52       1.0  T
   4   -171.2239875 -0.115047E-02  0.894E-03    0.55       1.2  T
   5   -171.2239944 -0.689400E-05  0.369E-03    0.55       2.8  T
   6   -171.2239945 -0.183064E-06  0.220E-03    0.55       4.7  T
   7   -171.2239948 -0.288982E-06  0.122E-03    0.55       8.5  T
     SCC iter.                  ...        0 min,  0.055 sec
     gradient                   ...        0 min,  0.012 sec
 * total energy  :  -168.5796183 Eh     change       -0.5595190E-03 Eh
   gradient norm :     0.0117228 Eh/α   predicted    -0.4521271E-03 ( -19.19%)
   displ. norm   :     0.7047661 α      lambda       -0.7984095E-03
   maximum displ.:     0.4896040 α      in ANC's #7, #6, #17, ...

........................................................................
.............................. CYCLE   32 ..............................
........................................................................
   1   -171.2230191 -0.171223E+03  0.166E-01    0.55       0.0  T
   2   -171.2229975  0.215202E-04  0.974E-02    0.56       1.0  T
   3   -171.2209566  0.204095E-02  0.106E-01    0.51       1.0  T
   4   -171.2230381 -0.208147E-02  0.100E-02    0.55       1.0  T
   5   -171.2230459 -0.788129E-05  0.470E-03    0.55       2.2  T
   6   -171.2230463 -0.313654E-06  0.292E-03    0.55       3.6  T
   7   -171.2230469 -0.682851E-06  0.132E-03    0.55       7.9  T
     SCC iter.                  ...        0 min,  0.056 sec
     gradient                   ...        0 min,  0.012 sec
 * total energy  :  -168.5802662 Eh     change       -0.6478546E-03 Eh
   gradient norm :     0.0088920 Eh/α   predicted    -0.5974895E-03 (  -7.77%)
   displ. norm   :     0.6764653 α      lambda       -0.7026659E-03
   maximum displ.:     0.4971309 α      in ANC's #7, #6, #5, ...

........................................................................
.............................. CYCLE   33 ..............................
........................................................................
   1   -171.2246527 -0.171225E+03  0.166E-01    0.54       0.0  T
   2   -171.2246308  0.218630E-04  0.964E-02    0.56       1.0  T
   3   -171.2225145  0.211636E-02  0.108E-01    0.51       1.0  T
   4   -171.2246677 -0.215321E-02  0.123E-02    0.55       1.0  T
   5   -171.2246839 -0.161689E-04  0.493E-03    0.55       2.1  T
   6   -171.2246842 -0.380961E-06  0.345E-03    0.55       3.0  T
   7   -171.2246852 -0.991117E-06  0.144E-03    0.55       7.2  T
   8   -171.2246855 -0.263270E-06  0.543E-04    0.55      19.2  T
     SCC iter.                  ...        0 min,  0.063 sec
     gradient                   ...        0 min,  0.012 sec
 * total energy  :  -168.5808091 Eh     change       -0.5429082E-03 Eh
   gradient norm :     0.0079553 Eh/α   predicted    -0.5121092E-03 (  -5.67%)
   displ. norm   :     0.7788608 α      lambda       -0.6181735E-03
   maximum displ.:     0.5528483 α      in ANC's #7, #6, #5, ...

........................................................................
.............................. CYCLE   34 ..............................
........................................................................
   1   -171.2162222 -0.171216E+03  0.184E-01    0.55       0.0  T
   2   -171.2162218  0.459262E-06  0.107E-01    0.55       1.0  T
   3   -171.2151090  0.111280E-02  0.777E-02    0.52       1.0  T
   4   -171.2162432 -0.113420E-02  0.965E-03    0.55       1.1  T
   5   -171.2162496 -0.638938E-05  0.477E-03    0.55       2.2  T
   6   -171.2162500 -0.442675E-06  0.247E-03    0.55       4.2  T
   7   -171.2162505 -0.443845E-06  0.104E-03    0.55      10.0  T
     SCC iter.                  ...        0 min,  0.055 sec
     gradient                   ...        0 min,  0.012 sec
 * total energy  :  -168.5812496 Eh     change       -0.4404718E-03 Eh
   gradient norm :     0.0094393 Eh/α   predicted    -0.4965877E-03 (  12.74%)
   displ. norm   :     0.5330060 α      lambda       -0.6120150E-03
   maximum displ.:     0.3729416 α      in ANC's #7, #6, #5, ...

........................................................................
.............................. CYCLE   35 ..............................
........................................................................
   1   -171.2286045 -0.171229E+03  0.122E-01    0.54       0.0  T
   2   -171.2285888  0.157001E-04  0.714E-02    0.55       1.0  T
   3   -171.2274360  0.115275E-02  0.834E-02    0.52       1.0  T
   4   -171.2285632 -0.112716E-02  0.216E-02    0.55       1.0  T
   5   -171.2286295 -0.662800E-04  0.507E-03    0.54       2.1  T
   6   -171.2286308 -0.129474E-05  0.332E-03    0.54       3.1  T
   7   -171.2286315 -0.783432E-06  0.138E-03    0.54       7.5  T
   8   -171.2286317 -0.203380E-06  0.424E-04    0.54      24.6  T
     SCC iter.                  ...        0 min,  0.063 sec
     gradient                   ...        0 min,  0.012 sec
 * total energy  :  -168.5815626 Eh     change       -0.3130274E-03 Eh
   gradient norm :     0.0165551 Eh/α   predicted    -0.3929466E-03 (  25.53%)
   displ. norm   :     0.5743881 α      lambda       -0.6213501E-03
   maximum displ.:     0.4355080 α      in ANC's #7, #6, #5, ...

........................................................................
.............................. CYCLE   36 ..............................
........................................................................
   1   -171.2193177 -0.171219E+03  0.153E-01    0.54       0.0  T
   2   -171.2192948  0.229626E-04  0.877E-02    0.55       1.0  T
   3   -171.2173330  0.196173E-02  0.105E-01    0.50       1.0  T
   4   -171.2193081 -0.197507E-02  0.193E-02    0.55       1.0  T
   5   -171.2193533 -0.452326E-04  0.417E-03    0.54       2.5  T
   6   -171.2193530  0.331566E-06  0.265E-03    0.54       3.9  T
   7   -171.2193538 -0.756124E-06  0.935E-04    0.54      11.2  T
     SCC iter.                  ...        0 min,  0.055 sec
     gradient                   ...        0 min,  0.012 sec
 * total energy  :  -168.5818893 Eh     change       -0.3267557E-03 Eh
   gradient norm :     0.0197399 Eh/α   predicted    -0.4131794E-03 (  26.45%)
   displ. norm   :     0.4553765 α      lambda       -0.4272917E-03
   maximum displ.:     0.3302356 α      in ANC's #7, #6, #15, ...

........................................................................
.............................. CYCLE   37 ..............................
........................................................................
   1   -171.2173922 -0.171217E+03  0.102E-01    0.54       0.0  T
   2   -171.2173847  0.753807E-05  0.598E-02    0.55       1.0  T
   3   -171.2165830  0.801667E-03  0.660E-02    0.52       1.0  T
   4   -171.2173942 -0.811207E-03  0.112E-02    0.54       1.0  T
   5   -171.2174057 -0.114342E-04  0.291E-03    0.54       3.6  T
   6   -171.2174058 -0.130281E-06  0.160E-03    0.54       6.5  T
   7   -171.2174059 -0.741152E-07  0.828E-04    0.54      12.6  T
     SCC iter.                  ...        0 min,  0.055 sec
     gradient                   ...        0 min,  0.012 sec
 * total energy  :  -168.5821887 Eh     change       -0.2993674E-03 Eh
   gradient norm :     0.0090794 Eh/α   predicted    -0.2579507E-03 ( -13.83%)
   displ. norm   :     0.4318894 α      lambda       -0.4627761E-03
   maximum displ.:     0.3024518 α      in ANC's #7, #6, #15, ...

........................................................................
.............................. CYCLE   38 ..............................
........................................................................
   1   -171.2249538 -0.171225E+03  0.929E-02    0.54       0.0  T
   2   -171.2249344  0.193815E-04  0.545E-02    0.55       1.0  T
   3   -171.2237702  0.116417E-02  0.809E-02    0.51       1.0  T
   4   -171.2249599 -0.118969E-02  0.108E-02    0.54       1.0  T
   5   -171.2249696 -0.966571E-05  0.294E-03    0.54       3.5  T
   6   -171.2249697 -0.157495E-06  0.149E-03    0.54       7.0  T
   7   -171.2249698 -0.578224E-07  0.720E-04    0.54      14.5  T
     SCC iter.                  ...        0 min,  0.055 sec
     gradient                   ...        0 min,  0.012 sec
 * total energy  :  -168.5825111 Eh     change       -0.3224162E-03 Eh
   gradient norm :     0.0102524 Eh/α   predicted    -0.2745508E-03 ( -14.85%)
   displ. norm   :     0.6505162 α      lambda       -0.4459859E-03
   maximum displ.:     0.4786870 α      in ANC's #7, #6, #5, ...

........................................................................
.............................. CYCLE   39 ..............................
........................................................................
   1   -171.2216963 -0.171222E+03  0.150E-01    0.54       0.0  T
   2   -171.2216803  0.160432E-04  0.868E-02    0.55       1.0  T
   3   -171.2199264  0.175387E-02  0.981E-02    0.50       1.0  T
   4   -171.2217163 -0.178983E-02  0.925E-03    0.54       1.1  T
   5   -171.2217214 -0.517135E-05  0.442E-03    0.54       2.4  T
   6   -171.2217214  0.799434E-07  0.267E-03    0.54       3.9  T
   7   -171.2217220 -0.639813E-06  0.119E-03    0.54       8.8  T
     SCC iter.                  ...        0 min,  0.056 sec
     gradient                   ...        0 min,  0.012 sec
 * total energy  :  -168.5828465 Eh     change       -0.3353962E-03 Eh
   gradient norm :     0.0112745 Eh/α   predicted    -0.3173604E-03 (  -5.38%)
   displ. norm   :     0.6275255 α      lambda       -0.5651134E-03
   maximum displ.:     0.4286719 α      in ANC's #7, #6, #15, ...

........................................................................
.............................. CYCLE   40 ..............................
........................................................................
   1   -171.2246096 -0.171225E+03  0.143E-01    0.53       0.0  T
   2   -171.2246144 -0.480598E-05  0.823E-02    0.54       1.0  T
   3   -171.2240767  0.537731E-03  0.565E-02    0.51       1.0  T
   4   -171.2245758 -0.499067E-03  0.205E-02    0.54       1.0  T
   5   -171.2246342 -0.584265E-04  0.465E-03    0.54       2.2  T
   6   -171.2246345 -0.258606E-06  0.264E-03    0.54       3.9  T
   7   -171.2246349 -0.426680E-06  0.134E-03    0.54       7.8  T
     SCC iter.                  ...        0 min,  0.055 sec
     gradient                   ...        0 min,  0.012 sec
 * total energy  :  -168.5831031 Eh     change       -0.2565953E-03 Eh
   gradient norm :     0.0200610 Eh/α   predicted    -0.3938249E-03 (  53.48%)
   displ. norm   :     0.4971282 α      lambda       -0.5034450E-03
   maximum displ.:     0.3669493 α      in ANC's #7, #6, #5, ...

........................................................................
.............................. CYCLE   41 ..............................
........................................................................
   1   -171.2186655 -0.171219E+03  0.113E-01    0.53       0.0  T
   2   -171.2186108  0.547497E-04  0.667E-02    0.54       1.0  T
   3   -171.2161578  0.245299E-02  0.118E-01    0.50       1.0  T
   4   -171.2186764 -0.251860E-02  0.115E-02    0.54       1.0  T
   5   -171.2186907 -0.143354E-04  0.406E-03    0.53       2.6  T
   6   -171.2186909 -0.200481E-06  0.286E-03    0.53       3.6  T
   7   -171.2186916 -0.702593E-06  0.142E-03    0.53       7.4  T
     SCC iter.                  ...        0 min,  0.054 sec
     gradient                   ...        0 min,  0.012 sec
 * total energy  :  -168.5834137 Eh     change       -0.3105666E-03 Eh
   gradient norm :     0.0109188 Eh/α   predicted    -0.3139356E-03 (   1.08%)
   displ. norm   :     0.4607456 α      lambda       -0.3394244E-03
   maximum displ.:     0.3163295 α      in ANC's #7, #6, #15, ...

........................................................................
.............................. CYCLE   42 ..............................
........................................................................
   1   -171.2220584 -0.171222E+03  0.962E-02    0.53       0.0  T
   2   -171.2220396  0.188592E-04  0.566E-02    0.54       1.0  T
   3   -171.2208318  0.120779E-02  0.845E-02    0.51       1.0  T
   4   -171.2220648 -0.123299E-02  0.829E-03    0.54       1.3  T
   5   -171.2220723 -0.752772E-05  0.316E-03    0.53       3.3  T
   6   -171.2220726 -0.292819E-06  0.151E-03    0.53       6.9  T
   7   -171.2220727 -0.561475E-07  0.743E-04    0.53      14.0  T
     SCC iter.                  ...        0 min,  0.055 sec
     gradient                   ...        0 min,  0.012 sec
 * total energy  :  -168.5836281 Eh     change       -0.2144432E-03 Eh
   gradient norm :     0.0103032 Eh/α   predicted    -0.2057405E-03 (  -4.06%)
   displ. norm   :     0.6026162 α      lambda       -0.3051826E-03
   maximum displ.:     0.4302876 α      in ANC's #7, #6, #15, ...
 * RMSD in coord.:     1.0515226 α      energy gain  -0.8556645E-02 Eh

generating ANC from model Hessian ...
Using Lindh-Hessian (1995)
 Shifting diagonal of input Hessian by   5.037191321491933E-003
 Lowest  eigenvalues of input Hessian
    0.005000   -0.000000   -0.000000    0.000000    0.000000    0.000000
    0.000000    0.005043    0.005056    0.005066    0.005072    0.005099
    0.005122    0.005202    0.005285    0.005374    0.005493    0.005641
 Highest eigenvalues
    2.417317    2.523271    2.533205    2.637903    2.640070    2.644783
 

........................................................................
.............................. CYCLE   43 ..............................
........................................................................
   1   -171.2184431 -0.171218E+03  0.126E-01    0.53       0.0  T
   2   -171.2184098  0.333043E-04  0.739E-02    0.54       1.0  T
   3   -171.2161637  0.224612E-02  0.112E-01    0.49       1.0  T
   4   -171.2184587 -0.229507E-02  0.854E-03    0.53       1.2  T
   5   -171.2184643 -0.556664E-05  0.426E-03    0.53       2.4  T
   6   -171.2184648 -0.514961E-06  0.202E-03    0.53       5.2  T
   7   -171.2184650 -0.223044E-06  0.962E-04    0.53      10.8  T
   8   -171.2184651 -0.640109E-07  0.514E-04    0.53      20.3  T
     SCC iter.                  ...        0 min,  0.063 sec
     gradient                   ...        0 min,  0.012 sec
 * total energy  :  -168.5838260 Eh     change       -0.1979256E-03 Eh
   gradient norm :     0.0074398 Eh/α   predicted     0.0000000E+00 (-100.00%)
   displ. norm   :     0.1133300 α      lambda       -0.1994889E-03
   maximum displ.:     0.0454018 α      in ANC's #13, #6, #10, ...

........................................................................
.............................. CYCLE   44 ..............................
........................................................................
   1   -171.2244984 -0.171224E+03  0.413E-02    0.53       0.0  T
   2   -171.2245003 -0.192037E-05  0.232E-02    0.53       1.0  T
   3   -171.2244929  0.745625E-05  0.867E-03    0.53       1.2  T
   4   -171.2245004 -0.748571E-05  0.294E-03    0.53       3.5  T
   5   -171.2245011 -0.749737E-06  0.195E-03    0.53       5.4  T
   6   -171.2245015 -0.346885E-06  0.107E-03    0.53       9.8  T
     SCC iter.                  ...        0 min,  0.047 sec
     gradient                   ...        0 min,  0.012 sec
 * total energy  :  -168.5839508 Eh     change       -0.1247932E-03 Eh
   gradient norm :     0.0034561 Eh/α   predicted    -0.1010690E-03 ( -19.01%)
   displ. norm   :     0.2057799 α      lambda       -0.3294491E-03
   maximum displ.:     0.0663611 α      in ANC's #1, #6, #13, ...

........................................................................
.............................. CYCLE   45 ..............................
........................................................................
   1   -171.2344455 -0.171234E+03  0.104E-01    0.53       0.0  T
   2   -171.2344584 -0.128899E-04  0.579E-02    0.53       1.0  T
   3   -171.2344333  0.251203E-04  0.162E-02    0.53       1.0  T
   4   -171.2344579 -0.245911E-04  0.696E-03    0.53       1.5  T
   5   -171.2344631 -0.519952E-05  0.425E-03    0.53       2.5  T
   6   -171.2344651 -0.200918E-05  0.184E-03    0.53       5.7  T
   7   -171.2344653 -0.174399E-06  0.109E-03    0.53       9.6  T
   8   -171.2344654 -0.126874E-06  0.265E-04    0.53      39.4  T
   9   -171.2344654 -0.457564E-08  0.108E-04    0.53      97.0  T
     SCC iter.                  ...        0 min,  0.069 sec
     gradient                   ...        0 min,  0.012 sec
 * total energy  :  -168.5837221 Eh     change        0.2287862E-03 Eh
   gradient norm :     0.0123208 Eh/α   predicted    -0.1717082E-03 (-175.05%)
   displ. norm   :     0.0877450 α      lambda       -0.6288788E-03
   maximum displ.:     0.0469107 α      in ANC's #1, #18, #42, ...

........................................................................
.............................. CYCLE   46 ..............................
........................................................................
   1   -171.2288148 -0.171229E+03  0.727E-02    0.53       0.0  T
   2   -171.2288206 -0.580708E-05  0.402E-02    0.53       1.0  T
   3   -171.2287693  0.513289E-04  0.188E-02    0.53       1.0  T
   4   -171.2288198 -0.505542E-04  0.576E-03    0.53       1.8  T
   5   -171.2288247 -0.486942E-05  0.159E-03    0.53       6.6  T
   6   -171.2288249 -0.173285E-06  0.102E-03    0.53      10.3  T
   7   -171.2288249 -0.747730E-07  0.440E-04    0.53      23.7  T
     SCC iter.                  ...        0 min,  0.055 sec
     gradient                   ...        0 min,  0.012 sec
 * total energy  :  -168.5840613 Eh     change       -0.3392241E-03 Eh
   gradient norm :     0.0030295 Eh/α   predicted    -0.3168622E-03 (  -6.59%)
   displ. norm   :     0.0913212 α      lambda       -0.8100143E-04
   maximum displ.:     0.0524045 α      in ANC's #13, #10, #21, ...

........................................................................
.............................. CYCLE   47 ..............................
........................................................................
   1   -171.2269152 -0.171227E+03  0.425E-02    0.53       0.0  T
   2   -171.2269163 -0.105380E-05  0.238E-02    0.53       1.0  T
   3   -171.2268797  0.365642E-04  0.149E-02    0.53       1.0  T
   4   -171.2269175 -0.377510E-04  0.187E-03    0.53       5.6  T
   5   -171.2269177 -0.237561E-06  0.106E-03    0.53       9.9  T
   6   -171.2269177 -0.125559E-07  0.711E-04    0.53      14.7  T
   7   -171.2269178 -0.538900E-07  0.218E-04    0.53      47.8  T
     SCC iter.                  ...        0 min,  0.055 sec
     gradient                   ...        0 min,  0.012 sec
 * total energy  :  -168.5840771 Eh     change       -0.1586050E-04 Eh
   gradient norm :     0.0033704 Eh/α   predicted    -0.4083824E-04 ( 157.48%)
   displ. norm   :     0.2034297 α      lambda       -0.1729582E-03
   maximum displ.:     0.0842214 α      in ANC's #6, #13, #21, ...

........................................................................
.............................. CYCLE   48 ..............................
........................................................................
   1   -171.2243253 -0.171224E+03  0.608E-02    0.53       0.0  T
   2   -171.2243222  0.304892E-05  0.350E-02    0.53       1.0  T
   3   -171.2239964  0.325857E-03  0.440E-02    0.52       1.0  T
   4   -171.2243296 -0.333251E-03  0.354E-03    0.53       2.9  T
   5   -171.2243305 -0.826131E-06  0.214E-03    0.53       4.9  T
   6   -171.2243307 -0.221842E-06  0.128E-03    0.53       8.2  T
   7   -171.2243308 -0.134595E-06  0.443E-04    0.53      23.5  T
   8   -171.2243308 -0.154010E-07  0.149E-04    0.53      69.9  T
     SCC iter.                  ...        0 min,  0.062 sec
     gradient                   ...        0 min,  0.012 sec
 * total energy  :  -168.5841962 Eh     change       -0.1190133E-03 Eh
   gradient norm :     0.0052040 Eh/α   predicted    -0.9006075E-04 ( -24.33%)
   displ. norm   :     0.3297892 α      lambda       -0.1728941E-03
   maximum displ.:     0.1416123 α      in ANC's #13, #6, #21, ...

........................................................................
.............................. CYCLE   49 ..............................
........................................................................
   1   -171.2242619 -0.171224E+03  0.835E-02    0.53       0.0  T
   2   -171.2242509  0.109799E-04  0.489E-02    0.53       1.0  T
   3   -171.2234217  0.829231E-03  0.699E-02    0.51       1.0  T
   4   -171.2242692 -0.847506E-03  0.508E-03    0.53       2.1  T
   5   -171.2242710 -0.175857E-05  0.300E-03    0.53       3.5  T
   6   -171.2242713 -0.352439E-06  0.178E-03    0.53       5.8  T
   7   -171.2242716 -0.269798E-06  0.677E-04    0.53      15.4  T
     SCC iter.                  ...        0 min,  0.054 sec
     gradient                   ...        0 min,  0.012 sec
 * total energy  :  -168.5843152 Eh     change       -0.1190201E-03 Eh
   gradient norm :     0.0041991 Eh/α   predicted    -0.9585151E-04 ( -19.47%)
   displ. norm   :     0.5269086 α      lambda       -0.2523498E-03
   maximum displ.:     0.2320715 α      in ANC's #13, #6, #21, ...

........................................................................
.............................. CYCLE   50 ..............................
........................................................................
   1   -171.2231187 -0.171223E+03  0.143E-01    0.52       0.0  T
   2   -171.2231057  0.129789E-04  0.824E-02    0.53       1.0  T
   3   -171.2213950  0.171068E-02  0.991E-02    0.50       1.0  T
   4   -171.2231407 -0.174566E-02  0.801E-03    0.53       1.3  T
   5   -171.2231451 -0.442239E-05  0.433E-03    0.53       2.4  T
   6   -171.2231453 -0.242926E-06  0.212E-03    0.53       4.9  T
   7   -171.2231456 -0.311061E-06  0.115E-03    0.53       9.1  T
     SCC iter.                  ...        0 min,  0.055 sec
     gradient                   ...        0 min,  0.012 sec
 * total energy  :  -168.5842872 Eh     change        0.2801561E-04 Eh
   gradient norm :     0.0088718 Eh/α   predicted    -0.1612096E-03 (-675.43%)
   displ. norm   :     0.1224770 α      lambda       -0.3618964E-03
   maximum displ.:     0.0647179 α      in ANC's #13, #6, #10, ...

........................................................................
.............................. CYCLE   51 ..............................
........................................................................
   1   -171.2253100 -0.171225E+03  0.603E-02    0.53       0.0  T
   2   -171.2253128 -0.283327E-05  0.336E-02    0.53       1.0  T
   3   -171.2252642  0.486179E-04  0.176E-02    0.52       1.0  T
   4   -171.2253143 -0.501260E-04  0.306E-03    0.53       3.4  T
   5   -171.2253153 -0.982140E-06  0.145E-03    0.53       7.2  T
   6   -171.2253154 -0.676410E-07  0.962E-04    0.53      10.8  T
     SCC iter.                  ...        0 min,  0.047 sec
     gradient                   ...        0 min,  0.012 sec
 * total energy  :  -168.5845029 Eh     change       -0.2157749E-03 Eh
   gradient norm :     0.0042645 Eh/α   predicted    -0.1836632E-03 ( -14.88%)
   displ. norm   :     0.2187547 α      lambda       -0.1039076E-03
   maximum displ.:     0.1127979 α      in ANC's #13, #6, #2, ...

........................................................................
.............................. CYCLE   52 ..............................
........................................................................
   1   -171.2264833 -0.171226E+03  0.453E-02    0.52       0.0  T
   2   -171.2264828  0.520052E-06  0.263E-02    0.53       1.0  T
   3   -171.2263740  0.108836E-03  0.256E-02    0.52       1.0  T
   4   -171.2264842 -0.110284E-03  0.356E-03    0.53       2.9  T
   5   -171.2264854 -0.120434E-05  0.140E-03    0.53       7.4  T
   6   -171.2264855 -0.260610E-07  0.785E-04    0.53      13.3  T
     SCC iter.                  ...        0 min,  0.047 sec
     gradient                   ...        0 min,  0.012 sec
 * total energy  :  -168.5845872 Eh     change       -0.8423840E-04 Eh
   gradient norm :     0.0021192 Eh/α   predicted    -0.5444229E-04 ( -35.37%)
   displ. norm   :     0.5174112 α      lambda       -0.1671282E-03
   maximum displ.:     0.2671348 α      in ANC's #13, #6, #2, ...

........................................................................
.............................. CYCLE   53 ..............................
........................................................................
   1   -171.2268233 -0.171227E+03  0.105E-01    0.52       0.0  T
   2   -171.2268138  0.951761E-05  0.614E-02    0.53       1.0  T
   3   -171.2258569  0.956962E-03  0.746E-02    0.50       1.0  T
   4   -171.2268303 -0.973448E-03  0.745E-03    0.53       1.4  T
   5   -171.2268349 -0.459997E-05  0.320E-03    0.52       3.3  T
   6   -171.2268350 -0.874275E-07  0.175E-03    0.52       6.0  T
   7   -171.2268352 -0.222036E-06  0.857E-04    0.52      12.2  T
   8   -171.2268353 -0.743067E-07  0.343E-04    0.52      30.4  T
     SCC iter.                  ...        0 min,  0.062 sec
     gradient                   ...        0 min,  0.012 sec
 * total energy  :  -168.5847206 Eh     change       -0.1334717E-03 Eh
   gradient norm :     0.0025468 Eh/α   predicted    -0.1059354E-03 ( -20.63%)
   displ. norm   :     0.5299385 α      lambda       -0.1588896E-03
   maximum displ.:     0.2707975 α      in ANC's #13, #6, #2, ...

........................................................................
.............................. CYCLE   54 ..............................
........................................................................
   1   -171.2279915 -0.171228E+03  0.107E-01    0.52       0.0  T
   2   -171.2279866  0.492851E-05  0.620E-02    0.53       1.0  T
   3   -171.2272474  0.739163E-03  0.651E-02    0.50       1.0  T
   4   -171.2279997 -0.752314E-03  0.690E-03    0.52       1.5  T
   5   -171.2280029 -0.318866E-05  0.331E-03    0.52       3.2  T
   6   -171.2280031 -0.208708E-06  0.148E-03    0.52       7.1  T
   7   -171.2280032 -0.123567E-06  0.742E-04    0.52      14.1  T
   8   -171.2280033 -0.498190E-07  0.353E-04    0.52      29.5  T
     SCC iter.                  ...        0 min,  0.062 sec
     gradient                   ...        0 min,  0.012 sec
 * total energy  :  -168.5848420 Eh     change       -0.1213721E-03 Eh
   gradient norm :     0.0036951 Eh/α   predicted    -0.1017568E-03 ( -16.16%)
   displ. norm   :     0.6614445 α      lambda       -0.1442995E-03
   maximum displ.:     0.3376294 α      in ANC's #13, #6, #2, ...

........................................................................
.............................. CYCLE   55 ..............................
........................................................................
   1   -171.2221914 -0.171222E+03  0.132E-01    0.52       0.0  T
   2   -171.2221712  0.202032E-04  0.772E-02    0.53       1.0  T
   3   -171.2202890  0.188224E-02  0.103E-01    0.49       1.0  T
   4   -171.2222058 -0.191685E-02  0.861E-03    0.52       1.2  T
   5   -171.2222111 -0.533257E-05  0.421E-03    0.52       2.5  T
   6   -171.2222115 -0.343342E-06  0.201E-03    0.52       5.2  T
   7   -171.2222117 -0.204916E-06  0.110E-03    0.52       9.5  T
   8   -171.2222118 -0.111617E-06  0.485E-04    0.52      21.5  T
   9   -171.2222118 -0.194235E-07  0.213E-04    0.52      48.9  T
     SCC iter.                  ...        0 min,  0.070 sec
     gradient                   ...        0 min,  0.012 sec
 * total energy  :  -168.5849299 Eh     change       -0.8788883E-04 Eh
   gradient norm :     0.0050691 Eh/α   predicted    -0.1037193E-03 (  18.01%)
   displ. norm   :     0.3946609 α      lambda       -0.1604918E-03
   maximum displ.:     0.1850506 α      in ANC's #6, #13, #2, ...

........................................................................
.............................. CYCLE   56 ..............................
........................................................................
   1   -171.2266706 -0.171227E+03  0.810E-02    0.52       0.0  T
   2   -171.2266737 -0.317574E-05  0.462E-02    0.52       1.0  T
   3   -171.2266111  0.626789E-04  0.199E-02    0.51       1.0  T
   4   -171.2266691 -0.580079E-04  0.776E-03    0.52       1.3  T
   5   -171.2266761 -0.699989E-05  0.370E-03    0.52       2.8  T
   6   -171.2266771 -0.101123E-05  0.194E-03    0.52       5.4  T
   7   -171.2266774 -0.357810E-06  0.649E-04    0.52      16.1  T
     SCC iter.                  ...        0 min,  0.054 sec
     gradient                   ...        0 min,  0.012 sec
 * total energy  :  -168.5850294 Eh     change       -0.9948067E-04 Eh
   gradient norm :     0.0036732 Eh/α   predicted    -0.9274856E-04 (  -6.77%)
   displ. norm   :     0.4349825 α      lambda       -0.8363942E-04
   maximum displ.:     0.2157016 α      in ANC's #6, #13, #2, ...

........................................................................
.............................. CYCLE   57 ..............................
........................................................................
   1   -171.2252838 -0.171225E+03  0.836E-02    0.52       0.0  T
   2   -171.2252830  0.739198E-06  0.482E-02    0.52       1.0  T
   3   -171.2249500  0.333044E-03  0.436E-02    0.50       1.0  T
   4   -171.2252887 -0.338748E-03  0.551E-03    0.52       1.9  T
   5   -171.2252907 -0.200148E-05  0.276E-03    0.52       3.8  T
   6   -171.2252909 -0.150880E-06  0.134E-03    0.52       7.8  T
   7   -171.2252910 -0.109762E-06  0.736E-04    0.52      14.2  T
   8   -171.2252910 -0.589079E-07  0.275E-04    0.52      37.9  T
     SCC iter.                  ...        0 min,  0.062 sec
     gradient                   ...        0 min,  0.012 sec
 * total energy  :  -168.5850968 Eh     change       -0.6739897E-04 Eh
   gradient norm :     0.0029734 Eh/α   predicted    -0.4973493E-04 ( -26.21%)
   displ. norm   :     0.4474360 α      lambda       -0.1161501E-03
   maximum displ.:     0.2180520 α      in ANC's #6, #2, #13, ...

........................................................................
.............................. CYCLE   58 ..............................
........................................................................
   1   -171.2273202 -0.171227E+03  0.817E-02    0.52       0.0  T
   2   -171.2273240 -0.374115E-05  0.469E-02    0.52       1.0  T
   3   -171.2272698  0.541962E-04  0.188E-02    0.51       1.0  T
   4   -171.2273174 -0.475954E-04  0.836E-03    0.52       1.2  T
   5   -171.2273264 -0.896709E-05  0.367E-03    0.52       2.8  T
   6   -171.2273271 -0.756997E-06  0.196E-03    0.52       5.3  T
   7   -171.2273274 -0.321733E-06  0.802E-04    0.52      13.0  T
   8   -171.2273275 -0.620941E-07  0.296E-04    0.52      35.2  T
     SCC iter.                  ...        0 min,  0.067 sec
     gradient                   ...        0 min,  0.015 sec
 * total energy  :  -168.5851814 Eh     change       -0.8463914E-04 Eh
   gradient norm :     0.0035843 Eh/α   predicted    -0.6970412E-04 ( -17.65%)
   displ. norm   :     0.4587477 α      lambda       -0.8717814E-04
   maximum displ.:     0.2231534 α      in ANC's #6, #2, #13, ...

........................................................................
.............................. CYCLE   59 ..............................
........................................................................
   1   -171.2252085 -0.171225E+03  0.845E-02    0.52       0.0  T
   2   -171.2252086 -0.366746E-07  0.487E-02    0.52       1.0  T
   3   -171.2249051  0.303488E-03  0.419E-02    0.51       1.0  T
   4   -171.2252132 -0.308087E-03  0.612E-03    0.52       1.7  T
   5   -171.2252158 -0.267662E-05  0.308E-03    0.52       3.4  T
   6   -171.2252160 -0.127198E-06  0.173E-03    0.52       6.0  T
   7   -171.2252162 -0.259599E-06  0.800E-04    0.52      13.0  T
   8   -171.2252163 -0.635769E-07  0.302E-04    0.52      34.5  T
     SCC iter.                  ...        0 min,  0.062 sec
     gradient                   ...        0 min,  0.012 sec
 * total energy  :  -168.5852447 Eh     change       -0.6324658E-04 Eh
   gradient norm :     0.0037359 Eh/α   predicted    -0.5276663E-04 ( -16.57%)
   displ. norm   :     0.3816150 α      lambda       -0.1079916E-03
   maximum displ.:     0.1657062 α      in ANC's #2, #6, #8, ...

........................................................................
.............................. CYCLE   60 ..............................
........................................................................
   1   -171.2285853 -0.171229E+03  0.629E-02    0.52       0.0  T
   2   -171.2285880 -0.273868E-05  0.363E-02    0.52       1.0  T
   3   -171.2285675  0.205458E-04  0.126E-02    0.52       1.0  T
   4   -171.2285828 -0.153058E-04  0.694E-03    0.52       1.5  T
   5   -171.2285889 -0.615624E-05  0.343E-03    0.52       3.0  T
[...]
       ...                                ...                  ...
       286                          1.1780431              32.0562
      -------------------------------------------------------------
                  HL-Gap            0.0190835 Eh            0.5193 eV
             Fermi-level           -0.3691741 Eh          -10.0457 eV

     #   Z        covCN         q      C6AA      α(0)
     1   6 C      3.141     0.096    25.643     8.287
     2   7 N      1.900    -0.218    26.597     7.646
     3   6 C      3.152     0.022    27.227     8.534
     4   6 C      3.103     0.040    26.979     8.511
     5   7 N      2.847    -0.065    22.504     7.046
     6   6 C      2.695     0.338    21.260     7.546
     7   8 O      0.858    -0.359    20.885     6.127
     8   7 N      2.858    -0.048    22.159     6.991
     9   6 C      3.016    -0.004    28.101     8.696
    10   6 C      3.142     0.028    27.141     8.525
    11   7 N      1.910    -0.220    26.641     7.653
    12   6 C      3.129     0.092    25.761     8.310
    13   6 C      2.985     0.018    27.608     8.619
    14  16 S      2.374     0.040   139.411    19.872
    15   6 C      2.982     0.033    27.248     8.563
    16   6 C      3.147     0.003    27.704     8.611
    17   6 C      3.091    -0.034    28.734     8.786
    18   6 C      1.903     0.119    28.184     8.574
    19   7 N      0.911    -0.235    26.149     7.396
    20   6 C      2.952    -0.032    28.806     8.803
    21   6 C      2.897    -0.041    29.007     8.831
    22   6 C      3.003     0.082    26.155     8.389
    23   7 N      2.831    -0.071    22.609     7.062
    24   6 C      3.739     0.002    20.631     6.481
    25   6 C      3.752    -0.111    22.679     6.791
    26   6 C      2.845     0.268    22.494     7.773
    27   8 O      0.857    -0.404    21.756     6.254
    28   6 C      3.172    -0.068    29.297     8.842
    29   6 C      3.142    -0.073    29.565     8.897
    30   6 C      2.857     0.266    22.521     7.778
    31   8 O      0.857    -0.424    22.177     6.314
    32   7 N      2.827    -0.073    22.662     7.070
    33   6 C      3.740     0.003    20.603     6.476
    34   6 C      3.752    -0.111    22.690     6.793
    35   6 C      2.986     0.077    26.265     8.407
    36   6 C      2.902    -0.037    28.916     8.817
    37   6 C      2.896    -0.024    28.609     8.770
    38   6 C      3.070     0.018    27.531     8.603
    39   6 C      3.002    -0.054    29.320     8.882
    40   6 C      3.061     0.030    27.265     8.563
    41   6 C      3.051     0.003    27.911     8.664
    42   6 C      3.010    -0.023    28.564     8.767
    43   6 C      1.901     0.117    28.238     8.582
    44   7 N      0.911    -0.240    26.273     7.413
    45   6 C      3.070     0.031    27.246     8.559
    46   6 C      3.002    -0.056    29.380     8.891
    47   6 C      3.074     0.012    27.670     8.625
    48   6 C      3.016    -0.017    28.410     8.743
    49   6 C      3.052    -0.001    27.996     8.678
    50   6 C      1.901     0.117    28.219     8.579
    51   7 N      0.911    -0.249    26.485     7.443
    52   6 C      3.056     0.046    26.923     8.509
    53   6 C      3.147     0.026    27.172     8.528
    54   7 N      1.900    -0.220    26.640     7.652
    55   6 C      3.134     0.096    25.666     8.293
    56   7 N      2.848    -0.063    22.462     7.039
    57   6 C      2.695     0.340    21.220     7.539
    58   8 O      0.858    -0.359    20.870     6.125
    59   7 N      2.858    -0.049    22.185     6.996
    60   6 C      3.017    -0.004    28.102     8.696
    61   6 C      3.143     0.027    27.152     8.526
    62   7 N      1.910    -0.224    26.725     7.665
    63   6 C      3.131     0.093    25.744     8.307
    64   1 H      0.926     0.058     2.223     2.332
    65   1 H      0.926     0.064     2.158     2.297
    66   1 H      0.927     0.068     2.107     2.270
    67   1 H      0.926     0.062     2.177     2.307
    68   1 H      0.926     0.055     2.257     2.349
    69   1 H      0.926     0.053     2.285     2.364
    70   1 H      0.925     0.099     1.791     2.093
    71   1 H      0.926     0.065     2.139     2.287
    72   1 H      0.924     0.080     1.975     2.198
    73   1 H      0.924     0.054     2.270     2.356
    74   1 H      0.925     0.052     2.301     2.372
    75   1 H      0.925     0.057     2.238     2.339
    76   1 H      0.925     0.045     2.381     2.413
    77   1 H      0.924     0.081     1.969     2.195
    78   1 H      0.924     0.049     2.331     2.388
    79   1 H      0.925     0.051     2.304     2.374
    80   1 H      0.925     0.053     2.281     2.362
    81   1 H      0.925     0.046     2.375     2.410
    82   1 H      0.925     0.080     1.982     2.201
    83   1 H      0.926     0.061     2.183     2.311
    84   1 H      0.926     0.054     2.274     2.358
    85   1 H      0.926     0.054     2.267     2.354
    86   1 H      0.926     0.055     2.259     2.351
    87   1 H      0.926     0.036     2.502     2.473
    88   1 H      0.926     0.065     2.143     2.289
    89   1 H      0.926     0.055     2.261     2.351
    90   1 H      0.927     0.066     2.125     2.280
    91   1 H      0.926     0.059     2.208     2.323
    92   1 H      0.926     0.054     2.270     2.356

 Mol. C6AA /au·bohr⁶  :     136382.337931
 Mol. C8AA /au·bohr⁸  :    3472156.825376
 Mol. α(0) /au        :        583.060192


Wiberg/Mayer (AO) data.
largest (>0.10) Wiberg bond orders for each atom
          total WBO             WBO to atom ...
     1  C   3.932        N    2 1.605    N    5 1.150    H   64 0.961    C    4 0.101
     2  N   3.065        C    1 1.605    C    3 1.280
     3  C   3.950        C    4 1.503    N    2 1.280    H   65 0.966
     4  C   3.939        C    3 1.503    C   13 1.133    N    5 1.106    C    1 0.101
     5  N   3.602        C    1 1.150    C    4 1.106    C    6 1.033
     6  C   3.959        O    7 1.749    N    8 1.075    N    5 1.033
     7  O   2.091        C    6 1.749    N    8 0.107
     8  N   3.633        C   12 1.138    C    9 1.131    C    6 1.075    O    7 0.107
     9  C   3.935        C   10 1.653    N    8 1.131    H   66 0.967    C   12 0.122
    10  C   3.974        C    9 1.653    N   11 1.233    H   67 0.969
    11  N   3.057        C   12 1.647    C   10 1.233
    12  C   3.952        N   11 1.647    N    8 1.138    H   68 0.961    C    9 0.122
    13  C   3.924        C   17 1.487    S   14 1.149    C    4 1.133
    14  S   2.622        C   15 1.151    C   13 1.149
    15  C   3.940        C   16 1.342    C   20 1.235    S   14 1.151
    16  C   3.940        C   15 1.342    C   17 1.283    C   18 1.114
    17  C   3.979        C   13 1.487    C   16 1.283    H   69 0.962
    18  C   3.947        N   19 2.772    C   16 1.114
    19  N   2.988        C   18 2.772
    20  C   3.938        C   21 1.585    C   15 1.235    H   70 0.943
    21  C   3.972        C   20 1.585    C   22 1.223    H   71 0.950
    22  C   3.909        C   29 1.298    C   21 1.223    N   23 1.194
    23  N   3.562        C   22 1.194    C   26 1.068    C   24 0.983    O   27 0.117
    24  C   3.960        C   25 1.005    N   23 0.983    H   73 0.966    H   72 0.964
    25  C   3.988        C   24 1.005    H   74 0.987    H   76 0.985    H   75 0.983
    26  C   3.934        O   27 1.680    C   28 1.075    N   23 1.068
    27  O   1.990        C   26 1.680    N   23 0.117
    28  C   3.911        C   35 1.303    C   29 1.263    C   26 1.075
    29  C   3.917        C   22 1.298    C   28 1.263    C   30 1.085
    30  C   3.938        O   31 1.650    C   29 1.085    N   32 1.084
    31  O   1.993        C   30 1.650    N   32 0.121
    32  N   3.562        C   35 1.175    C   30 1.084    C   33 0.984    O   31 0.121
    33  C   3.961        C   34 1.006    N   32 0.984    H   77 0.963    H   78 0.962
    34  C   3.990        C   33 1.006    H   79 0.987    H   81 0.984    H   80 0.983
    35  C   3.935        C   28 1.303    C   36 1.242    N   32 1.175
    36  C   3.931        C   37 1.563    C   35 1.242    H   82 0.953
    37  C   3.931        C   36 1.563    C   38 1.238    H   83 0.953
    38  C   3.929        C   39 1.463    C   37 1.238    C   42 1.094
    39  C   3.892        C   38 1.463    C   40 1.238    H   84 0.963
    40  C   3.937        C   45 1.442    C   39 1.238    C   41 1.032
    41  C   3.970        C   42 1.640    C   43 1.127    C   40 1.032
    42  C   3.938        C   41 1.640    C   38 1.094    H   85 0.968    N   44 0.114
    43  C   3.949        N   44 2.767    C   41 1.127
    44  N   2.990        C   43 2.767    C   42 0.114
    45  C   3.907        C   40 1.442    C   46 1.210    C   49 1.041
    46  C   3.972        C   47 1.528    C   45 1.210    H   86 0.963
    47  C   3.909        C   46 1.528    C   52 1.132    C   48 1.112
    48  C   3.920        C   49 1.607    C   47 1.112    H   87 0.972    N   51 0.110
    49  C   3.964        C   48 1.607    C   50 1.134    C   45 1.041
    50  C   3.949        N   51 2.757    C   49 1.134
    51  N   2.987        C   50 2.757    C   48 0.110
    52  C   3.931        C   53 1.493    C   47 1.132    N   56 1.104
    53  C   3.923        C   52 1.493    N   54 1.285    H   88 0.967
    54  N   3.063        C   55 1.597    C   53 1.285
    55  C   3.923        N   54 1.597    N   56 1.153    H   89 0.962
    56  N   3.602        C   55 1.153    C   52 1.104    C   57 1.037
    57  C   3.959        O   58 1.751    N   59 1.068    N   56 1.037
    58  O   2.093        C   57 1.751    N   59 0.105
    59  N   3.633        C   63 1.143    C   60 1.134    C   57 1.068    O   58 0.105
    60  C   3.936        C   61 1.651    N   59 1.134    H   90 0.967    C   63 0.122
    61  C   3.974        C   60 1.651    N   62 1.235    H   91 0.969
    62  N   3.055        C   63 1.643    C   61 1.235
    63  C   3.953        N   62 1.643    N   59 1.143    H   92 0.962    C   60 0.122
    64  H   0.996        C    1 0.961
    65  H   0.995        C    3 0.966
    66  H   0.995        C    9 0.967
    67  H   0.995        C   10 0.969
    68  H   0.997        C   12 0.961
    69  H   0.997        C   17 0.962
    70  H   0.990        C   20 0.943
    71  H   0.995        C   21 0.950
    72  H   0.992        C   24 0.964
    73  H   0.995        C   24 0.966
    74  H   0.997        C   25 0.987
    75  H   0.996        C   25 0.983
    76  H   0.998        C   25 0.985
    77  H   0.993        C   33 0.963
    78  H   0.996        C   33 0.962
    79  H   0.997        C   34 0.987
    80  H   0.996        C   34 0.983
    81  H   0.998        C   34 0.984
    82  H   0.993        C   36 0.953
    83  H   0.996        C   37 0.953
    84  H   0.996        C   39 0.963
    85  H   0.996        C   42 0.968
    86  H   0.996        C   46 0.963
    87  H   0.998        C   48 0.972
    88  H   0.995        C   53 0.967
    89  H   0.996        C   55 0.962
    90  H   0.996        C   60 0.967
    91  H   0.996        C   61 0.969
    92  H   0.997        C   63 0.962

molecular dipole:
                 x           y           z       tot (Debye)
 q only:       -1.695       0.269      -1.427
   full:       -1.746       0.910      -1.652       6.533
molecular quadrupole (traceless):
                xx          xy          yy          xz          yz          zz
 q only:      -25.806      23.027      27.462     -36.936      14.912      -1.655
  q+dip:      -21.800      45.834      27.997     -58.587      18.746      -6.197
   full:      -25.663      51.256      39.831     -58.181      16.597     -14.168

           -------------------------------------------------
          |                Geometry Summary                 |
           -------------------------------------------------

      molecular mass/u    :      847.8688000
   center of mass at/Å    :       10.6344759      -5.2366514       0.8142251
  moments of inertia/u·Å² :        0.4127061E+04   0.6911372E+05   0.7262747E+05
rotational constants/cm⁻¹ :        0.4084658E-02   0.2439115E-03   0.2321110E-03

 * 93 selected distances

     #   Z        #   Z                                     value/Å
     1   6 C      2   7 N                                 1.2904446
     2   7 N      3   6 C                                 1.3565010
     3   6 C      4   6 C                                 1.3760814
     1   6 C      5   7 N                                 1.3824258
     4   6 C      5   7 N                                 1.3926589
     5   7 N      6   6 C                                 1.4011107
     6   6 C      7   8 O                                 1.1981905
     6   6 C      8   7 N                                 1.3883200
     8   7 N      9   6 C                                 1.3853299
     9   6 C     10   6 C                                 1.3551398
    10   6 C     11   7 N                                 1.3699975
     8   7 N     12   6 C                                 1.3836566
    11   7 N     12   6 C                                 1.2869586
     4   6 C     13   6 C                                 1.4308059
    13   6 C     14  16 S                                 1.7383283 (max)
    14  16 S     15   6 C                                 1.7373643
    15   6 C     16   6 C                                 1.3971385
    13   6 C     17   6 C                                 1.3731281
    16   6 C     17   6 C                                 1.4079484
    18   6 C     19   7 N                                 1.1481020
    15   6 C     20   6 C                                 1.4149598
    20   6 C     21   6 C                                 1.3608822
    21   6 C     22   6 C                                 1.4138670
    22   6 C     23   7 N                                 1.3730142
    23   7 N     24   6 C                                 1.4437508
    24   6 C     25   6 C                                 1.5262665
    23   7 N     26   6 C                                 1.4104577
    26   6 C     27   8 O                                 1.2118953
    26   6 C     28   6 C                                 1.4471916
    22   6 C     29   6 C                                 1.4000366
    28   6 C     29   6 C                                 1.4085125
    29   6 C     30   6 C                                 1.4455454
    30   6 C     31   8 O                                 1.2162489
    30   6 C     32   7 N                                 1.4071913
    32   7 N     33   6 C                                 1.4438709
    33   6 C     34   6 C                                 1.5265797
    28   6 C     35   6 C                                 1.3987346
    32   7 N     35   6 C                                 1.3786407
    35   6 C     36   6 C                                 1.4116513
    36   6 C     37   6 C                                 1.3631580
    37   6 C     38   6 C                                 1.4140441
    38   6 C     39   6 C                                 1.3819386
    39   6 C     40   6 C                                 1.4205069
    41   6 C     42   6 C                                 1.3574158
    43   6 C     44   7 N                                 1.1486503
    40   6 C     45   6 C                                 1.3762841
    45   6 C     46   6 C                                 1.4268744
    46   6 C     47   6 C                                 1.3723136
    48   6 C     49   6 C                                 1.3605824
    50   6 C     51   7 N                                 1.1494613
    47   6 C     52   6 C                                 1.4290246
    52   6 C     53   6 C                                 1.3772983
    53   6 C     54   7 N                                 1.3565794
    54   7 N     55   6 C                                 1.2918814
    52   6 C     56   7 N                                 1.3934935
    55   6 C     56   7 N                                 1.3806212
    56   7 N     57   6 C                                 1.3996242
    57   6 C     58   8 O                                 1.1981609
    57   6 C     59   7 N                                 1.3904177
    59   7 N     60   6 C                                 1.3846556
    60   6 C     61   6 C                                 1.3553254
    61   6 C     62   7 N                                 1.3697534
    59   7 N     63   6 C                                 1.3821800
    62   7 N     63   6 C                                 1.2877789
     1   6 C     64   1 H                                 1.0713953
     3   6 C     65   1 H                                 1.0713782
     9   6 C     66   1 H                                 1.0695376 (min)
    10   6 C     67   1 H                                 1.0706169
    12   6 C     68   1 H                                 1.0714169
    17   6 C     69   1 H                                 1.0746732
    20   6 C     70   1 H                                 1.0829861
    21   6 C     71   1 H                                 1.0789247
    24   6 C     72   1 H                                 1.0935681
    24   6 C     73   1 H                                 1.0932793
    25   6 C     74   1 H                                 1.0873731
    25   6 C     75   1 H                                 1.0860226
    25   6 C     76   1 H                                 1.0876044
    33   6 C     77   1 H                                 1.0944098
    33   6 C     78   1 H                                 1.0925681
    34   6 C     79   1 H                                 1.0873256
    34   6 C     80   1 H                                 1.0864305
    34   6 C     81   1 H                                 1.0876769
    36   6 C     82   1 H                                 1.0825563
    37   6 C     83   1 H                                 1.0791521
    39   6 C     84   1 H                                 1.0723906
    42   6 C     85   1 H                                 1.0738648
    46   6 C     86   1 H                                 1.0714404
    48   6 C     87   1 H                                 1.0742360
    53   6 C     88   1 H                                 1.0708015
    55   6 C     89   1 H                                 1.0716640
    60   6 C     90   1 H                                 1.0695706
    61   6 C     91   1 H                                 1.0706604
    63   6 C     92   1 H                                 1.0714825

 * 5 distinct bonds (by element types)

   Z      Z             #   av. dist./Å        max./Å        min./Å
   1 H    6 C          29     1.0791382     1.0944098     1.0695376
   6 C    6 C          29     1.4044564     1.5265797     1.3551398
   6 C    7 N          29     1.3509492     1.4438709     1.1481020
   6 C    8 O           4     1.2061239     1.2162489     1.1981609
   6 C   16 S           2     1.7378463     1.7383283     1.7373643


optimized geometry written to: xtbopt.xyz


           -------------------------------------------------
          | TOTAL ENERGY             -168.586477256646 Eh   |
          | GRADIENT NORM               0.000406684217 Eh/α |
          | HOMO-LUMO GAP               0.519288322708 eV   |
           -------------------------------------------------

------------------------------------------------------------------------
 * finished run on 2021/09/15 at 23:19:05.351     
------------------------------------------------------------------------
 total:
 * wall-time:     0 d,  0 h,  0 min,  9.609 sec
 *  cpu-time:     0 d,  0 h,  1 min, 55.126 sec
 * ratio c/w:    11.982 speedup
 SCF:
 * wall-time:     0 d,  0 h,  0 min,  0.151 sec
 *  cpu-time:     0 d,  0 h,  0 min,  1.800 sec
 * ratio c/w:    11.940 speedup
 ANC optimizer:
 * wall-time:     0 d,  0 h,  0 min,  9.422 sec
 *  cpu-time:     0 d,  0 h,  1 min, 53.021 sec
 * ratio c/w:    11.996 speedup

