      -----------------------------------------------------------      
     |                   =====================                   |     
     |                           x T B                           |     
     |                   =====================                   |     
     |                         S. Grimme                         |     
     |          Mulliken Center for Theoretical Chemistry        |     
     |                    University of Bonn                     |     
     |                Version 6.2 RC2 (SAW190805)                |     
      -----------------------------------------------------------      

   This program is distributed in the hope that it will be useful,
   but WITHOUT ANY WARRANTY; without even the implied warranty of
   MERCHANTABILITY or FITNESS FOR A PARTICULAR PURPOSE.
   
   FOR NON-COMMERCIAL, ACADEMIA USE ONLY.
   
   Cite this work as:
   * S. Grimme, C. Bannwarth, P. Shushkov, J. Chem. Theory Comput., 2017,
     13, 1989-2009. DOI: 10.1021/acs.jctc.7b00118
   * C. Bannwarth, S. Ehlert and S. Grimme., J. Chem. Theory Comput., 2019,
     15, 1652-1671. DOI: 10.1021/acs.jctc.8b01176
   * P. Pracht, E. Caldeweyher, S. Ehlert, S. Grimme, ChemRxiv, 2019, preprint.
     DOI: 10.26434/chemrxiv.8326202.v1
   
   for DFT-D4:
   * E. Caldeweyher, C. Bannwarth and S. Grimme, J. Chem. Phys., 2017,
     147, 034112. DOI: 10.1063/1.4993215
   * E. Caldeweyher, S. Ehlert, A. Hansen, H. Neugebauer, S. Spicher,
     C. Bannwarth and S. Grimme, J. Chem. Phys., 2019, 150, 154122.
     DOI: 10.1063/1.5090222
   
   for sTDA-xTB:
   * S. Grimme and C. Bannwarth, J. Chem. Phys., 2016, 145, 054103.
     DOI: 10.1063/1.4959605
   
   in the mass-spec context:
   * V. Asgeirsson, C. Bauer and S. Grimme, Chem. Sci., 2017, 8, 4879.
     DOI: 10.1039/c7sc00601b
   
   for metadynamics refer to:
   * S. Grimme, J. Chem. Theory Comput., 2019, 155, 2847-2862
     DOI: 10.1021/acs.jctc.9b00143
   
   with help from (in alphabetical order)
   C. Bannwarth, F. Bohle, G. Brandenburg, E. Caldeweyher, M. Checinski,
   S. Dohm, S. Ehlert, S. Ehrlich, F. März, H. Neugebauer, J. Pisarek,
   P. Pracht, P. Shushkov, and S. Spicher.
   
 * started run on 2021/09/15 at 08:00:46.088     

           -------------------------------------------------
          |                Calculation Setup                |
           -------------------------------------------------

          program call               : /ihome/ghutchison/geoffh/xtb/xtb /ihome/ghutchison/blp62/GA/running_GA/v5/generations/67/279_7_844_41_279_13051.xyz -opt
          hostname                   : smp-n36
          coordinate file            : /ihome/ghutchison/blp62/GA/running_GA/v5/generations/67/279_7_844_41_279_13051.xyz
          omp threads                :                    12
          number of atoms            :                   101
          number of electrons        :                   354
          charge                     :                     0
          spin                       :                   0.0
          first test random number   :      0.56233849460202


########################################################################
# WARNING! Please study the warnings concerning your input carefully
#  - XTBPATH is not set, using XTBHOME instead
#  - the use of '-opt' is discouraged, please use '--opt' next time
########################################################################

           ------------------------------------------------- 
          |                 G F N 2 - x T B                 |
          | Geometry, Frequencies, Noncovalent interactions |
          |            JCTC 2019 parametrisation            |
           ------------------------------------------------- 
             KAB for C  - Si     :                1.0500
             KAB for H  - Pd     :                0.9500
             k(s)              :                1.8500
             k(p)              :                2.2300
             k(d)              :                2.2300
             k(f)              :                2.0000
             kEN (H0ij)        :               -2.0000
             D4 a1             :                0.5200
             D4 a2             :                5.0000
             D4 s6             :                1.0000
             D4 s8             :                2.7000
             D4 s9             :                5.0000
             alphaj            :                2.0000

  Z AO/shell   Hii/eV     exponent
  1     Wed Apr 25 08:07:45 CEST 2018   EN: 2.200 GM2: 0.406  GM3: 0.0800  RAES: 1.40
     1s    -10.707211    1.230000
  6     Wed Apr 25 08:07:45 CEST 2018   EN: 2.550 GM2: 0.538  GM3: 0.1500  RAES: 3.00
     2s    -13.970922    2.096432
     2p    -10.063292    1.800000
  7     Wed Apr 25 08:07:45 CEST 2018   EN: 3.040 GM2: 0.461  GM3:-0.0640  RAES: 1.90
     2s    -16.686243    2.339881
     2p    -12.523956    2.014332
  8     Wed Apr 25 08:07:45 CEST 2018   EN: 3.440 GM2: 0.452  GM3:-0.0517  RAES: 1.80
     2s    -20.229985    2.439742
     2p    -15.503117    2.137023
  9     Mon Apr 23 13:58:50 CEST 2018   EN: 3.980 GM2: 0.532  GM3: 0.1426  RAES: 2.40
     2s    -23.458179    2.416361
     2p    -15.746583    2.308399
 16     Tue Apr 24 11:44:34 CEST 2018   EN: 2.580 GM2: 0.340  GM3:-0.0502  RAES: 3.10
     3s    -20.029654    1.981333
     3p    -11.377694    2.025643
     3d     -0.420282    1.702555

           ------------------------------------------------- 
          |        Self-Consistent Charge Iterations        |
           ------------------------------------------------- 

          ...................................................
          :                      SETUP                      :
          :.................................................:
          :  # basis functions                 338          :
          :  # atomic orbitals                 336          :
          :  # shells                          178          :
          :  # electrons                       354          :
          :  max. iterations                   250          :
          :  Hamiltonian                  GFN2-xTB          :
          :  restarted?                      false          :
          :  GBSA solvation                  false          :
          :  PC potential                    false          :
          :  electronic temp.          300.0000000     K    :
          :  accuracy                    1.0000000          :
          :  -> integral cutoff          0.2500000E+02      :
          :  -> integral neglect         0.1000000E-07      :
          :  -> SCF convergence          0.1000000E-05 Eh   :
          :  -> wf. convergence          0.1000000E-03 e    :
          :  Broyden damping             0.4000000          :
          ...................................................

 iter      E             dE          RMSdq      gap      omega  full diag
   1   -199.3477557 -0.199348E+03  0.582E+00    1.62       0.0  T
   2   -199.4080267 -0.602710E-01  0.378E+00    1.34       1.0  T
   3   -199.2009714  0.207055E+00  0.276E+00    1.46       1.0  T
   4   -199.7007049 -0.499733E+00  0.651E-01    1.41       1.0  T
   5   -199.7295161 -0.288113E-01  0.207E-01    1.29       1.0  T
   6   -199.7306103 -0.109415E-02  0.115E-01    1.33       1.0  T
   7   -199.7314555 -0.845200E-03  0.455E-02    1.35       1.0  T
   8   -199.7315617 -0.106237E-03  0.181E-02    1.34       1.0  T
   9   -199.7315678 -0.607536E-05  0.883E-03    1.33       1.1  T
  10   -199.7315719 -0.406094E-05  0.408E-03    1.34       2.4  T
  11   -199.7315725 -0.668498E-06  0.193E-03    1.34       5.2  T
  12   -199.7315728 -0.215678E-06  0.885E-04    1.34      11.2  T
  13   -199.7315728 -0.159513E-07  0.496E-04    1.34      20.1  T

   *** convergence criteria satisfied after 13 iterations ***

         #    Occupation            Energy/Eh            Energy/eV
      -------------------------------------------------------------
         1        2.0000           -0.9091083             -24.7381
       ...           ...                  ...                  ...
       171        2.0000           -0.4218843             -11.4801
       172        2.0000           -0.4213777             -11.4663
       173        2.0000           -0.4145468             -11.2804
       174        2.0000           -0.4124747             -11.2240
       175        2.0000           -0.4106064             -11.1732
       176        2.0000           -0.4082511             -11.1091
       177        2.0000           -0.3979907             -10.8299 (HOMO)
       178                         -0.3488135              -9.4917 (LUMO)
       179                         -0.3406898              -9.2706
       180                         -0.3404349              -9.2637
       181                         -0.3238560              -8.8126
       182                         -0.3230522              -8.7907
       ...                                ...                  ...
       336                          1.1075684              30.1385
      -------------------------------------------------------------
                  HL-Gap            0.0491772 Eh            1.3382 eV
             Fermi-level           -0.3734021 Eh          -10.1608 eV

 SCC (total)                   0 d,  0 h,  0 min,  0.604 sec
 SCC setup                      ...        0 min,  0.007 sec (  1.217%)
 Dispersion                     ...        0 min,  0.006 sec (  0.915%)
 integral evaluation            ...        0 min,  0.039 sec (  6.408%)
 zeroth order Hamiltonian       ...        0 min,  0.001 sec (  0.198%)
 iterations                     ...        0 min,  0.508 sec ( 84.122%)
 molecular gradient             ...        0 min,  0.041 sec (  6.829%)
 printout                       ...        0 min,  0.002 sec (  0.291%)

         :::::::::::::::::::::::::::::::::::::::::::::::::::::
         ::                     SUMMARY                     ::
         :::::::::::::::::::::::::::::::::::::::::::::::::::::
         :: total energy            -196.608484456898 Eh    ::
         :: gradient norm              0.208855789632 Eh/a0 ::
         :: HOMO-LUMO gap              1.338179168894 eV    ::
         ::.................................................::
         :: SCC energy              -199.731572774623 Eh    ::
         :: -> isotropic ES            0.177230319934 Eh    ::
         :: -> anisotropic ES          0.012440738116 Eh    ::
         :: -> anisotropic XC          0.155994373399 Eh    ::
         :: -> dispersion             -0.146739454612 Eh    ::
         :: repulsion energy           3.122993637060 Eh    ::
         :: add. restraining           0.000000000000 Eh    ::
         :::::::::::::::::::::::::::::::::::::::::::::::::::::

      ----------------------------------------------------------- 
     |                   =====================                   |
     |                        A N C O P T                        |
     |                   =====================                   |
     |               Approximate Normal Coordinate               |
     |                Rational Function Optimizer                |
      ----------------------------------------------------------- 

          ...................................................
          :                      SETUP                      :
          :.................................................:
          :   optimization level            normal          :
          :   max. optcycles                   303          :
          :   ANC micro-cycles                  20          :
          :   degrees of freedom               297          :
          :.................................................:
          :   RF solver                   davidson          :
          :   input Hessian                  false          :
          :   write xtbopt.log                true          :
          :   linear?                        false          :
          :   energy convergence         0.5000000E-05 Eh   :
          :   grad. convergence          0.1000000E-02 Eh/α :
          :   maximium RF displ.         2.0000000          :
          :   Hlow (freq-cutoff)         0.5000000E-02      :
          :   Hmax (freq-cutoff)         5.0000000          :
          :   S6 in model hess.         20.0000000          :
          ...................................................

generating ANC from model Hessian ...
Using Lindh-Hessian (1995)
 Shifting diagonal of input Hessian by   4.989254797527165E-003
 Lowest  eigenvalues of input Hessian
   -0.000000   -0.000000   -0.000000    0.000000    0.000000    0.000000
    0.005000    0.005012    0.005023    0.005036    0.005073    0.005103
    0.005208    0.005269    0.005318    0.005394    0.005422    0.005574
 Highest eigenvalues
    2.509357    2.545109    2.556692    2.560537    2.574149    2.579433
 

........................................................................
.............................. CYCLE    1 ..............................
........................................................................
   1   -199.7315728 -0.199732E+03  0.194E-04    1.34       0.0  T
   2   -199.7315728  0.233996E-09  0.171E-04    1.34      58.2  T
   3   -199.7315728 -0.191625E-08  0.873E-05    1.34     114.0  T
     SCC iter.                  ...        0 min,  0.115 sec
     gradient                   ...        0 min,  0.039 sec
 * total energy  :  -196.6084844 Eh     change        0.1062235E-06 Eh
   gradient norm :     0.2088557 Eh/α   predicted     0.0000000E+00 (-100.00%)
   displ. norm   :     0.3807443 α      lambda       -0.4232691E-01
   maximum displ.:     0.0909191 α      in ANC's #44, #70, #77, ...

........................................................................
.............................. CYCLE    2 ..............................
........................................................................
   1   -199.8745598 -0.199875E+03  0.233E-01    1.55       0.0  T
   2   -199.8747786 -0.218757E-03  0.144E-01    1.55       1.0  T
   3   -199.8744024  0.376201E-03  0.998E-02    1.55       1.0  T
   4   -199.8751702 -0.767837E-03  0.298E-02    1.55       1.0  T
   5   -199.8752158 -0.456082E-04  0.140E-02    1.56       1.0  T
   6   -199.8752248 -0.897688E-05  0.519E-03    1.56       1.9  T
   7   -199.8752264 -0.159474E-05  0.219E-03    1.56       4.5  T
   8   -199.8752266 -0.220602E-06  0.112E-03    1.56       8.9  T
     SCC iter.                  ...        0 min,  0.397 sec
     gradient                   ...        0 min,  0.040 sec
 * total energy  :  -196.6364721 Eh     change       -0.2798777E-01 Eh
   gradient norm :     0.0821156 Eh/α   predicted    -0.2423154E-01 ( -13.42%)
   displ. norm   :     0.4464491 α      lambda       -0.1379193E-01
   maximum displ.:     0.1523920 α      in ANC's #44, #29, #45, ...

........................................................................
.............................. CYCLE    3 ..............................
........................................................................
   1   -199.9107571 -0.199911E+03  0.190E-01    1.52       0.0  T
   2   -199.9108917 -0.134547E-03  0.112E-01    1.53       1.0  T
   3   -199.9105900  0.301693E-03  0.743E-02    1.53       1.0  T
   4   -199.9110511 -0.461171E-03  0.225E-02    1.53       1.0  T
   5   -199.9110735 -0.223735E-04  0.116E-02    1.54       1.0  T
   6   -199.9110807 -0.715628E-05  0.381E-03    1.54       2.6  T
   7   -199.9110814 -0.699743E-06  0.182E-03    1.53       5.5  T
   8   -199.9110815 -0.168810E-06  0.895E-04    1.53      11.1  T
     SCC iter.                  ...        0 min,  0.207 sec
     gradient                   ...        0 min,  0.029 sec
 * total energy  :  -196.6452282 Eh     change       -0.8756096E-02 Eh
   gradient norm :     0.0232586 Eh/α   predicted    -0.8270478E-02 (  -5.55%)
   displ. norm   :     0.5680639 α      lambda       -0.6014499E-02
   maximum displ.:     0.1957881 α      in ANC's #44, #29, #32, ...

........................................................................
.............................. CYCLE    4 ..............................
........................................................................
   1   -199.9101859 -0.199910E+03  0.260E-01    1.51       0.0  T
   2   -199.9102850 -0.991127E-04  0.146E-01    1.53       1.0  T
   3   -199.9099292  0.355859E-03  0.629E-02    1.52       1.0  T
   4   -199.9103479 -0.418743E-03  0.140E-02    1.53       1.0  T
   5   -199.9103551 -0.717161E-05  0.880E-03    1.53       1.1  T
   6   -199.9103590 -0.387373E-05  0.316E-03    1.53       3.1  T
   7   -199.9103592 -0.277640E-06  0.159E-03    1.53       6.2  T
     SCC iter.                  ...        0 min,  0.355 sec
     gradient                   ...        0 min,  0.031 sec
 * total energy  :  -196.6471636 Eh     change       -0.1935378E-02 Eh
   gradient norm :     0.0363218 Eh/α   predicted    -0.3977681E-02 ( 105.52%)
   displ. norm   :     0.5220555 α      lambda       -0.6786996E-02
   maximum displ.:     0.1695985 α      in ANC's #44, #29, #22, ...

........................................................................
.............................. CYCLE    5 ..............................
........................................................................
   1   -199.9247119 -0.199925E+03  0.256E-01    1.51       0.0  T
   2   -199.9248082 -0.962579E-04  0.143E-01    1.52       1.0  T
   3   -199.9246966  0.111559E-03  0.431E-02    1.52       1.0  T
   4   -199.9248525 -0.155855E-03  0.966E-03    1.52       1.0  T
   5   -199.9248539 -0.138123E-05  0.586E-03    1.52       1.7  T
   6   -199.9248557 -0.176660E-05  0.269E-03    1.52       3.7  T
     SCC iter.                  ...        0 min,  0.165 sec
     gradient                   ...        0 min,  0.033 sec
 * total energy  :  -196.6507473 Eh     change       -0.3583665E-02 Eh
   gradient norm :     0.0257649 Eh/α   predicted    -0.4318369E-02 (  20.50%)
   displ. norm   :     0.4427363 α      lambda       -0.2747045E-02
   maximum displ.:     0.1429186 α      in ANC's #19, #30, #15, ...

........................................................................
.............................. CYCLE    6 ..............................
........................................................................
   1   -199.9168374 -0.199917E+03  0.193E-01    1.51       0.0  T
   2   -199.9168754 -0.379673E-04  0.109E-01    1.52       1.0  T
   3   -199.9165952  0.280164E-03  0.546E-02    1.51       1.0  T
   4   -199.9169195 -0.324265E-03  0.780E-03    1.52       1.3  T
   5   -199.9169205 -0.104578E-05  0.488E-03    1.52       2.0  T
   6   -199.9169214 -0.880215E-06  0.201E-03    1.52       4.9  T
     SCC iter.                  ...        0 min,  0.185 sec
     gradient                   ...        0 min,  0.032 sec
 * total energy  :  -196.6519703 Eh     change       -0.1223020E-02 Eh
   gradient norm :     0.0230834 Eh/α   predicted    -0.1642758E-02 (  34.32%)
   displ. norm   :     0.5537506 α      lambda       -0.4194333E-02
   maximum displ.:     0.1704049 α      in ANC's #19, #29, #25, ...

........................................................................
.............................. CYCLE    7 ..............................
........................................................................
   1   -199.9169457 -0.199917E+03  0.208E-01    1.50       0.0  T
   2   -199.9170042 -0.585198E-04  0.118E-01    1.52       1.0  T
   3   -199.9166703  0.333838E-03  0.603E-02    1.51       1.0  T
   4   -199.9170592 -0.388853E-03  0.114E-02    1.52       1.0  T
   5   -199.9170645 -0.530498E-05  0.680E-03    1.52       1.5  T
   6   -199.9170664 -0.186927E-05  0.273E-03    1.52       3.6  T
   7   -199.9170667 -0.310207E-06  0.135E-03    1.52       7.3  T
     SCC iter.                  ...        0 min,  0.177 sec
     gradient                   ...        0 min,  0.033 sec
 * total energy  :  -196.6540039 Eh     change       -0.2033634E-02 Eh
   gradient norm :     0.0212840 Eh/α   predicted    -0.2740246E-02 (  34.75%)
   displ. norm   :     0.5172677 α      lambda       -0.2783254E-02
   maximum displ.:     0.1996213 α      in ANC's #19, #15, #16, ...

........................................................................
.............................. CYCLE    8 ..............................
........................................................................
   1   -199.9151046 -0.199915E+03  0.249E-01    1.50       0.0  T
   2   -199.9151858 -0.811782E-04  0.139E-01    1.51       1.0  T
   3   -199.9150276  0.158104E-03  0.450E-02    1.51       1.0  T
   4   -199.9152316 -0.203986E-03  0.887E-03    1.51       1.1  T
   5   -199.9152326 -0.962408E-06  0.572E-03    1.51       1.7  T
   6   -199.9152342 -0.158907E-05  0.240E-03    1.51       4.1  T
     SCC iter.                  ...        0 min,  0.171 sec
     gradient                   ...        0 min,  0.033 sec
 * total energy  :  -196.6545298 Eh     change       -0.5258581E-03 Eh
   gradient norm :     0.0323885 Eh/α   predicted    -0.1763979E-02 ( 235.45%)
   displ. norm   :     0.3849252 α      lambda       -0.3432377E-02
   maximum displ.:     0.1278846 α      in ANC's #15, #19, #30, ...

........................................................................
.............................. CYCLE    9 ..............................
........................................................................
   1   -199.9313320 -0.199931E+03  0.187E-01    1.49       0.0  T
   2   -199.9313778 -0.457868E-04  0.105E-01    1.50       1.0  T
   3   -199.9312430  0.134786E-03  0.427E-02    1.50       1.0  T
   4   -199.9314073 -0.164274E-03  0.732E-03    1.50       1.4  T
   5   -199.9314081 -0.742195E-06  0.470E-03    1.50       2.1  T
   6   -199.9314093 -0.125339E-05  0.198E-03    1.50       5.0  T
     SCC iter.                  ...        0 min,  0.136 sec
     gradient                   ...        0 min,  0.031 sec
 * total energy  :  -196.6562280 Eh     change       -0.1698253E-02 Eh
   gradient norm :     0.0236621 Eh/α   predicted    -0.1970476E-02 (  16.03%)
   displ. norm   :     0.4470073 α      lambda       -0.2020867E-02
   maximum displ.:     0.1746528 α      in ANC's #15, #19, #9, ...

........................................................................
.............................. CYCLE   10 ..............................
........................................................................
   1   -199.9276477 -0.199928E+03  0.167E-01    1.49       0.0  T
   2   -199.9276820 -0.343524E-04  0.949E-02    1.50       1.0  T
   3   -199.9274099  0.272092E-03  0.556E-02    1.49       1.0  T
   4   -199.9277248 -0.314873E-03  0.739E-03    1.50       1.3  T
   5   -199.9277263 -0.149921E-05  0.464E-03    1.50       2.1  T
   6   -199.9277272 -0.878536E-06  0.213E-03    1.50       4.7  T
     SCC iter.                  ...        0 min,  0.208 sec
     gradient                   ...        0 min,  0.056 sec
 * total energy  :  -196.6573286 Eh     change       -0.1100607E-02 Eh
   gradient norm :     0.0211863 Eh/α   predicted    -0.1212344E-02 (  10.15%)
   displ. norm   :     0.5829367 α      lambda       -0.2068560E-02
   maximum displ.:     0.2503413 α      in ANC's #15, #19, #14, ...

........................................................................
.............................. CYCLE   11 ..............................
........................................................................
   1   -199.9287666 -0.199929E+03  0.171E-01    1.48       0.0  T
   2   -199.9288042 -0.376550E-04  0.977E-02    1.48       1.0  T
   3   -199.9285915  0.212762E-03  0.514E-02    1.48       1.0  T
   4   -199.9288430 -0.251500E-03  0.899E-03    1.48       1.1  T
   5   -199.9288440 -0.978032E-06  0.563E-03    1.48       1.8  T
   6   -199.9288456 -0.165073E-05  0.214E-03    1.48       4.6  T
     SCC iter.                  ...        0 min,  0.456 sec
     gradient                   ...        0 min,  0.058 sec
 * total energy  :  -196.6586480 Eh     change       -0.1319390E-02 Eh
   gradient norm :     0.0254462 Eh/α   predicted    -0.1385747E-02 (   5.03%)
   displ. norm   :     0.6513875 α      lambda       -0.2448744E-02
   maximum displ.:     0.2810545 α      in ANC's #15, #19, #9, ...

........................................................................
.............................. CYCLE   12 ..............................
........................................................................
   1   -199.9260157 -0.199926E+03  0.200E-01    1.47       0.0  T
   2   -199.9260787 -0.630076E-04  0.114E-01    1.47       1.0  T
   3   -199.9257726  0.306136E-03  0.605E-02    1.47       1.0  T
   4   -199.9261333 -0.360747E-03  0.113E-02    1.47       1.0  T
   5   -199.9261358 -0.248813E-05  0.721E-03    1.47       1.4  T
   6   -199.9261385 -0.268804E-05  0.300E-03    1.47       3.3  T
   7   -199.9261389 -0.375250E-06  0.130E-03    1.47       7.7  T
     SCC iter.                  ...        0 min,  0.338 sec
     gradient                   ...        0 min,  0.060 sec
 * total energy  :  -196.6601374 Eh     change       -0.1489415E-02 Eh
   gradient norm :     0.0261485 Eh/α   predicted    -0.1743879E-02 (  17.08%)
   displ. norm   :     0.6139602 α      lambda       -0.2515070E-02
   maximum displ.:     0.2650960 α      in ANC's #15, #19, #14, ...

........................................................................
.............................. CYCLE   13 ..............................
........................................................................
   1   -199.9217353 -0.199922E+03  0.196E-01    1.46       0.0  T
   2   -199.9217886 -0.532487E-04  0.112E-01    1.47       1.0  T
   3   -199.9214239  0.364660E-03  0.648E-02    1.46       1.0  T
   4   -199.9218477 -0.423793E-03  0.108E-02    1.47       1.0  T
   5   -199.9218489 -0.120155E-05  0.720E-03    1.47       1.4  T
   6   -199.9218519 -0.300976E-05  0.281E-03    1.47       3.5  T
   7   -199.9218523 -0.335498E-06  0.133E-03    1.47       7.5  T
     SCC iter.                  ...        0 min,  0.300 sec
     gradient                   ...        0 min,  0.040 sec
 * total energy  :  -196.6613733 Eh     change       -0.1235890E-02 Eh
   gradient norm :     0.0314698 Eh/α   predicted    -0.1731567E-02 (  40.11%)
   displ. norm   :     0.5522286 α      lambda       -0.2477063E-02
   maximum displ.:     0.2597212 α      in ANC's #15, #9, #14, ...

........................................................................
.............................. CYCLE   14 ..............................
........................................................................
   1   -199.9353845 -0.199935E+03  0.175E-01    1.46       0.0  T
   2   -199.9354407 -0.561645E-04  0.998E-02    1.47       1.0  T
   3   -199.9352300  0.210631E-03  0.511E-02    1.47       1.0  T
   4   -199.9354777 -0.247625E-03  0.959E-03    1.47       1.0  T
   5   -199.9354815 -0.380321E-05  0.523E-03    1.47       1.9  T
   6   -199.9354822 -0.771219E-06  0.258E-03    1.47       3.9  T
     SCC iter.                  ...        0 min,  0.361 sec
     gradient                   ...        0 min,  0.063 sec
 * total energy  :  -196.6628098 Eh     change       -0.1436508E-02 Eh
   gradient norm :     0.0284003 Eh/α   predicted    -0.1616232E-02 (  12.51%)
   displ. norm   :     0.6097951 α      lambda       -0.2201217E-02
   maximum displ.:     0.3102715 α      in ANC's #15, #14, #9, ...

........................................................................
.............................. CYCLE   15 ..............................
........................................................................
   1   -199.9233716 -0.199923E+03  0.165E-01    1.45       0.0  T
   2   -199.9233928 -0.212058E-04  0.954E-02    1.46       1.0  T
   3   -199.9230603  0.332549E-03  0.612E-02    1.46       1.0  T
   4   -199.9234426 -0.382303E-03  0.926E-03    1.46       1.1  T
   5   -199.9234434 -0.852447E-06  0.631E-03    1.46       1.6  T
   6   -199.9234458 -0.236965E-05  0.195E-03    1.46       5.1  T
   7   -199.9234460 -0.165415E-06  0.981E-04    1.46      10.1  T
     SCC iter.                  ...        0 min,  0.327 sec
     gradient                   ...        0 min,  0.278 sec
 * total energy  :  -196.6642921 Eh     change       -0.1482300E-02 Eh
   gradient norm :     0.0230071 Eh/α   predicted    -0.1509867E-02 (   1.86%)
   displ. norm   :     0.6532540 α      lambda       -0.2333065E-02
   maximum displ.:     0.3314020 α      in ANC's #15, #10, #9, ...

........................................................................
.............................. CYCLE   16 ..............................
........................................................................
   1   -199.9201518 -0.199920E+03  0.217E-01    1.44       0.0  T
   2   -199.9202137 -0.618866E-04  0.123E-01    1.45       1.0  T
   3   -199.9198128  0.400934E-03  0.669E-02    1.45       1.0  T
   4   -199.9202796 -0.466854E-03  0.107E-02    1.45       1.0  T
   5   -199.9202813 -0.166523E-05  0.720E-03    1.45       1.4  T
   6   -199.9202841 -0.283517E-05  0.272E-03    1.45       3.7  T
   7   -199.9202845 -0.332785E-06  0.124E-03    1.45       8.0  T
     SCC iter.                  ...        0 min,  0.331 sec
     gradient                   ...        0 min,  0.063 sec
 * total energy  :  -196.6651938 Eh     change       -0.9016240E-03 Eh
   gradient norm :     0.0272138 Eh/α   predicted    -0.1664348E-02 (  84.59%)
   displ. norm   :     0.5543607 α      lambda       -0.2596835E-02
   maximum displ.:     0.2465995 α      in ANC's #15, #14, #9, ...

........................................................................
.............................. CYCLE   17 ..............................
........................................................................
   1   -199.9307247 -0.199931E+03  0.167E-01    1.44       0.0  T
   2   -199.9307532 -0.284863E-04  0.955E-02    1.45       1.0  T
   3   -199.9305634  0.189801E-03  0.462E-02    1.44       1.0  T
   4   -199.9307822 -0.218738E-03  0.824E-03    1.45       1.2  T
   5   -199.9307829 -0.721473E-06  0.537E-03    1.45       1.9  T
   6   -199.9307841 -0.124137E-05  0.204E-03    1.45       4.9  T
     SCC iter.                  ...        0 min,  0.279 sec
     gradient                   ...        0 min,  0.088 sec
 * total energy  :  -196.6669124 Eh     change       -0.1718621E-02 Eh
   gradient norm :     0.0164682 Eh/α   predicted    -0.1697444E-02 (  -1.23%)
   displ. norm   :     0.7427366 α      lambda       -0.1891852E-02
   maximum displ.:     0.3722374 α      in ANC's #15, #9, #14, ...

........................................................................
.............................. CYCLE   18 ..............................
........................................................................
   1   -199.9212641 -0.199921E+03  0.171E-01    1.43       0.0  T
   2   -199.9213111 -0.469773E-04  0.102E-01    1.45       1.0  T
   3   -199.9209535  0.357551E-03  0.668E-02    1.43       1.0  T
   4   -199.9213677 -0.414181E-03  0.113E-02    1.45       1.0  T
   5   -199.9213727 -0.501790E-05  0.661E-03    1.44       1.5  T
   6   -199.9213748 -0.205735E-05  0.292E-03    1.44       3.4  T
   7   -199.9213753 -0.483223E-06  0.114E-03    1.44       8.8  T
     SCC iter.                  ...        0 min,  0.443 sec
     gradient                   ...        0 min,  0.047 sec
 * total energy  :  -196.6679726 Eh     change       -0.1060215E-02 Eh
   gradient norm :     0.0255144 Eh/α   predicted    -0.1467766E-02 (  38.44%)
   displ. norm   :     0.5806988 α      lambda       -0.1826477E-02
   maximum displ.:     0.2975402 α      in ANC's #15, #10, #5, ...

........................................................................
.............................. CYCLE   19 ..............................
........................................................................
   1   -199.9300403 -0.199930E+03  0.135E-01    1.44       0.0  T
   2   -199.9300585 -0.182185E-04  0.774E-02    1.44       1.0  T
   3   -199.9298998  0.158707E-03  0.425E-02    1.44       1.0  T
   4   -199.9300793 -0.179489E-03  0.788E-03    1.44       1.3  T
   5   -199.9300797 -0.448387E-06  0.477E-03    1.44       2.1  T
   6   -199.9300809 -0.121250E-05  0.183E-03    1.44       5.4  T
     SCC iter.                  ...        0 min,  0.515 sec
     gradient                   ...        0 min,  0.040 sec
 * total energy  :  -196.6691559 Eh     change       -0.1183352E-02 Eh
   gradient norm :     0.0225498 Eh/α   predicted    -0.1221190E-02 (   3.20%)
   displ. norm   :     0.6818643 α      lambda       -0.1877479E-02
   maximum displ.:     0.3373653 α      in ANC's #15, #14, #5, ...

........................................................................
.............................. CYCLE   20 ..............................
........................................................................
   1   -199.9243881 -0.199924E+03  0.162E-01    1.43       0.0  T
   2   -199.9244397 -0.516483E-04  0.939E-02    1.43       1.0  T
   3   -199.9241933  0.246442E-03  0.585E-02    1.43       1.0  T
   4   -199.9244829 -0.289624E-03  0.115E-02    1.44       1.0  T
   5   -199.9244870 -0.409684E-05  0.700E-03    1.43       1.4  T
   6   -199.9244896 -0.255148E-05  0.283E-03    1.43       3.5  T
   7   -199.9244900 -0.422754E-06  0.116E-03    1.43       8.6  T
     SCC iter.                  ...        0 min,  0.296 sec
     gradient                   ...        0 min,  0.041 sec
 * total energy  :  -196.6699255 Eh     change       -0.7695067E-03 Eh
   gradient norm :     0.0281744 Eh/α   predicted    -0.1375198E-02 (  78.71%)
   displ. norm   :     0.5040327 α      lambda       -0.1899627E-02
   maximum displ.:     0.2332397 α      in ANC's #15, #5, #10, ...
 * RMSD in coord.:     0.8777270 α      energy gain  -0.6144100E-01 Eh

generating ANC from model Hessian ...
Using Lindh-Hessian (1995)
 Shifting diagonal of input Hessian by   5.020197640854335E-003
 Lowest  eigenvalues of input Hessian
    0.005000   -0.000000   -0.000000   -0.000000   -0.000000    0.000000
    0.000000    0.005032    0.005041    0.005044    0.005077    0.005089
    0.005107    0.005141    0.005217    0.005348    0.005409    0.005501
 Highest eigenvalues
    2.611454    2.639966    2.643531    2.644542    2.659600    2.660205
 

........................................................................
.............................. CYCLE   21 ..............................
........................................................................
   1   -199.9386037 -0.199939E+03  0.130E-01    1.44       0.0  T
   2   -199.9386268 -0.230649E-04  0.736E-02    1.44       1.0  T
   3   -199.9385251  0.101691E-03  0.374E-02    1.43       1.0  T
   4   -199.9386452 -0.120107E-03  0.776E-03    1.44       1.3  T
   5   -199.9386456 -0.397709E-06  0.491E-03    1.44       2.0  T
   6   -199.9386472 -0.162114E-05  0.195E-03    1.44       5.1  T
   7   -199.9386474 -0.237141E-06  0.823E-04    1.44      12.1  T
   8   -199.9386474 -0.120151E-07  0.456E-04    1.44      21.8  T
     SCC iter.                  ...        0 min,  0.327 sec
     gradient                   ...        0 min,  0.040 sec
 * total energy  :  -196.6708227 Eh     change       -0.8972651E-03 Eh
   gradient norm :     0.0237392 Eh/α   predicted     0.0000000E+00 (-100.00%)
   displ. norm   :     0.2654363 α      lambda       -0.1175419E-02
   maximum displ.:     0.1244807 α      in ANC's #15, #9, #18, ...

........................................................................
.............................. CYCLE   22 ..............................
........................................................................
   1   -199.9347489 -0.199935E+03  0.140E-01    1.44       0.0  T
   2   -199.9347732 -0.243084E-04  0.768E-02    1.44       1.0  T
   3   -199.9347219  0.513238E-04  0.254E-02    1.44       1.0  T
   4   -199.9347857 -0.638378E-04  0.579E-03    1.44       1.7  T
   5   -199.9347867 -0.982063E-06  0.264E-03    1.44       3.8  T
   6   -199.9347871 -0.322848E-06  0.120E-03    1.44       8.3  T
     SCC iter.                  ...        0 min,  0.245 sec
     gradient                   ...        0 min,  0.039 sec
 * total energy  :  -196.6711465 Eh     change       -0.3237814E-03 Eh
   gradient norm :     0.0132876 Eh/α   predicted    -0.6291189E-03 (  94.30%)
   displ. norm   :     0.3312596 α      lambda       -0.1718870E-02
   maximum displ.:     0.1822903 α      in ANC's #11, #5, #1, ...

........................................................................
.............................. CYCLE   23 ..............................
........................................................................
   1   -199.9339924 -0.199934E+03  0.202E-01    1.44       0.0  T
   2   -199.9340472 -0.548577E-04  0.112E-01    1.44       1.0  T
   3   -199.9340160  0.312425E-04  0.250E-02    1.44       1.0  T
   4   -199.9340694 -0.534342E-04  0.702E-03    1.44       1.4  T
   5   -199.9340709 -0.152889E-05  0.357E-03    1.44       2.8  T
   6   -199.9340715 -0.617289E-06  0.156E-03    1.44       6.4  T
   7   -199.9340717 -0.138711E-06  0.659E-04    1.44      15.1  T
     SCC iter.                  ...        0 min,  0.258 sec
     gradient                   ...        0 min,  0.039 sec
 * total energy  :  -196.6710457 Eh     change        0.1007615E-03 Eh
   gradient norm :     0.0323991 Eh/α   predicted    -0.9537450E-03 (*******%)
   displ. norm   :     0.1934959 α      lambda       -0.1804610E-02
   maximum displ.:     0.0952695 α      in ANC's #20, #52, #9, ...

........................................................................
.............................. CYCLE   24 ..............................
........................................................................
   1   -199.9377877 -0.199938E+03  0.155E-01    1.44       0.0  T
   2   -199.9378166 -0.289310E-04  0.844E-02    1.44       1.0  T
   3   -199.9377950  0.215776E-04  0.193E-02    1.44       1.0  T
   4   -199.9378295 -0.345024E-04  0.543E-03    1.44       1.8  T
   5   -199.9378303 -0.780940E-06  0.235E-03    1.44       4.2  T
   6   -199.9378307 -0.370490E-06  0.897E-04    1.44      11.1  T
     SCC iter.                  ...        0 min,  0.537 sec
     gradient                   ...        0 min,  0.053 sec
 * total energy  :  -196.6716543 Eh     change       -0.6085203E-03 Eh
   gradient norm :     0.0131145 Eh/α   predicted    -0.9360899E-03 (  53.83%)
   displ. norm   :     0.2459638 α      lambda       -0.1623442E-02
   maximum displ.:     0.0717307 α      in ANC's #6, #49, #18, ...

........................................................................
.............................. CYCLE   25 ..............................
........................................................................
   1   -199.9374984 -0.199937E+03  0.199E-01    1.44       0.0  T
   2   -199.9375443 -0.459551E-04  0.109E-01    1.44       1.0  T
   3   -199.9375243  0.200012E-04  0.204E-02    1.44       1.0  T
   4   -199.9375638 -0.394884E-04  0.673E-03    1.44       1.5  T
   5   -199.9375652 -0.134111E-05  0.294E-03    1.44       3.4  T
   6   -199.9375656 -0.459397E-06  0.116E-03    1.44       8.6  T
     SCC iter.                  ...        0 min,  0.347 sec
     gradient                   ...        0 min,  0.040 sec
 * total energy  :  -196.6712995 Eh     change        0.3548082E-03 Eh
   gradient norm :     0.0247603 Eh/α   predicted    -0.8608349E-03 (-342.62%)
   displ. norm   :     0.2180062 α      lambda       -0.2025805E-02
   maximum displ.:     0.0769169 α      in ANC's #5, #36, #26, ...

........................................................................
.............................. CYCLE   26 ..............................
........................................................................
   1   -199.9385723 -0.199939E+03  0.160E-01    1.44       0.0  T
   2   -199.9386008 -0.285231E-04  0.876E-02    1.44       1.0  T
   3   -199.9386010 -0.239588E-06  0.122E-02    1.44       1.0  T
   4   -199.9386110 -0.992778E-05  0.580E-03    1.44       1.7  T
   5   -199.9386124 -0.143650E-05  0.229E-03    1.44       4.4  T
   6   -199.9386127 -0.288370E-06  0.967E-04    1.44      10.3  T
     SCC iter.                  ...        0 min,  0.242 sec
     gradient                   ...        0 min,  0.041 sec
 * total energy  :  -196.6721885 Eh     change       -0.8890008E-03 Eh
   gradient norm :     0.0089988 Eh/α   predicted    -0.1061041E-02 (  19.35%)
   displ. norm   :     0.3016736 α      lambda       -0.1159095E-02
   maximum displ.:     0.1051231 α      in ANC's #11, #15, #52, ...

........................................................................
.............................. CYCLE   27 ..............................
........................................................................
   1   -199.9336719 -0.199934E+03  0.171E-01    1.44       0.0  T
   2   -199.9337124 -0.405398E-04  0.934E-02    1.44       1.0  T
   3   -199.9336962  0.162028E-04  0.193E-02    1.44       1.0  T
   4   -199.9337274 -0.311531E-04  0.673E-03    1.44       1.5  T
   5   -199.9337288 -0.145216E-05  0.327E-03    1.44       3.0  T
   6   -199.9337295 -0.624248E-06  0.132E-03    1.44       7.6  T
   7   -199.9337296 -0.100264E-06  0.562E-04    1.44      17.7  T
     SCC iter.                  ...        0 min,  0.304 sec
     gradient                   ...        0 min,  0.039 sec
 * total energy  :  -196.6720191 Eh     change        0.1693676E-03 Eh
   gradient norm :     0.0235440 Eh/α   predicted    -0.6322942E-03 (-473.33%)
   displ. norm   :     0.1893946 α      lambda       -0.1315783E-02
   maximum displ.:     0.0528879 α      in ANC's #8, #19, #15, ...

........................................................................
.............................. CYCLE   28 ..............................
........................................................................
   1   -199.9375977 -0.199938E+03  0.110E-01    1.44       0.0  T
   2   -199.9376131 -0.154043E-04  0.601E-02    1.44       1.0  T
   3   -199.9376075  0.561641E-05  0.120E-02    1.44       1.0  T
   4   -199.9376197 -0.121817E-04  0.369E-03    1.44       2.7  T
   5   -199.9376199 -0.251955E-06  0.196E-03    1.44       5.1  T
   6   -199.9376202 -0.313110E-06  0.685E-04    1.44      14.5  T
     SCC iter.                  ...        0 min,  0.582 sec
     gradient                   ...        0 min,  0.040 sec
 * total energy  :  -196.6727453 Eh     change       -0.7261891E-03 Eh
   gradient norm :     0.0073636 Eh/α   predicted    -0.6814964E-03 (  -6.15%)
   displ. norm   :     0.3516719 α      lambda       -0.9750973E-03
   maximum displ.:     0.1429893 α      in ANC's #18, #9, #15, ...

........................................................................
.............................. CYCLE   29 ..............................
........................................................................
   1   -199.9339021 -0.199934E+03  0.170E-01    1.44       0.0  T
   2   -199.9339351 -0.329888E-04  0.942E-02    1.44       1.0  T
   3   -199.9338838  0.513145E-04  0.258E-02    1.44       1.0  T
   4   -199.9339533 -0.694850E-04  0.545E-03    1.44       1.8  T
   5   -199.9339534 -0.849903E-07  0.321E-03    1.44       3.1  T
   6   -199.9339541 -0.697217E-06  0.117E-03    1.44       8.5  T
   7   -199.9339541 -0.651073E-07  0.576E-04    1.44      17.3  T
     SCC iter.                  ...        0 min,  0.335 sec
     gradient                   ...        0 min,  0.047 sec
 * total energy  :  -196.6724820 Eh     change        0.2632595E-03 Eh
   gradient norm :     0.0207439 Eh/α   predicted    -0.5478455E-03 (-308.10%)
   displ. norm   :     0.2375811 α      lambda       -0.1479235E-02
   maximum displ.:     0.0800618 α      in ANC's #15, #11, #9, ...

........................................................................
.............................. CYCLE   30 ..............................
........................................................................
   1   -199.9381106 -0.199938E+03  0.116E-01    1.44       0.0  T
   2   -199.9381271 -0.164666E-04  0.637E-02    1.44       1.0  T
   3   -199.9381120  0.150908E-04  0.159E-02    1.44       1.0  T
   4   -199.9381344 -0.224230E-04  0.418E-03    1.44       2.4  T
   5   -199.9381348 -0.427554E-06  0.217E-03    1.44       4.6  T
   6   -199.9381351 -0.320717E-06  0.852E-04    1.44      11.7  T
     SCC iter.                  ...        0 min,  0.505 sec
     gradient                   ...        0 min,  0.040 sec
 * total energy  :  -196.6733795 Eh     change       -0.8974439E-03 Eh
   gradient norm :     0.0063985 Eh/α   predicted    -0.7813658E-03 ( -12.93%)
   displ. norm   :     0.4648360 α      lambda       -0.7037515E-03
   maximum displ.:     0.2071636 α      in ANC's #15, #11, #9, ...

........................................................................
.............................. CYCLE   31 ..............................
........................................................................
   1   -199.9308745 -0.199931E+03  0.152E-01    1.44       0.0  T
   2   -199.9308981 -0.235633E-04  0.842E-02    1.44       1.0  T
   3   -199.9308614  0.366866E-04  0.226E-02    1.44       1.0  T
   4   -199.9309085 -0.471308E-04  0.698E-03    1.44       1.4  T
   5   -199.9309095 -0.990937E-06  0.339E-03    1.44       2.9  T
   6   -199.9309103 -0.791470E-06  0.123E-03    1.44       8.1  T
   7   -199.9309104 -0.785360E-07  0.577E-04    1.44      17.3  T
     SCC iter.                  ...        0 min,  0.366 sec
     gradient                   ...        0 min,  0.045 sec
 * total energy  :  -196.6736541 Eh     change       -0.2746116E-03 Eh
   gradient norm :     0.0141663 Eh/α   predicted    -0.4279070E-03 (  55.82%)
   displ. norm   :     0.5594695 α      lambda       -0.1031933E-02
   maximum displ.:     0.2334224 α      in ANC's #18, #15, #9, ...

........................................................................
.............................. CYCLE   32 ..............................
........................................................................
   1   -199.9329887 -0.199933E+03  0.151E-01    1.43       0.0  T
   2   -199.9330080 -0.192816E-04  0.842E-02    1.44       1.0  T
   3   -199.9329716  0.364445E-04  0.229E-02    1.44       1.0  T
   4   -199.9330151 -0.435232E-04  0.827E-03    1.44       1.2  T
   5   -199.9330170 -0.185609E-05  0.390E-03    1.44       2.5  T
   6   -199.9330179 -0.934999E-06  0.146E-03    1.44       6.8  T
   7   -199.9330180 -0.143046E-06  0.630E-04    1.44      15.8  T
     SCC iter.                  ...        0 min,  0.545 sec
     gradient                   ...        0 min,  0.039 sec
 * total energy  :  -196.6742513 Eh     change       -0.5971801E-03 Eh
   gradient norm :     0.0116748 Eh/α   predicted    -0.6774664E-03 (  13.44%)
   displ. norm   :     0.5376401 α      lambda       -0.1124379E-02
   maximum displ.:     0.2298226 α      in ANC's #15, #9, #18, ...

........................................................................
.............................. CYCLE   33 ..............................
........................................................................
   1   -199.9369018 -0.199937E+03  0.172E-01    1.43       0.0  T
   2   -199.9369279 -0.260307E-04  0.956E-02    1.44       1.0  T
   3   -199.9368415  0.863428E-04  0.313E-02    1.43       1.0  T
   4   -199.9369446 -0.103048E-03  0.766E-03    1.44       1.3  T
   5   -199.9369450 -0.409326E-06  0.384E-03    1.44       2.6  T
   6   -199.9369460 -0.106162E-05  0.132E-03    1.44       7.5  T
   7   -199.9369461 -0.777022E-07  0.689E-04    1.44      14.4  T
     SCC iter.                  ...        0 min,  0.432 sec
     gradient                   ...        0 min,  0.039 sec
 * total energy  :  -196.6745233 Eh     change       -0.2720869E-03 Eh
   gradient norm :     0.0159361 Eh/α   predicted    -0.7246965E-03 ( 166.35%)
   displ. norm   :     0.4183811 α      lambda       -0.1014519E-02
   maximum displ.:     0.1770347 α      in ANC's #15, #18, #9, ...

........................................................................
.............................. CYCLE   34 ..............................
........................................................................
   1   -199.9371130 -0.199937E+03  0.122E-01    1.43       0.0  T
   2   -199.9371279 -0.149121E-04  0.678E-02    1.44       1.0  T
   3   -199.9371072  0.206747E-04  0.180E-02    1.44       1.0  T
   4   -199.9371337 -0.265146E-04  0.603E-03    1.44       1.6  T
   5   -199.9371346 -0.864337E-06  0.293E-03    1.44       3.4  T
   6   -199.9371351 -0.506206E-06  0.114E-03    1.44       8.8  T
     SCC iter.                  ...        0 min,  0.285 sec
     gradient                   ...        0 min,  0.040 sec
 * total energy  :  -196.6752619 Eh     change       -0.7385613E-03 Eh
   gradient norm :     0.0090985 Eh/α   predicted    -0.5960535E-03 ( -19.30%)
   displ. norm   :     0.6552466 α      lambda       -0.7172927E-03
   maximum displ.:     0.2940224 α      in ANC's #15, #18, #9, ...

........................................................................
.............................. CYCLE   35 ..............................
........................................................................
   1   -199.9332347 -0.199933E+03  0.160E-01    1.43       0.0  T
   2   -199.9332565 -0.217861E-04  0.887E-02    1.43       1.0  T
   3   -199.9331805  0.759215E-04  0.312E-02    1.43       1.0  T
   4   -199.9332666 -0.860859E-04  0.981E-03    1.43       1.0  T
   5   -199.9332688 -0.217134E-05  0.438E-03    1.43       2.3  T
   6   -199.9332699 -0.111452E-05  0.169E-03    1.43       5.9  T
   7   -199.9332701 -0.164638E-06  0.752E-04    1.43      13.2  T
     SCC iter.                  ...        0 min,  0.354 sec
     gradient                   ...        0 min,  0.039 sec
 * total energy  :  -196.6758464 Eh     change       -0.5844587E-03 Eh
   gradient norm :     0.0084677 Eh/α   predicted    -0.5126331E-03 ( -12.29%)
   displ. norm   :     0.7308106 α      lambda       -0.6855138E-03
   maximum displ.:     0.3354729 α      in ANC's #15, #18, #9, ...

........................................................................
.............................. CYCLE   36 ..............................
........................................................................
   1   -199.9370848 -0.199937E+03  0.171E-01    1.42       0.0  T
   2   -199.9371095 -0.246304E-04  0.946E-02    1.43       1.0  T
   3   -199.9370042  0.105276E-03  0.363E-02    1.42       1.0  T
   4   -199.9371211 -0.116931E-03  0.117E-02    1.43       1.0  T
   5   -199.9371248 -0.364157E-05  0.518E-03    1.43       1.9  T
   6   -199.9371262 -0.142150E-05  0.200E-03    1.43       5.0  T
   7   -199.9371264 -0.244863E-06  0.865E-04    1.43      11.5  T
     SCC iter.                  ...        0 min,  0.599 sec
     gradient                   ...        0 min,  0.064 sec
 * total energy  :  -196.6764454 Eh     change       -0.5990234E-03 Eh
   gradient norm :     0.0072761 Eh/α   predicted    -0.5258195E-03 ( -12.22%)
   displ. norm   :     0.7922056 α      lambda       -0.7666041E-03
   maximum displ.:     0.3723452 α      in ANC's #15, #18, #9, ...

........................................................................
.............................. CYCLE   37 ..............................
........................................................................
   1   -199.9385729 -0.199939E+03  0.191E-01    1.42       0.0  T
   2   -199.9386073 -0.344027E-04  0.106E-01    1.43       1.0  T
   3   -199.9384457  0.161545E-03  0.444E-02    1.42       1.0  T
   4   -199.9386256 -0.179845E-03  0.134E-02    1.43       1.0  T
   5   -199.9386308 -0.516635E-05  0.584E-03    1.43       1.7  T
   6   -199.9386321 -0.137725E-05  0.248E-03    1.43       4.0  T
   7   -199.9386325 -0.362377E-06  0.108E-03    1.43       9.2  T
     SCC iter.                  ...        0 min,  0.441 sec
     gradient                   ...        0 min,  0.061 sec
 * total energy  :  -196.6771069 Eh     change       -0.6614807E-03 Eh
   gradient norm :     0.0091103 Eh/α   predicted    -0.6238675E-03 (  -5.69%)
   displ. norm   :     0.7717154 α      lambda       -0.9294315E-03
   maximum displ.:     0.3664715 α      in ANC's #15, #7, #18, ...

........................................................................
.............................. CYCLE   38 ..............................
........................................................................
   1   -199.9469844 -0.199947E+03  0.206E-01    1.41       0.0  T
   2   -199.9470329 -0.484528E-04  0.113E-01    1.42       1.0  T
   3   -199.9469116  0.121249E-03  0.403E-02    1.41       1.0  T
   4   -199.9470429 -0.131245E-03  0.163E-02    1.42       1.0  T
   5   -199.9470561 -0.132632E-04  0.668E-03    1.42       1.5  T
   6   -199.9470577 -0.158290E-05  0.283E-03    1.42       3.5  T
   7   -199.9470582 -0.533390E-06  0.116E-03    1.42       8.6  T
     SCC iter.                  ...        0 min,  0.419 sec
     gradient                   ...        0 min,  0.042 sec
 * total energy  :  -196.6778240 Eh     change       -0.7171282E-03 Eh
   gradient norm :     0.0126068 Eh/α   predicted    -0.7414808E-03 (   3.40%)
   displ. norm   :     0.8318323 α      lambda       -0.8913468E-03
   maximum displ.:     0.4150873 α      in ANC's #15, #18, #7, ...

........................................................................
.............................. CYCLE   39 ..............................
........................................................................
   1   -199.9328314 -0.199933E+03  0.220E-01    1.40       0.0  T
   2   -199.9328836 -0.521587E-04  0.121E-01    1.41       1.0  T
   3   -199.9327483  0.135330E-03  0.421E-02    1.40       1.0  T
   4   -199.9328917 -0.143449E-03  0.178E-02    1.41       1.0  T
   5   -199.9329081 -0.163914E-04  0.694E-03    1.41       1.4  T
   6   -199.9329097 -0.160417E-05  0.276E-03    1.41       3.6  T
   7   -199.9329103 -0.543202E-06  0.120E-03    1.41       8.3  T
     SCC iter.                  ...        0 min,  0.370 sec
     gradient                   ...        0 min,  0.041 sec
 * total energy  :  -196.6785347 Eh     change       -0.7107360E-03 Eh
   gradient norm :     0.0130537 Eh/α   predicted    -0.7540573E-03 (   6.10%)
   displ. norm   :     0.6583108 α      lambda       -0.1330651E-02
   maximum displ.:     0.3180729 α      in ANC's #15, #7, #21, ...

........................................................................
.............................. CYCLE   40 ..............................
........................................................................
   1   -199.9466532 -0.199947E+03  0.243E-01    1.39       0.0  T
   2   -199.9467834 -0.130243E-03  0.130E-01    1.39       1.0  T
   3   -199.9467029  0.805116E-04  0.409E-02    1.39       1.0  T
   4   -199.9467838 -0.808376E-04  0.215E-02    1.40       1.0  T
   5   -199.9468157 -0.319701E-04  0.842E-03    1.39       1.2  T
   6   -199.9468178 -0.204736E-05  0.357E-03    1.39       2.8  T
   7   -199.9468187 -0.883452E-06  0.148E-03    1.39       6.7  T
   8   -199.9468187 -0.591822E-07  0.876E-04    1.39      11.4  T
     SCC iter.                  ...        0 min,  0.672 sec
     gradient                   ...        0 min,  0.064 sec
 * total energy  :  -196.6791096 Eh     change       -0.5748687E-03 Eh
   gradient norm :     0.0405367 Eh/α   predicted    -0.9536605E-03 (  65.89%)
   displ. norm   :     0.6110975 α      lambda       -0.1413229E-02
   maximum displ.:     0.2943719 α      in ANC's #15, #7, #18, ...

........................................................................
.............................. CYCLE   41 ..............................
........................................................................
   1   -199.9399226 -0.199940E+03  0.182E-01    1.37       0.0  T
   2   -199.9399604 -0.378849E-04  0.997E-02    1.38       1.0  T
   3   -199.9398935  0.669702E-04  0.325E-02    1.37       1.0  T
   4   -199.9399658 -0.722882E-04  0.151E-02    1.38       1.0  T
   5   -199.9399757 -0.997348E-05  0.729E-03    1.38       1.4  T
   6   -199.9399786 -0.291219E-05  0.225E-03    1.38       4.4  T
   7   -199.9399789 -0.301975E-06  0.118E-03    1.38       8.5  T
     SCC iter.                  ...        0 min,  0.459 sec
     gradient                   ...        0 min,  0.061 sec
 * total energy  :  -196.6802028 Eh     change       -0.1093247E-02 Eh
   gradient norm :     0.0231691 Eh/α   predicted    -0.9704928E-03 ( -11.23%)
   displ. norm   :     0.4477622 α      lambda       -0.1786871E-02
   maximum displ.:     0.1751304 α      in ANC's #7, #15, #11, ...

........................................................................
.............................. CYCLE   42 ..............................
........................................................................
   1   -199.9348746 -0.199935E+03  0.169E-01    1.36       0.0  T
   2   -199.9349182 -0.436164E-04  0.928E-02    1.36       1.0  T
   3   -199.9348653  0.528401E-04  0.293E-02    1.36       1.0  T
   4   -199.9349289 -0.635705E-04  0.116E-02    1.36       1.0  T
   5   -199.9349332 -0.424016E-05  0.527E-03    1.37       1.9  T
   6   -199.9349350 -0.186152E-05  0.223E-03    1.37       4.5  T
     SCC iter.                  ...        0 min,  0.401 sec
     gradient                   ...        0 min,  0.061 sec
 * total energy  :  -196.6806259 Eh     change       -0.4230124E-03 Eh
   gradient norm :     0.0429941 Eh/α   predicted    -0.1072558E-02 ( 153.55%)
   displ. norm   :     0.5691710 α      lambda       -0.1872838E-02
   maximum displ.:     0.2650008 α      in ANC's #15, #7, #18, ...
 * RMSD in coord.:     0.8792115 α      energy gain  -0.1070040E-01 Eh

generating ANC from model Hessian ...
Using Lindh-Hessian (1995)
 Shifting diagonal of input Hessian by   5.033717703790162E-003
 Lowest  eigenvalues of input Hessian
    0.005000   -0.000000   -0.000000   -0.000000   -0.000000    0.000000
    0.000000    0.005045    0.005051    0.005064    0.005101    0.005154
    0.005253    0.005283    0.005420    0.005486    0.005619    0.005844
 Highest eigenvalues
    2.610722    2.628525    2.640526    2.650158    2.655606    2.661429
 

........................................................................
.............................. CYCLE   43 ..............................
........................................................................
   1   -199.9320011 -0.199932E+03  0.200E-01    1.34       0.0  T
   2   -199.9320552 -0.541478E-04  0.110E-01    1.35       1.0  T
   3   -199.9319430  0.112184E-03  0.411E-02    1.34       1.0  T
   4   -199.9320719 -0.128811E-03  0.162E-02    1.35       1.0  T
   5   -199.9320813 -0.945432E-05  0.756E-03    1.35       1.3  T
   6   -199.9320842 -0.293066E-05  0.207E-03    1.35       4.8  T
   7   -199.9320844 -0.180820E-06  0.128E-03    1.35       7.8  T
   8   -199.9320845 -0.423917E-07  0.615E-04    1.35      16.2  T
   9   -199.9320845 -0.169403E-07  0.288E-04    1.35      34.6  T
     SCC iter.                  ...        0 min,  0.587 sec
     gradient                   ...        0 min,  0.042 sec
 * total energy  :  -196.6817770 Eh     change       -0.1151152E-02 Eh
   gradient norm :     0.0258278 Eh/α   predicted     0.0000000E+00 (-100.00%)
   displ. norm   :     0.2849636 α      lambda       -0.1618768E-02
   maximum displ.:     0.1051177 α      in ANC's #10, #11, #36, ...

........................................................................
.............................. CYCLE   44 ..............................
........................................................................
   1   -199.9422240 -0.199942E+03  0.145E-01    1.35       0.0  T
   2   -199.9422557 -0.317315E-04  0.808E-02    1.34       1.0  T
   3   -199.9421286  0.127151E-03  0.364E-02    1.34       1.0  T
   4   -199.9422747 -0.146099E-03  0.796E-03    1.34       1.2  T
   5   -199.9422774 -0.271103E-05  0.408E-03    1.34       2.4  T
   6   -199.9422779 -0.512397E-06  0.218E-03    1.34       4.6  T
     SCC iter.                  ...        0 min,  0.314 sec
     gradient                   ...        0 min,  0.042 sec
 * total energy  :  -196.6826616 Eh     change       -0.8846198E-03 Eh
   gradient norm :     0.0111519 Eh/α   predicted    -0.8751101E-03 (  -1.08%)
   displ. norm   :     0.4227900 α      lambda       -0.2123584E-02
   maximum displ.:     0.1108365 α      in ANC's #30, #37, #19, ...

........................................................................
.............................. CYCLE   45 ..............................
........................................................................
   1   -199.9576668 -0.199958E+03  0.237E-01    1.34       0.0  T
   2   -199.9577492 -0.824051E-04  0.132E-01    1.34       1.0  T
   3   -199.9574724  0.276859E-03  0.535E-02    1.34       1.0  T
   4   -199.9577901 -0.317736E-03  0.132E-02    1.34       1.0  T
   5   -199.9577983 -0.818067E-05  0.667E-03    1.34       1.5  T
   6   -199.9577999 -0.165602E-05  0.338E-03    1.34       2.9  T
   7   -199.9578008 -0.859274E-06  0.113E-03    1.34       8.8  T
   8   -199.9578008 -0.135033E-07  0.648E-04    1.34      15.4  T
     SCC iter.                  ...        0 min,  0.442 sec
     gradient                   ...        0 min,  0.055 sec
 * total energy  :  -196.6823837 Eh     change        0.2778756E-03 Eh
   gradient norm :     0.0364736 Eh/α   predicted    -0.1251589E-02 (-550.41%)
   displ. norm   :     0.2749734 α      lambda       -0.2987818E-02
   maximum displ.:     0.0901638 α      in ANC's #11, #37, #10, ...

........................................................................
.............................. CYCLE   46 ..............................
........................................................................
   1   -199.9563059 -0.199956E+03  0.194E-01    1.33       0.0  T
   2   -199.9563476 -0.416855E-04  0.107E-01    1.33       1.0  T
   3   -199.9563303  0.173304E-04  0.201E-02    1.33       1.0  T
   4   -199.9563668 -0.365364E-04  0.620E-03    1.33       1.6  T
   5   -199.9563674 -0.577210E-06  0.307E-03    1.33       3.2  T
   6   -199.9563680 -0.583057E-06  0.115E-03    1.33       8.7  T
     SCC iter.                  ...        0 min,  0.403 sec
     gradient                   ...        0 min,  0.061 sec
 * total energy  :  -196.6836142 Eh     change       -0.1230410E-02 Eh
   gradient norm :     0.0219496 Eh/α   predicted    -0.1606864E-02 (  30.60%)
   displ. norm   :     0.3338952 α      lambda       -0.2666466E-02
   maximum displ.:     0.1176097 α      in ANC's #36, #22, #42, ...

........................................................................
.............................. CYCLE   47 ..............................
........................................................................
   1   -199.9368524 -0.199937E+03  0.237E-01    1.31       0.0  T
   2   -199.9369195 -0.671505E-04  0.131E-01    1.31       1.0  T
   3   -199.9367255  0.193989E-03  0.463E-02    1.31       1.0  T
   4   -199.9369613 -0.235730E-03  0.808E-03    1.31       1.2  T
   5   -199.9369634 -0.207648E-05  0.459E-03    1.31       2.2  T
   6   -199.9369642 -0.892858E-06  0.224E-03    1.31       4.4  T
     SCC iter.                  ...        0 min,  0.492 sec
     gradient                   ...        0 min,  0.051 sec
 * total energy  :  -196.6837291 Eh     change       -0.1149647E-03 Eh
   gradient norm :     0.0293342 Eh/α   predicted    -0.1481871E-02 (1188.98%)
   displ. norm   :     0.2989138 α      lambda       -0.2446563E-02
   maximum displ.:     0.0818092 α      in ANC's #10, #37, #12, ...

........................................................................
.............................. CYCLE   48 ..............................
........................................................................
   1   -199.9421094 -0.199942E+03  0.184E-01    1.30       0.0  T
   2   -199.9421478 -0.383961E-04  0.102E-01    1.30       1.0  T
   3   -199.9421140  0.338311E-04  0.226E-02    1.30       1.0  T
   4   -199.9421646 -0.506230E-04  0.691E-03    1.30       1.4  T
   5   -199.9421656 -0.964534E-06  0.395E-03    1.30       2.5  T
   6   -199.9421668 -0.122324E-05  0.153E-03    1.30       6.5  T
     SCC iter.                  ...        0 min,  0.442 sec
     gradient                   ...        0 min,  0.052 sec
 * total energy  :  -196.6848726 Eh     change       -0.1143495E-02 Eh
   gradient norm :     0.0181468 Eh/α   predicted    -0.1332587E-02 (  16.54%)
   displ. norm   :     0.4089226 α      lambda       -0.2079464E-02
   maximum displ.:     0.1370099 α      in ANC's #11, #10, #12, ...

........................................................................
.............................. CYCLE   49 ..............................
........................................................................
   1   -199.9532861 -0.199953E+03  0.214E-01    1.29       0.0  T
   2   -199.9533453 -0.591747E-04  0.119E-01    1.29       1.0  T
   3   -199.9531852  0.160159E-03  0.426E-02    1.29       1.0  T
   4   -199.9533765 -0.191300E-03  0.971E-03    1.29       1.0  T
   5   -199.9533789 -0.248168E-05  0.541E-03    1.29       1.8  T
   6   -199.9533806 -0.164817E-05  0.245E-03    1.29       4.1  T
   7   -199.9533810 -0.436049E-06  0.990E-04    1.29      10.0  T
     SCC iter.                  ...        0 min,  0.282 sec
     gradient                   ...        0 min,  0.037 sec
 * total energy  :  -196.6851852 Eh     change       -0.3125521E-03 Eh
   gradient norm :     0.0312982 Eh/α   predicted    -0.1213594E-02 ( 288.29%)
   displ. norm   :     0.3351664 α      lambda       -0.1628960E-02
   maximum displ.:     0.1271603 α      in ANC's #11, #10, #12, ...

........................................................................
.............................. CYCLE   50 ..............................
........................................................................
   1   -199.9476494 -0.199948E+03  0.142E-01    1.27       0.0  T
   2   -199.9476693 -0.199538E-04  0.787E-02    1.27       1.0  T
   3   -199.9476525  0.167938E-04  0.180E-02    1.27       1.0  T
   4   -199.9476772 -0.246911E-04  0.668E-03    1.27       1.5  T
   5   -199.9476782 -0.100948E-05  0.291E-03    1.27       3.4  T
   6   -199.9476789 -0.653002E-06  0.111E-03    1.27       9.0  T
     SCC iter.                  ...        0 min,  0.315 sec
     gradient                   ...        0 min,  0.039 sec
 * total energy  :  -196.6862675 Eh     change       -0.1082347E-02 Eh
   gradient norm :     0.0162020 Eh/α   predicted    -0.9059763E-03 ( -16.30%)
   displ. norm   :     0.4870037 α      lambda       -0.1686011E-02
   maximum displ.:     0.2038871 α      in ANC's #11, #10, #12, ...

........................................................................
.............................. CYCLE   51 ..............................
........................................................................
   1   -199.9350970 -0.199935E+03  0.197E-01    1.25       0.0  T
   2   -199.9351385 -0.415001E-04  0.110E-01    1.25       1.0  T
   3   -199.9349517  0.186814E-03  0.464E-02    1.25       1.0  T
   4   -199.9351702 -0.218515E-03  0.861E-03    1.26       1.2  T
   5   -199.9351713 -0.115437E-05  0.473E-03    1.25       2.1  T
   6   -199.9351727 -0.138061E-05  0.207E-03    1.26       4.8  T
   7   -199.9351730 -0.303892E-06  0.924E-04    1.25      10.8  T
     SCC iter.                  ...        0 min,  0.449 sec
     gradient                   ...        0 min,  0.039 sec
 * total energy  :  -196.6867017 Eh     change       -0.4342008E-03 Eh
   gradient norm :     0.0281632 Eh/α   predicted    -0.1042945E-02 ( 140.20%)
   displ. norm   :     0.3880590 α      lambda       -0.1496137E-02
   maximum displ.:     0.1741676 α      in ANC's #11, #10, #12, ...

........................................................................
.............................. CYCLE   52 ..............................
........................................................................
   1   -199.9425174 -0.199943E+03  0.145E-01    1.25       0.0  T
   2   -199.9425389 -0.215056E-04  0.802E-02    1.25       1.0  T
   3   -199.9424729  0.660254E-04  0.288E-02    1.25       1.0  T
   4   -199.9425520 -0.791310E-04  0.654E-03    1.25       1.5  T
   5   -199.9425525 -0.454481E-06  0.331E-03    1.25       3.0  T
   6   -199.9425533 -0.839512E-06  0.135E-03    1.25       7.4  T
     SCC iter.                  ...        0 min,  0.251 sec
     gradient                   ...        0 min,  0.039 sec
 * total energy  :  -196.6876610 Eh     change       -0.9593281E-03 Eh
   gradient norm :     0.0165502 Eh/α   predicted    -0.8607226E-03 ( -10.28%)
   displ. norm   :     0.5455011 α      lambda       -0.1284788E-02
   maximum displ.:     0.2384858 α      in ANC's #11, #10, #12, ...

........................................................................
.............................. CYCLE   53 ..............................
........................................................................
   1   -199.9435969 -0.199944E+03  0.191E-01    1.23       0.0  T
   2   -199.9436360 -0.391455E-04  0.106E-01    1.23       1.0  T
   3   -199.9436010  0.350349E-04  0.244E-02    1.23       1.0  T
   4   -199.9436486 -0.476204E-04  0.913E-03    1.23       1.1  T
   5   -199.9436514 -0.276560E-05  0.400E-03    1.23       2.5  T
   6   -199.9436527 -0.135153E-05  0.166E-03    1.23       6.0  T
   7   -199.9436529 -0.197123E-06  0.801E-04    1.23      12.4  T
     SCC iter.                  ...        0 min,  0.285 sec
     gradient                   ...        0 min,  0.038 sec
 * total energy  :  -196.6881327 Eh     change       -0.4716071E-03 Eh
   gradient norm :     0.0183360 Eh/α   predicted    -0.8335560E-03 (  76.75%)
   displ. norm   :     0.4364775 α      lambda       -0.1341690E-02
   maximum displ.:     0.2203567 α      in ANC's #11, #10, #12, ...

........................................................................
.............................. CYCLE   54 ..............................
........................................................................
   1   -199.9541099 -0.199954E+03  0.126E-01    1.23       0.0  T
   2   -199.9541235 -0.135890E-04  0.708E-02    1.23       1.0  T
   3   -199.9541013  0.221540E-04  0.178E-02    1.23       1.0  T
   4   -199.9541298 -0.284976E-04  0.518E-03    1.23       1.9  T
   5   -199.9541302 -0.347850E-06  0.273E-03    1.23       3.6  T
   6   -199.9541308 -0.632063E-06  0.102E-03    1.23       9.8  T
     SCC iter.                  ...        0 min,  0.293 sec
     gradient                   ...        0 min,  0.044 sec
 * total energy  :  -196.6890158 Eh     change       -0.8831752E-03 Eh
   gradient norm :     0.0136593 Eh/α   predicted    -0.7986510E-03 (  -9.57%)
   displ. norm   :     0.6416619 α      lambda       -0.1225192E-02
   maximum displ.:     0.3062483 α      in ANC's #11, #10, #12, ...

........................................................................
.............................. CYCLE   55 ..............................
........................................................................
   1   -199.9471229 -0.199947E+03  0.194E-01    1.22       0.0  T
   2   -199.9471544 -0.314841E-04  0.108E-01    1.22       1.0  T
   3   -199.9470919  0.625119E-04  0.282E-02    1.22       1.0  T
   4   -199.9471665 -0.746435E-04  0.102E-02    1.22       1.0  T
   5   -199.9471700 -0.351830E-05  0.437E-03    1.22       2.3  T
   6   -199.9471715 -0.148487E-05  0.157E-03    1.22       6.3  T
   7   -199.9471716 -0.111965E-06  0.914E-04    1.22      10.9  T
     SCC iter.                  ...        0 min,  0.318 sec
     gradient                   ...        0 min,  0.040 sec
 * total energy  :  -196.6896163 Eh     change       -0.6004770E-03 Eh
   gradient norm :     0.0140789 Eh/α   predicted    -0.8648310E-03 (  44.02%)
   displ. norm   :     0.5092549 α      lambda       -0.1116283E-02
   maximum displ.:     0.2632252 α      in ANC's #11, #10, #12, ...

........................................................................
.............................. CYCLE   56 ..............................
........................................................................
   1   -199.9527865 -0.199953E+03  0.123E-01    1.23       0.0  T
   2   -199.9527976 -0.111191E-04  0.695E-02    1.22       1.0  T
   3   -199.9527655  0.321420E-04  0.200E-02    1.23       1.0  T
   4   -199.9528037 -0.381956E-04  0.523E-03    1.22       1.9  T
   5   -199.9528038 -0.132293E-06  0.311E-03    1.22       3.2  T
   6   -199.9528046 -0.807246E-06  0.110E-03    1.22       9.1  T
   7   -199.9528047 -0.902402E-07  0.521E-04    1.22      19.1  T
     SCC iter.                  ...        0 min,  0.551 sec
     gradient                   ...        0 min,  0.063 sec
 * total energy  :  -196.6901244 Eh     change       -0.5080877E-03 Eh
   gradient norm :     0.0168073 Eh/α   predicted    -0.7028962E-03 (  38.34%)
   displ. norm   :     0.5509077 α      lambda       -0.1530269E-02
   maximum displ.:     0.2440786 α      in ANC's #11, #10, #12, ...

........................................................................
.............................. CYCLE   57 ..............................
........................................................................
   1   -199.9491664 -0.199949E+03  0.187E-01    1.21       0.0  T
   2   -199.9491987 -0.323137E-04  0.103E-01    1.22       1.0  T
   3   -199.9491707  0.279750E-04  0.220E-02    1.22       1.0  T
   4   -199.9492096 -0.389235E-04  0.894E-03    1.22       1.1  T
   5   -199.9492123 -0.263128E-05  0.370E-03    1.22       2.7  T
   6   -199.9492132 -0.947746E-06  0.171E-03    1.22       5.8  T
   7   -199.9492135 -0.233206E-06  0.760E-04    1.22      13.1  T
     SCC iter.                  ...        0 min,  0.346 sec
     gradient                   ...        0 min,  0.061 sec
 * total energy  :  -196.6906768 Eh     change       -0.5524109E-03 Eh
   gradient norm :     0.0154800 Eh/α   predicted    -0.9973551E-03 (  80.55%)
   displ. norm   :     0.4335183 α      lambda       -0.1080941E-02
   maximum displ.:     0.2130384 α      in ANC's #11, #10, #5, ...

........................................................................
.............................. CYCLE   58 ..............................
........................................................................
   1   -199.9534372 -0.199953E+03  0.134E-01    1.22       0.0  T
   2   -199.9534544 -0.172126E-04  0.738E-02    1.22       1.0  T
   3   -199.9534090  0.453715E-04  0.244E-02    1.22       1.0  T
   4   -199.9534628 -0.538070E-04  0.685E-03    1.22       1.5  T
   5   -199.9534640 -0.115879E-05  0.335E-03    1.22       3.0  T
   6   -199.9534648 -0.845167E-06  0.128E-03    1.22       7.8  T
   7   -199.9534649 -0.949531E-07  0.663E-04    1.22      15.0  T
     SCC iter.                  ...        0 min,  0.341 sec
     gradient                   ...        0 min,  0.062 sec
 * total energy  :  -196.6912141 Eh     change       -0.5372724E-03 Eh
   gradient norm :     0.0141497 Eh/α   predicted    -0.6420501E-03 (  19.50%)
   displ. norm   :     0.5461668 α      lambda       -0.9713303E-03
   maximum displ.:     0.2602811 α      in ANC's #11, #10, #12, ...

........................................................................
.............................. CYCLE   59 ..............................
........................................................................
   1   -199.9481731 -0.199948E+03  0.163E-01    1.21       0.0  T
   2   -199.9481962 -0.231574E-04  0.912E-02    1.21       1.0  T
   3   -199.9481175  0.787521E-04  0.304E-02    1.21       1.0  T
   4   -199.9482109 -0.934563E-04  0.701E-03    1.21       1.4  T
   5   -199.9482111 -0.119697E-06  0.396E-03    1.21       2.5  T
   6   -199.9482123 -0.122062E-05  0.139E-03    1.21       7.2  T
   7   -199.9482124 -0.895035E-07  0.748E-04    1.21      13.3  T
     SCC iter.                  ...        0 min,  0.336 sec
     gradient                   ...        0 min,  0.063 sec
 * total energy  :  -196.6916272 Eh     change       -0.4131699E-03 Eh
   gradient norm :     0.0135274 Eh/α   predicted    -0.6305400E-03 (  52.61%)
   displ. norm   :     0.4466500 α      lambda       -0.7652947E-03
   maximum displ.:     0.2123611 α      in ANC's #11, #10, #5, ...

........................................................................
.............................. CYCLE   60 ..............................
........................................................................
   1   -199.9540751 -0.199954E+03  0.118E-01    1.21       0.0  T
   2   -199.9540856 -0.104785E-04  0.659E-02    1.21       1.0  T
   3   -199.9540488  0.367914E-04  0.217E-02    1.21       1.0  T
   4   -199.9540919 -0.431073E-04  0.599E-03    1.21       1.7  T
   5   -199.9540920 -0.153137E-06  0.329E-03    1.21       3.0  T
   6   -199.9540931 -0.107903E-05  0.935E-04    1.21      10.6  T
   7   -199.9540932 -0.380068E-07  0.502E-04    1.21      19.8  T
     SCC iter.                  ...        0 min,  0.538 sec
     gradient                   ...        0 min,  0.064 sec
 * total energy  :  -196.6920528 Eh     change       -0.4255336E-03 Eh
   gradient norm :     0.0119680 Eh/α   predicted    -0.4589861E-03 (   7.86%)
   displ. norm   :     0.5266606 α      lambda       -0.7833231E-03
   maximum displ.:     0.2313307 α      in ANC's #11, #10, #5, ...

........................................................................
.............................. CYCLE   61 ..............................
........................................................................
   1   -199.9529807 -0.199953E+03  0.149E-01    1.21       0.0  T
   2   -199.9530000 -0.192917E-04  0.831E-02    1.21       1.0  T
   3   -199.9529097  0.902517E-04  0.311E-02    1.22       1.0  T
   4   -199.9530136 -0.103862E-03  0.676E-03    1.21       1.5  T
   5   -199.9530137 -0.108293E-06  0.463E-03    1.21       2.1  T
   6   -199.9530156 -0.190725E-05  0.134E-03    1.21       7.4  T
   7   -199.9530157 -0.119072E-06  0.638E-04    1.21      15.6  T
     SCC iter.                  ...        0 min,  0.331 sec
     gradient                   ...        0 min,  0.065 sec
 * total energy  :  -196.6924483 Eh     change       -0.3954829E-03 Eh
   gradient norm :     0.0151627 Eh/α   predicted    -0.5002989E-03 (  26.50%)
   displ. norm   :     0.5042487 α      lambda       -0.6683255E-03
   maximum displ.:     0.2278550 α      in ANC's #11, #10, #5, ...

........................................................................
.............................. CYCLE   62 ..............................
........................................................................
   1   -199.9600426 -0.199960E+03  0.131E-01    1.21       0.0  T
   2   -199.9600573 -0.147625E-04  0.724E-02    1.21       1.0  T
   3   -199.9599892  0.680988E-04  0.287E-02    1.20       1.0  T
   4   -199.9600674 -0.781643E-04  0.783E-03    1.21       1.3  T
   5   -199.9600670  0.352810E-06  0.455E-03    1.21       2.2  T
   6   -199.9600691 -0.208764E-05  0.124E-03    1.21       8.0  T
   7   -199.9600692 -0.544567E-07  0.742E-04    1.21      13.4  T
     SCC iter.                  ...        0 min,  0.327 sec
     gradient                   ...        0 min,  0.063 sec
 * total energy  :  -196.6926025 Eh     change       -0.1541997E-03 Eh
[...]
     8   6 C      3.034    -0.021    28.495     8.756
     9   6 C      2.912    -0.017    28.438     8.744
    10   6 C      2.988     0.019    27.577     8.614
    11   6 C      2.987     0.021    27.532     8.607
    12   6 C      2.915    -0.030    28.752     8.793
    13   6 C      2.919    -0.029    28.722     8.788
    14   6 C      2.916    -0.022    28.545     8.761
    15   6 C      2.916    -0.022    28.557     8.763
    16   6 C      2.918    -0.029    28.729     8.789
    17   6 C      2.868     0.225    23.276     7.908
    18   8 O      0.961    -0.355    20.762     6.111
    19   6 C      3.006    -0.030    28.735     8.793
    20   6 C      2.917    -0.013    28.349     8.731
    21   6 C      2.981     0.026    27.414     8.589
    22  16 S      2.386     0.083   137.715    19.751
    23   6 C      2.995     0.022    27.507     8.603
    24   6 C      3.125     0.006    27.701     8.619
    25   6 C      3.088    -0.034    28.740     8.788
    26   6 C      1.902     0.113    28.309     8.593
    27   7 N      0.911    -0.215    25.684     7.330
    28   6 C      2.929    -0.029    28.716     8.788
    29   6 C      2.935    -0.034    28.848     8.809
    30   6 C      2.981     0.023    27.487     8.600
    31  16 S      2.332     0.022   140.151    19.925
    32   6 C      2.986    -0.004    28.126     8.699
    33   6 C      3.135     0.007    27.654     8.608
    34   6 C      3.185    -0.012    27.853     8.612
    35   6 C      3.857    -0.030    21.077     6.529
    36   6 C      2.844     0.215    23.464     7.939
    37   8 O      0.857    -0.282    19.457     5.914
    38   6 C      3.325     0.464    17.742     6.695
    39   9 F      0.790    -0.199    11.220     3.957
    40   9 F      0.790    -0.178    11.014     3.920
    41   9 F      0.790    -0.197    11.206     3.954
    42   6 C      3.805    -0.061    21.662     6.626
    43   6 C      3.812    -0.055    21.551     6.608
    44   6 C      3.808    -0.063    21.711     6.633
    45   6 C      3.095     0.134    24.977     8.191
    46   8 O      1.727    -0.180    17.012     5.569
    47   6 C      3.055     0.135    25.010     8.201
    48   6 C      3.044    -0.004    28.076     8.691
    49   6 C      3.042    -0.011    28.247     8.717
    50   6 C      1.898     0.113    28.325     8.595
    51   7 N      0.911    -0.203    25.421     7.292
    52   6 C      1.897     0.118    28.210     8.578
    53   7 N      0.911    -0.211    25.605     7.318
    54   6 C      2.894    -0.024    28.602     8.769
    55   6 C      2.898    -0.019    28.493     8.752
    56   6 C      2.898    -0.003    28.088     8.690
    57   6 C      3.005    -0.026    28.634     8.778
    58   6 C      3.018     0.029    27.327     8.575
    59   6 C      2.947     0.008    27.841     8.654
    60   6 C      1.934     0.124    28.050     8.553
    61   7 N      0.911    -0.230    26.024     7.378
    62   6 C      1.933     0.119    28.151     8.568
    63   7 N      0.911    -0.228    25.990     7.373
    64   6 C      3.022     0.004    27.919     8.667
    65   6 C      3.036    -0.021    28.501     8.757
    66   6 C      2.860     0.229    23.196     7.894
    67   8 O      0.856    -0.371    21.102     6.159
    68   6 C      2.913    -0.017    28.442     8.745
    69   6 C      2.988     0.019    27.578     8.614
    70   6 C      2.987     0.021    27.526     8.606
    71   6 C      2.914    -0.030    28.748     8.792
    72   6 C      2.919    -0.029    28.723     8.789
    73   6 C      2.916    -0.022    28.544     8.761
    74   6 C      2.916    -0.022    28.559     8.763
    75   6 C      2.918    -0.029    28.731     8.790
    76   1 H      0.926     0.061     2.189     2.314
    77   1 H      0.926     0.058     2.218     2.329
    78   1 H      0.926     0.049     2.331     2.387
    79   1 H      0.926     0.046     2.375     2.410
    80   1 H      0.926     0.045     2.388     2.417
    81   1 H      0.926     0.045     2.379     2.412
    82   1 H      0.925     0.071     2.074     2.252
    83   1 H      0.926     0.063     2.163     2.300
    84   1 H      0.925     0.069     2.093     2.263
    85   1 H      0.925     0.068     2.106     2.269
    86   1 H      0.924     0.072     2.060     2.245
    87   1 H      0.925     0.052     2.301     2.372
    88   1 H      0.924     0.062     2.171     2.304
    89   1 H      0.924     0.043     2.415     2.430
    90   1 H      0.925     0.052     2.291     2.367
    91   1 H      0.925     0.062     2.170     2.304
    92   1 H      0.924     0.075     2.034     2.230
    93   1 H      0.926     0.094     1.840     2.121
    94   1 H      0.925     0.066     2.128     2.281
    95   1 H      0.925     0.068     2.102     2.267
    96   1 H      0.926     0.060     2.198     2.318
    97   1 H      0.926     0.058     2.223     2.331
    98   1 H      0.926     0.049     2.330     2.387
    99   1 H      0.926     0.046     2.374     2.409
   100   1 H      0.926     0.045     2.389     2.417
   101   1 H      0.926     0.045     2.383     2.414

 Mol. C6AA /au·bohr⁶  :     186672.502226
 Mol. C8AA /au·bohr⁸  :    5001864.437059
 Mol. α(0) /au        :        686.172732


Wiberg/Mayer (AO) data.
largest (>0.10) Wiberg bond orders for each atom
          total WBO             WBO to atom ...
     1  C   3.974        C    2 1.494    C   19 1.125    C    7 1.092
     2  C   3.933        C    1 1.494    C    5 1.096    C    3 1.094
     3  C   3.946        N    4 2.767    C    2 1.094
     4  N   2.974        C    3 2.767
     5  C   3.946        N    6 2.758    C    2 1.096
     6  N   2.969        C    5 2.758
     7  C   3.982        C   12 1.501    C    8 1.195    C    1 1.092
     8  C   3.980        C    9 1.518    C    7 1.195    C   17 1.037
     9  C   3.979        C    8 1.518    C   10 1.272    H   76 0.963
    10  C   3.979        C   16 1.290    C    9 1.272    C   11 1.238
    11  C   3.983        C   13 1.288    C   12 1.275    C   10 1.238
    12  C   3.971        C    7 1.501    C   11 1.275    H   77 0.958
    13  C   3.978        C   14 1.544    C   11 1.288    H   78 0.967    C   16 0.112
    14  C   3.979        C   13 1.544    C   15 1.328    H   79 0.970
    15  C   3.975        C   16 1.542    C   14 1.328    H   80 0.970
    16  C   3.981        C   15 1.542    C   10 1.290    H   81 0.967    C   13 0.112
    17  C   3.919        O   18 1.713    C   19 1.049    C    8 1.037
    18  O   2.121        C   17 1.713    S   22 0.134
    19  C   3.953        C   20 1.537    C    1 1.125    C   17 1.049
    20  C   3.951        C   19 1.537    C   21 1.263    H   82 0.940
    21  C   3.937        C   25 1.387    C   20 1.263    S   22 1.129
    22  S   2.786        C   23 1.196    C   21 1.129    O   18 0.134
    23  C   3.947        C   24 1.300    C   28 1.227    S   22 1.196
    24  C   3.950        C   25 1.357    C   23 1.300    C   26 1.104
    25  C   3.963        C   21 1.387    C   24 1.357    H   83 0.962
    26  C   3.949        N   27 2.797    C   24 1.104
    27  N   2.994        C   26 2.797
    28  C   3.959        C   29 1.615    C   23 1.227    H   84 0.949
    29  C   3.957        C   28 1.615    C   30 1.219    H   85 0.946
    30  C   3.937        C   34 1.393    C   29 1.219    S   31 1.139
    31  S   2.596        C   30 1.139    C   32 1.129
    32  C   3.919        C   33 1.409    C   45 1.177    S   31 1.129
    33  C   3.956        C   32 1.409    C   34 1.304    C   44 1.021
    34  C   3.937        C   30 1.393    C   33 1.304    C   35 0.955
    35  C   3.985        C   42 0.976    C   36 0.968    C   34 0.955    H   86 0.947
    36  C   3.919        O   37 1.901    C   35 0.968    C   38 0.872
    37  O   2.129        C   36 1.901
    38  C   3.825        F   40 0.973    F   39 0.951    F   41 0.949    C   36 0.872
    39  F   1.081        C   38 0.951
    40  F   1.101        C   38 0.973
    41  F   1.081        C   38 0.949
    42  C   3.987        C   43 1.010    H   87 0.977    C   35 0.976    H   88 0.973
    43  C   3.993        C   42 1.010    C   44 0.990    H   89 0.979    H   90 0.974
    44  C   3.992        C   33 1.021    C   43 0.990    H   91 0.968    H   92 0.947
    45  C   3.897        C   49 1.356    C   32 1.177    O   46 1.114
    46  O   2.435        C   45 1.114    C   47 1.092
    47  C   3.892        C   48 1.364    C   54 1.187    O   46 1.092
    48  C   3.952        C   47 1.364    C   49 1.219    C   52 1.120
    49  C   3.955        C   45 1.356    C   48 1.219    C   50 1.120
    50  C   3.952        N   51 2.787    C   49 1.120
    51  N   2.991        C   50 2.787
    52  C   3.952        N   53 2.786    C   48 1.120
    53  N   2.998        C   52 2.786
    54  C   3.944        C   55 1.634    C   47 1.187    H   93 0.951
    55  C   3.962        C   54 1.634    C   56 1.214    H   94 0.950
    56  C   3.954        C   57 1.587    C   55 1.214    H   95 0.947
    57  C   3.933        C   56 1.587    C   58 1.117    C   66 1.012
    58  C   3.977        C   59 1.499    C   57 1.117    C   64 1.095
    59  C   3.941        C   58 1.499    C   60 1.096    C   62 1.094
    60  C   3.947        N   61 2.771    C   59 1.096
    61  N   2.976        C   60 2.771
    62  C   3.947        N   63 2.770    C   59 1.094
    63  N   2.972        C   62 2.770
    64  C   3.983        C   71 1.498    C   65 1.195    C   58 1.095
    65  C   3.981        C   68 1.518    C   64 1.195    C   66 1.029
    66  C   3.925        O   67 1.766    C   65 1.029    C   57 1.012
    67  O   2.055        C   66 1.766
    68  C   3.981        C   65 1.518    C   69 1.272    H   96 0.963
    69  C   3.979        C   75 1.289    C   68 1.272    C   70 1.237
    70  C   3.983        C   72 1.287    C   71 1.277    C   69 1.237
    71  C   3.973        C   64 1.498    C   70 1.277    H   97 0.959
    72  C   3.979        C   73 1.545    C   70 1.287    H   98 0.967    C   75 0.112
    73  C   3.979        C   72 1.545    C   74 1.327    H   99 0.970
    74  C   3.975        C   75 1.543    C   73 1.327    H  100 0.970
    75  C   3.981        C   74 1.543    C   69 1.289    H  101 0.967    C   72 0.112
    76  H   0.995        C    9 0.963
    77  H   0.996        C   12 0.958
    78  H   0.997        C   13 0.967
    79  H   0.997        C   14 0.970
    80  H   0.997        C   15 0.970
    81  H   0.997        C   16 0.967
    82  H   0.994        C   20 0.940
    83  H   0.996        C   25 0.962
    84  H   0.994        C   28 0.949
    85  H   0.995        C   29 0.946
    86  H   0.994        C   35 0.947
    87  H   0.997        C   42 0.977
    88  H   0.995        C   42 0.973
    89  H   0.998        C   43 0.979
    90  H   0.996        C   43 0.974
    91  H   0.996        C   44 0.968
    92  H   0.992        C   44 0.947
    93  H   0.990        C   54 0.951
    94  H   0.994        C   55 0.950
    95  H   0.993        C   56 0.947
    96  H   0.995        C   68 0.963
    97  H   0.996        C   71 0.959
    98  H   0.997        C   72 0.967
    99  H   0.997        C   73 0.970
   100  H   0.997        C   74 0.970
   101  H   0.997        C   75 0.967

molecular dipole:
                 x           y           z       tot (Debye)
 q only:       -1.894       1.601      -4.521
   full:       -1.750       2.077      -5.723      16.101
molecular quadrupole (traceless):
                xx          xy          yy          xz          yz          zz
 q only:      114.960     -68.450     -45.444      55.732    -146.545     -69.516
  q+dip:      127.819     -69.794     -39.190      76.885    -178.674     -88.629
   full:      131.446     -60.785     -42.567      81.207    -176.304     -88.879

           -------------------------------------------------
          |                Geometry Summary                 |
           -------------------------------------------------

      molecular mass/u    :     1018.0141000
   center of mass at/Å    :       -5.3481126       9.7419822       1.1832095
  moments of inertia/u·Å² :        0.9134219E+04   0.7005502E+05   0.7391272E+05
rotational constants/cm⁻¹ :        0.1845547E-02   0.2406342E-03   0.2280748E-03

 * 91 selected distances

     #   Z        #   Z                                     value/Å
     1   6 C      2   6 C                                 1.3700204
     3   6 C      4   7 N                                 1.1478179
     5   6 C      6   7 N                                 1.1485900
     7   6 C      8   6 C                                 1.4249147
     8   6 C      9   6 C                                 1.3653277
     9   6 C     10   6 C                                 1.4126764
    10   6 C     11   6 C                                 1.4249926
     7   6 C     12   6 C                                 1.3697394
    11   6 C     12   6 C                                 1.4140296
    11   6 C     13   6 C                                 1.4095508
    13   6 C     14   6 C                                 1.3685771
    14   6 C     15   6 C                                 1.4027833
    10   6 C     16   6 C                                 1.4086340
    15   6 C     16   6 C                                 1.3687401
    17   6 C     18   8 O                                 1.2183562
    19   6 C     20   6 C                                 1.3662296
    20   6 C     21   6 C                                 1.4098048
    21   6 C     22  16 S                                 1.7454724 (max)
    22  16 S     23   6 C                                 1.7314405
    23   6 C     24   6 C                                 1.4030517
    21   6 C     25   6 C                                 1.3913199
    24   6 C     25   6 C                                 1.3921339
    26   6 C     27   7 N                                 1.1462225
    23   6 C     28   6 C                                 1.4162161
    28   6 C     29   6 C                                 1.3557102
    29   6 C     30   6 C                                 1.4173472
    30   6 C     31  16 S                                 1.7407735
    31  16 S     32   6 C                                 1.7415406
    32   6 C     33   6 C                                 1.3845324
    30   6 C     34   6 C                                 1.3889919
    33   6 C     34   6 C                                 1.4057603
    36   6 C     37   8 O                                 1.1974536
    38   6 C     39   9 F                                 1.3406716
    38   6 C     40   9 F                                 1.3310717
    38   6 C     41   9 F                                 1.3428392
    42   6 C     43   6 C                                 1.5296355
    33   6 C     44   6 C                                 1.4896371
    43   6 C     44   6 C                                 1.5322497
    32   6 C     45   6 C                                 1.4215279
    45   6 C     46   8 O                                 1.3465693
    46   8 O     47   6 C                                 1.3540959
    47   6 C     48   6 C                                 1.3931442
    45   6 C     49   6 C                                 1.3944340
    48   6 C     49   6 C                                 1.4235928
    50   6 C     51   7 N                                 1.1464763
    52   6 C     53   7 N                                 1.1465206
    47   6 C     54   6 C                                 1.4202079
    54   6 C     55   6 C                                 1.3539909
    55   6 C     56   6 C                                 1.4230730
    56   6 C     57   6 C                                 1.3619418
    58   6 C     59   6 C                                 1.3683586
    60   6 C     61   7 N                                 1.1476089
    62   6 C     63   7 N                                 1.1477102
    64   6 C     65   6 C                                 1.4245055
    66   6 C     67   8 O                                 1.2120469
    65   6 C     68   6 C                                 1.3655617
    68   6 C     69   6 C                                 1.4127185
    69   6 C     70   6 C                                 1.4253662
    64   6 C     71   6 C                                 1.3696753
    70   6 C     71   6 C                                 1.4136142
    70   6 C     72   6 C                                 1.4097019
    72   6 C     73   6 C                                 1.3683907
    73   6 C     74   6 C                                 1.4029461
    69   6 C     75   6 C                                 1.4088253
    74   6 C     75   6 C                                 1.3685578
     9   6 C     76   1 H                                 1.0799133
    12   6 C     77   1 H                                 1.0782297
    13   6 C     78   1 H                                 1.0800644
    14   6 C     79   1 H                                 1.0796001
    15   6 C     80   1 H                                 1.0796786
    16   6 C     81   1 H                                 1.0801759
    20   6 C     82   1 H                                 1.0835251
    25   6 C     83   1 H                                 1.0762819 (min)
    28   6 C     84   1 H                                 1.0837849
    29   6 C     85   1 H                                 1.0817540
    35   6 C     86   1 H                                 1.0913827
    42   6 C     87   1 H                                 1.0897986
    42   6 C     88   1 H                                 1.0914871
    43   6 C     89   1 H                                 1.0924715
    43   6 C     90   1 H                                 1.0896274
    44   6 C     91   1 H                                 1.0880805
    44   6 C     92   1 H                                 1.0927637
    54   6 C     93   1 H                                 1.0791103
    55   6 C     94   1 H                                 1.0825273
    56   6 C     95   1 H                                 1.0844439
    68   6 C     96   1 H                                 1.0799684
    71   6 C     97   1 H                                 1.0786544
    72   6 C     98   1 H                                 1.0800371
    73   6 C     99   1 H                                 1.0795924
    74   6 C    100   1 H                                 1.0796708
    75   6 C    101   1 H                                 1.0802079

 * 6 distinct bonds (by element types)

   Z      Z             #   av. dist./Å        max./Å        min./Å
   1 H    6 C          26     1.0831858     1.0927637     1.0762819
   6 C    6 C          46     1.4033205     1.5322497     1.3539909
   6 C    7 N           7     1.1472781     1.1485900     1.1462225
   6 C    8 O           5     1.2657044     1.3540959     1.1974536
   6 C    9 F           3     1.3381941     1.3428392     1.3310717
   6 C   16 S           4     1.7398068     1.7454724     1.7314405


optimized geometry written to: xtbopt.xyz


           -------------------------------------------------
          | TOTAL ENERGY             -196.698952147756 Eh   |
          | GRADIENT NORM               0.000887453791 Eh/α |
          | HOMO-LUMO GAP               1.149869520052 eV   |
           -------------------------------------------------

------------------------------------------------------------------------
 * finished run on 2021/09/15 at 08:03:16.753     
------------------------------------------------------------------------
 total:
 * wall-time:     0 d,  0 h,  2 min, 30.665 sec
 *  cpu-time:     0 d,  0 h, 20 min, 13.114 sec
 * ratio c/w:     8.052 speedup
 SCF:
 * wall-time:     0 d,  0 h,  0 min,  0.607 sec
 *  cpu-time:     0 d,  0 h,  0 min,  4.837 sec
 * ratio c/w:     7.973 speedup
 ANC optimizer:
 * wall-time:     0 d,  0 h,  2 min, 29.965 sec
 *  cpu-time:     0 d,  0 h, 20 min,  7.626 sec
 * ratio c/w:     8.053 speedup

