      -----------------------------------------------------------      
     |                   =====================                   |     
     |                           x T B                           |     
     |                   =====================                   |     
     |                         S. Grimme                         |     
     |          Mulliken Center for Theoretical Chemistry        |     
     |                    University of Bonn                     |     
     |                Version 6.2 RC2 (SAW190805)                |     
      -----------------------------------------------------------      

   This program is distributed in the hope that it will be useful,
   but WITHOUT ANY WARRANTY; without even the implied warranty of
   MERCHANTABILITY or FITNESS FOR A PARTICULAR PURPOSE.
   
   FOR NON-COMMERCIAL, ACADEMIA USE ONLY.
   
   Cite this work as:
   * S. Grimme, C. Bannwarth, P. Shushkov, J. Chem. Theory Comput., 2017,
     13, 1989-2009. DOI: 10.1021/acs.jctc.7b00118
   * C. Bannwarth, S. Ehlert and S. Grimme., J. Chem. Theory Comput., 2019,
     15, 1652-1671. DOI: 10.1021/acs.jctc.8b01176
   * P. Pracht, E. Caldeweyher, S. Ehlert, S. Grimme, ChemRxiv, 2019, preprint.
     DOI: 10.26434/chemrxiv.8326202.v1
   
   for DFT-D4:
   * E. Caldeweyher, C. Bannwarth and S. Grimme, J. Chem. Phys., 2017,
     147, 034112. DOI: 10.1063/1.4993215
   * E. Caldeweyher, S. Ehlert, A. Hansen, H. Neugebauer, S. Spicher,
     C. Bannwarth and S. Grimme, J. Chem. Phys., 2019, 150, 154122.
     DOI: 10.1063/1.5090222
   
   for sTDA-xTB:
   * S. Grimme and C. Bannwarth, J. Chem. Phys., 2016, 145, 054103.
     DOI: 10.1063/1.4959605
   
   in the mass-spec context:
   * V. Asgeirsson, C. Bauer and S. Grimme, Chem. Sci., 2017, 8, 4879.
     DOI: 10.1039/c7sc00601b
   
   for metadynamics refer to:
   * S. Grimme, J. Chem. Theory Comput., 2019, 155, 2847-2862
     DOI: 10.1021/acs.jctc.9b00143
   
   with help from (in alphabetical order)
   C. Bannwarth, F. Bohle, G. Brandenburg, E. Caldeweyher, M. Checinski,
   S. Dohm, S. Ehlert, S. Ehrlich, F. März, H. Neugebauer, J. Pisarek,
   P. Pracht, P. Shushkov, and S. Spicher.
   
 * started run on 2021/09/15 at 10:16:28.148     

           -------------------------------------------------
          |                Calculation Setup                |
           -------------------------------------------------

          program call               : /ihome/ghutchison/geoffh/xtb/xtb /ihome/ghutchison/blp62/GA/running_GA/v5/generations/71/279_34_453_110_279_13051.xyz -opt
          hostname                   : smp-n57
          coordinate file            : /ihome/ghutchison/blp62/GA/running_GA/v5/generations/71/279_34_453_110_279_13051.xyz
          omp threads                :                    12
          number of atoms            :                   108
          number of electrons        :                   376
          charge                     :                     0
          spin                       :                   0.0
          first test random number   :      0.69059693426859


########################################################################
# WARNING! Please study the warnings concerning your input carefully
#  - XTBPATH is not set, using XTBHOME instead
#  - the use of '-opt' is discouraged, please use '--opt' next time
########################################################################

           ------------------------------------------------- 
          |                 G F N 2 - x T B                 |
          | Geometry, Frequencies, Noncovalent interactions |
          |            JCTC 2019 parametrisation            |
           ------------------------------------------------- 
             KAB for C  - Si     :                1.0500
             KAB for H  - Pd     :                0.9500
             k(s)              :                1.8500
             k(p)              :                2.2300
             k(d)              :                2.2300
             k(f)              :                2.0000
             kEN (H0ij)        :               -2.0000
             D4 a1             :                0.5200
             D4 a2             :                5.0000
             D4 s6             :                1.0000
             D4 s8             :                2.7000
             D4 s9             :                5.0000
             alphaj            :                2.0000

  Z AO/shell   Hii/eV     exponent
  1     Wed Apr 25 08:07:45 CEST 2018   EN: 2.200 GM2: 0.406  GM3: 0.0800  RAES: 1.40
     1s    -10.707211    1.230000
  6     Wed Apr 25 08:07:45 CEST 2018   EN: 2.550 GM2: 0.538  GM3: 0.1500  RAES: 3.00
     2s    -13.970922    2.096432
     2p    -10.063292    1.800000
  7     Wed Apr 25 08:07:45 CEST 2018   EN: 3.040 GM2: 0.461  GM3:-0.0640  RAES: 1.90
     2s    -16.686243    2.339881
     2p    -12.523956    2.014332
  8     Wed Apr 25 08:07:45 CEST 2018   EN: 3.440 GM2: 0.452  GM3:-0.0517  RAES: 1.80
     2s    -20.229985    2.439742
     2p    -15.503117    2.137023
 16     Tue Apr 24 11:44:34 CEST 2018   EN: 2.580 GM2: 0.340  GM3:-0.0502  RAES: 3.10
     3s    -20.029654    1.981333
     3p    -11.377694    2.025643
     3d     -0.420282    1.702555

           ------------------------------------------------- 
          |        Self-Consistent Charge Iterations        |
           ------------------------------------------------- 

          ...................................................
          :                      SETUP                      :
          :.................................................:
          :  # basis functions                 363          :
          :  # atomic orbitals                 361          :
          :  # shells                          191          :
          :  # electrons                       376          :
          :  max. iterations                   250          :
          :  Hamiltonian                  GFN2-xTB          :
          :  restarted?                      false          :
          :  GBSA solvation                  false          :
          :  PC potential                    false          :
          :  electronic temp.          300.0000000     K    :
          :  accuracy                    1.0000000          :
          :  -> integral cutoff          0.2500000E+02      :
          :  -> integral neglect         0.1000000E-07      :
          :  -> SCF convergence          0.1000000E-05 Eh   :
          :  -> wf. convergence          0.1000000E-03 e    :
          :  Broyden damping             0.4000000          :
          ...................................................

 iter      E             dE          RMSdq      gap      omega  full diag
   1   -210.2501966 -0.210250E+03  0.578E+00    0.41       0.0  T
   2   -210.0845587  0.165638E+00  0.369E+00    0.36       1.0  T
   3   -199.0382295  0.110463E+02  0.452E+00    0.16       1.0  T
   4   -176.5106758  0.225276E+02  0.618E+00    0.06       1.0  T
   5   -206.1396953 -0.296290E+02  0.308E+00    0.07       1.0  T
   6   -210.6920322 -0.455234E+01  0.141E+00    0.33       1.0  T
   7   -210.4942185  0.197814E+00  0.981E-01    0.16       1.0  T
   8   -210.7767441 -0.282526E+00  0.749E-01    0.75       1.0  T
   9   -210.7910232 -0.142791E-01  0.615E-01    0.68       1.0  T
  10   -210.7927875 -0.176427E-02  0.494E-01    0.68       1.0  T
  11   -210.8018401 -0.905266E-02  0.270E-01    0.54       1.0  T
  12   -210.8051048 -0.326464E-02  0.171E-01    0.44       1.0  T
  13   -210.8068883 -0.178351E-02  0.127E-01    0.38       1.0  T
  14   -210.8089969 -0.210863E-02  0.772E-02    0.29       1.0  T
  15   -210.8105726 -0.157575E-02  0.238E-02    0.21       1.0  T
  16   -210.8104983  0.743308E-04  0.205E-02    0.22       1.0  T
  17   -210.8105924 -0.940721E-04  0.975E-03    0.21       1.0  T
  18   -210.8106027 -0.103225E-04  0.540E-03    0.21       1.8  T
  19   -210.8106046 -0.192220E-05  0.288E-03    0.21       3.3  T
  20   -210.8106061 -0.145488E-05  0.281E-03    0.21       3.4  T
  21   -210.8106065 -0.388484E-06  0.164E-03    0.21       5.9  T
  22   -210.8106070 -0.541124E-06  0.144E-03    0.21       6.7  T
  23   -210.8106073 -0.265721E-06  0.513E-04    0.21      18.8  T
  24   -210.8106073 -0.475718E-07  0.242E-04    0.21      39.7  T

   *** convergence criteria satisfied after 24 iterations ***

         #    Occupation            Energy/Eh            Energy/eV
      -------------------------------------------------------------
         1        2.0000           -0.7785472             -21.1853
       ...           ...                  ...                  ...
       182        2.0000           -0.4228179             -11.5055
       183        2.0000           -0.4198603             -11.4250
       184        2.0000           -0.4172412             -11.3537
       185        2.0000           -0.4091743             -11.1342
       186        2.0000           -0.4086885             -11.1210
       187        2.0000           -0.4033983             -10.9770
       188        1.9633           -0.3854049             -10.4874 (HOMO)
       189        0.0367           -0.3778429             -10.2816 (LUMO)
       190                         -0.3487992              -9.4913
       191                         -0.3409284              -9.2771
       192                         -0.3329956              -9.0613
       193                         -0.3312452              -9.0136
       ...                                ...                  ...
       361                          1.0810882              29.4179
      -------------------------------------------------------------
                  HL-Gap            0.0075620 Eh            0.2058 eV
             Fermi-level           -0.3816239 Eh          -10.3845 eV

 SCC (total)                   0 d,  0 h,  0 min,  1.083 sec
 SCC setup                      ...        0 min,  0.003 sec (  0.253%)
 Dispersion                     ...        0 min,  0.006 sec (  0.562%)
 integral evaluation            ...        0 min,  0.033 sec (  3.038%)
 zeroth order Hamiltonian       ...        0 min,  0.001 sec (  0.131%)
 iterations                     ...        0 min,  0.999 sec ( 92.206%)
 molecular gradient             ...        0 min,  0.039 sec (  3.630%)
 printout                       ...        0 min,  0.002 sec (  0.170%)

         :::::::::::::::::::::::::::::::::::::::::::::::::::::
         ::                     SUMMARY                     ::
         :::::::::::::::::::::::::::::::::::::::::::::::::::::
         :: total energy            -207.381750732486 Eh    ::
         :: gradient norm              0.217503864599 Eh/a0 ::
         :: HOMO-LUMO gap              0.205772180555 eV    ::
         ::.................................................::
         :: SCC energy              -210.810607327576 Eh    ::
         :: -> isotropic ES            0.203829873141 Eh    ::
         :: -> anisotropic ES          0.017867233122 Eh    ::
         :: -> anisotropic XC          0.165774464959 Eh    ::
         :: -> dispersion             -0.171377779392 Eh    ::
         :: repulsion energy           3.427384170454 Eh    ::
         :: add. restraining           0.000000000000 Eh    ::
         :::::::::::::::::::::::::::::::::::::::::::::::::::::

      ----------------------------------------------------------- 
     |                   =====================                   |
     |                        A N C O P T                        |
     |                   =====================                   |
     |               Approximate Normal Coordinate               |
     |                Rational Function Optimizer                |
      ----------------------------------------------------------- 

          ...................................................
          :                      SETUP                      :
          :.................................................:
          :   optimization level            normal          :
          :   max. optcycles                   324          :
          :   ANC micro-cycles                  20          :
          :   degrees of freedom               318          :
          :.................................................:
          :   RF solver                   davidson          :
          :   input Hessian                  false          :
          :   write xtbopt.log                true          :
          :   linear?                        false          :
          :   energy convergence         0.5000000E-05 Eh   :
          :   grad. convergence          0.1000000E-02 Eh/α :
          :   maximium RF displ.         2.0000000          :
          :   Hlow (freq-cutoff)         0.5000000E-02      :
          :   Hmax (freq-cutoff)         5.0000000          :
          :   S6 in model hess.         20.0000000          :
          ...................................................

generating ANC from model Hessian ...
Using Lindh-Hessian (1995)
 Shifting diagonal of input Hessian by   5.024284244722043E-003
 Lowest  eigenvalues of input Hessian
    0.005000    0.005003   -0.000000   -0.000000   -0.000000    0.000000
    0.000000    0.000000    0.005054    0.005062    0.005101    0.005131
    0.005197    0.005240    0.005361    0.005411    0.005451    0.005660
 Highest eigenvalues
    2.504864    2.505409    2.506483    2.514502    2.576016    2.583290
 

........................................................................
.............................. CYCLE    1 ..............................
........................................................................
   1   -210.8106073 -0.210811E+03  0.101E-04    0.21       0.0  T
   2   -210.8106073  0.109297E-07  0.229E-04    0.21      42.1  T
   3   -210.8106073 -0.126307E-07  0.838E-05    0.21     114.9  T
     SCC iter.                  ...        0 min,  0.147 sec
     gradient                   ...        0 min,  0.037 sec
 * total energy  :  -207.3817508 Eh     change       -0.6030177E-07 Eh
   gradient norm :     0.2175040 Eh/α   predicted     0.0000000E+00 (-100.00%)
   displ. norm   :     0.4106291 α      lambda       -0.5037318E-01
   maximum displ.:     0.0714878 α      in ANC's #158, #51, #56, ...

........................................................................
.............................. CYCLE    2 ..............................
........................................................................
   1   -210.9428115 -0.210943E+03  0.294E-01    0.15       0.0  T
   2   -210.9329540  0.985743E-02  0.302E-01    0.84       1.0  T
   3   -210.9522284 -0.192743E-01  0.138E-01    0.31       1.0  T
   4   -210.9450192  0.720921E-02  0.185E-01    0.16       1.0  T
   5   -210.9526136 -0.759447E-02  0.832E-02    0.29       1.0  T
   6   -210.9540773 -0.146363E-02  0.384E-02    0.24       1.0  T
   7   -210.9543267 -0.249415E-03  0.139E-02    0.22       1.0  T
   8   -210.9543223  0.436018E-05  0.989E-03    0.22       1.0  T
   9   -210.9543421 -0.197639E-04  0.373E-03    0.22       2.6  T
  10   -210.9543434 -0.131735E-05  0.124E-03    0.22       7.7  T
  11   -210.9543435 -0.862708E-07  0.689E-04    0.22      14.0  T
     SCC iter.                  ...        0 min,  0.671 sec
     gradient                   ...        0 min,  0.038 sec
 * total energy  :  -207.4161981 Eh     change       -0.3444726E-01 Eh
   gradient norm :     0.0897167 Eh/α   predicted    -0.2943353E-01 ( -14.55%)
   displ. norm   :     0.4750298 α      lambda       -0.1870899E-01
   maximum displ.:     0.1201376 α      in ANC's #51, #34, #37, ...

........................................................................
.............................. CYCLE    3 ..............................
........................................................................
   1   -210.9806195 -0.210981E+03  0.311E-01    0.17       0.0  T
   2   -210.9663616  0.142579E-01  0.345E-01    0.93       1.0  T
   3   -210.9917134 -0.253519E-01  0.160E-01    0.37       1.0  T
   4   -210.9926237 -0.910247E-03  0.128E-01    0.20       1.0  T
   5   -210.9954061 -0.278236E-02  0.465E-02    0.23       1.0  T
   6   -210.9952500  0.156060E-03  0.393E-02    0.26       1.0  T
   7   -210.9955795 -0.329517E-03  0.147E-02    0.24       1.0  T
   8   -210.9956131 -0.335989E-04  0.559E-03    0.23       1.7  T
   9   -210.9956159 -0.279458E-05  0.422E-03    0.24       2.3  T
  10   -210.9956200 -0.405747E-05  0.910E-04    0.23      10.6  T
     SCC iter.                  ...        0 min,  0.449 sec
     gradient                   ...        0 min,  0.035 sec
 * total energy  :  -207.4278669 Eh     change       -0.1166889E-01 Eh
   gradient norm :     0.0300110 Eh/α   predicted    -0.1146538E-01 (  -1.74%)
   displ. norm   :     0.5776670 α      lambda       -0.7890300E-02
   maximum displ.:     0.1751368 α      in ANC's #37, #46, #41, ...

........................................................................
.............................. CYCLE    4 ..............................
........................................................................
   1   -210.9896385 -0.210990E+03  0.295E-01    0.21       0.0  T
   2   -210.9761708  0.134676E-01  0.295E-01    0.69       1.0  T
   3   -210.9930519 -0.168811E-01  0.157E-01    0.23       1.0  T
   4   -210.9956871 -0.263520E-02  0.673E-02    0.26       1.0  T
   5   -210.9958809 -0.193744E-03  0.381E-02    0.25       1.0  T
   6   -210.9961238 -0.242976E-03  0.191E-02    0.26       1.0  T
   7   -210.9961571 -0.332485E-04  0.609E-03    0.26       1.6  T
   8   -210.9961559  0.117432E-05  0.401E-03    0.25       2.4  T
   9   -210.9961568 -0.837834E-06  0.331E-03    0.26       2.9  T
     SCC iter.                  ...        0 min,  0.412 sec
     gradient                   ...        0 min,  0.043 sec
 * total energy  :  -207.4315765 Eh     change       -0.3709532E-02 Eh
   gradient norm :     0.0370876 Eh/α   predicted    -0.5261646E-02 (  41.84%)
   displ. norm   :     0.6258776 α      lambda       -0.8402875E-02
   maximum displ.:     0.1990895 α      in ANC's #19, #26, #10, ...

........................................................................
.............................. CYCLE    5 ..............................
........................................................................
   1   -210.9938270 -0.210994E+03  0.327E-01    0.25       0.0  T
   2   -210.9816226  0.122044E-01  0.286E-01    0.59       1.0  T
   3   -210.9457549  0.358676E-01  0.405E-01    0.21       1.0  T
   4   -210.9872401 -0.414851E-01  0.193E-01    0.56       1.0  T
   5   -210.9912891 -0.404901E-02  0.148E-01    0.46       1.0  T
   6   -210.9936089 -0.231984E-02  0.118E-01    0.41       1.0  T
   7   -210.9954925 -0.188358E-02  0.900E-02    0.37       1.0  T
   8   -210.9974036 -0.191112E-02  0.413E-02    0.32       1.0  T
   9   -210.9978560 -0.452428E-03  0.143E-02    0.30       1.0  T
  10   -210.9978997 -0.436596E-04  0.781E-03    0.29       1.2  T
  11   -210.9979086 -0.889452E-05  0.436E-03    0.29       2.2  T
  12   -210.9979127 -0.408520E-05  0.231E-03    0.29       4.2  T
  13   -210.9979139 -0.122872E-05  0.864E-04    0.29      11.1  T
     SCC iter.                  ...        0 min,  0.585 sec
     gradient                   ...        0 min,  0.035 sec
 * total energy  :  -207.4359331 Eh     change       -0.4356596E-02 Eh
   gradient norm :     0.0327596 Eh/α   predicted    -0.5847237E-02 (  34.22%)
   displ. norm   :     0.5490212 α      lambda       -0.6825195E-02
   maximum displ.:     0.1810047 α      in ANC's #19, #34, #21, ...

........................................................................
.............................. CYCLE    6 ..............................
........................................................................
   1   -210.9925341 -0.210993E+03  0.298E-01    0.30       0.0  T
   2   -210.9872993  0.523479E-02  0.221E-01    0.45       1.0  T
   3   -210.8794077  0.107892E+00  0.576E-01    0.25       1.0  T
   4   -210.9873892 -0.107981E+00  0.162E-01    0.49       1.0  T
   5   -210.9900468 -0.265762E-02  0.114E-01    0.44       1.0  T
   6   -210.9915197 -0.147293E-02  0.864E-02    0.41       1.0  T
   7   -210.9926592 -0.113942E-02  0.632E-02    0.38       1.0  T
   8   -210.9932750 -0.615841E-03  0.444E-02    0.36       1.0  T
   9   -210.9937089 -0.433873E-03  0.214E-02    0.34       1.0  T
  10   -210.9938346 -0.125718E-03  0.779E-03    0.33       1.2  T
  11   -210.9938471 -0.124688E-04  0.194E-03    0.32       5.0  T
  12   -210.9938463  0.768765E-06  0.225E-03    0.32       4.3  T
  13   -210.9938475 -0.122657E-05  0.782E-04    0.32      12.3  T
     SCC iter.                  ...        0 min,  0.752 sec
     gradient                   ...        0 min,  0.039 sec
 * total energy  :  -207.4379056 Eh     change       -0.1972531E-02 Eh
   gradient norm :     0.0476818 Eh/α   predicted    -0.4441240E-02 ( 125.15%)
   displ. norm   :     0.4212165 α      lambda       -0.5942940E-02
   maximum displ.:     0.1701259 α      in ANC's #19, #16, #12, ...

........................................................................
.............................. CYCLE    7 ..............................
........................................................................
   1   -210.9963299 -0.210996E+03  0.170E-01    0.33       0.0  T
   2   -210.9941632  0.216669E-02  0.129E-01    0.41       1.0  T
   3   -210.9697775  0.243857E-01  0.288E-01    0.27       1.0  T
   4   -210.9951161 -0.253386E-01  0.817E-02    0.41       1.0  T
   5   -210.9961201 -0.100400E-02  0.455E-02    0.38       1.0  T
   6   -210.9965173 -0.397213E-03  0.274E-02    0.37       1.0  T
   7   -210.9966958 -0.178525E-03  0.137E-02    0.35       1.0  T
   8   -210.9967363 -0.404518E-04  0.488E-03    0.35       2.0  T
   9   -210.9967389 -0.259177E-05  0.244E-03    0.35       3.9  T
  10   -210.9967399 -0.100227E-05  0.110E-03    0.35       8.7  T
     SCC iter.                  ...        0 min,  0.424 sec
     gradient                   ...        0 min,  0.034 sec
 * total energy  :  -207.4423057 Eh     change       -0.4400115E-02 Eh
   gradient norm :     0.0208317 Eh/α   predicted    -0.3498678E-02 ( -20.49%)
   displ. norm   :     0.6721194 α      lambda       -0.4613249E-02
   maximum displ.:     0.2821471 α      in ANC's #19, #12, #16, ...

........................................................................
.............................. CYCLE    8 ..............................
........................................................................
   1   -210.9981272 -0.210998E+03  0.233E-01    0.36       0.0  T
   2   -210.9937898  0.433731E-02  0.181E-01    0.48       1.0  T
   3   -210.9676488  0.261410E-01  0.322E-01    0.30       1.0  T
   4   -210.9961619 -0.285131E-01  0.108E-01    0.48       1.0  T
   5   -210.9980347 -0.187280E-02  0.596E-02    0.43       1.0  T
   6   -210.9986555 -0.620834E-03  0.375E-02    0.41       1.0  T
   7   -210.9989387 -0.283132E-03  0.218E-02    0.40       1.0  T
   8   -210.9990279 -0.892297E-04  0.968E-03    0.39       1.0  T
   9   -210.9990416 -0.137181E-04  0.448E-03    0.38       2.1  T
  10   -210.9990457 -0.412358E-05  0.184E-03    0.38       5.2  T
  11   -210.9990461 -0.372488E-06  0.662E-04    0.38      14.5  T
     SCC iter.                  ...        0 min,  0.735 sec
     gradient                   ...        0 min,  0.222 sec
 * total energy  :  -207.4453977 Eh     change       -0.3091955E-02 Eh
   gradient norm :     0.0286953 Eh/α   predicted    -0.3348634E-02 (   8.30%)
   displ. norm   :     0.7377570 α      lambda       -0.5187566E-02
   maximum displ.:     0.2925267 α      in ANC's #19, #16, #12, ...

........................................................................
.............................. CYCLE    9 ..............................
........................................................................
   1   -211.0011440 -0.211001E+03  0.287E-01    0.39       0.0  T
   2   -210.9969616  0.418232E-02  0.204E-01    0.49       1.0  T
   3   -210.9534597  0.435019E-01  0.401E-01    0.34       1.0  T
   4   -210.9988800 -0.454203E-01  0.120E-01    0.51       1.0  T
   5   -211.0011086 -0.222851E-02  0.605E-02    0.46       1.0  T
   6   -211.0016659 -0.557341E-03  0.405E-02    0.44       1.0  T
   7   -211.0019427 -0.276794E-03  0.260E-02    0.43       1.0  T
   8   -211.0020487 -0.106033E-03  0.137E-02    0.42       1.0  T
   9   -211.0020781 -0.293562E-04  0.578E-03    0.42       1.7  T
  10   -211.0020851 -0.700704E-05  0.192E-03    0.41       5.0  T
  11   -211.0020854 -0.301078E-06  0.753E-04    0.41      12.8  T
  12   -211.0020854 -0.387461E-07  0.587E-04    0.41      16.4  T
     SCC iter.                  ...        0 min,  0.778 sec
     gradient                   ...        0 min,  0.057 sec
 * total energy  :  -207.4477451 Eh     change       -0.2347440E-02 Eh
   gradient norm :     0.0364922 Eh/α   predicted    -0.4005541E-02 (  70.63%)
   displ. norm   :     0.5523535 α      lambda       -0.4476657E-02
   maximum displ.:     0.2113269 α      in ANC's #19, #12, #16, ...

........................................................................
.............................. CYCLE   10 ..............................
........................................................................
   1   -211.0015517 -0.211002E+03  0.220E-01    0.41       0.0  T
   2   -210.9986078  0.294396E-02  0.163E-01    0.48       1.0  T
   3   -210.9801590  0.184488E-01  0.281E-01    0.37       1.0  T
   4   -211.0007098 -0.205509E-01  0.798E-02    0.48       1.0  T
   5   -211.0019560 -0.124612E-02  0.311E-02    0.44       1.0  T
   6   -211.0021317 -0.175704E-03  0.173E-02    0.44       1.0  T
   7   -211.0021903 -0.586885E-04  0.850E-03    0.43       1.1  T
   8   -211.0021947 -0.436072E-05  0.401E-03    0.43       2.4  T
   9   -211.0021965 -0.182693E-05  0.150E-03    0.43       6.4  T
     SCC iter.                  ...        0 min,  0.422 sec
     gradient                   ...        0 min,  0.034 sec
 * total energy  :  -207.4501095 Eh     change       -0.2364396E-02 Eh
   gradient norm :     0.0418263 Eh/α   predicted    -0.2921233E-02 (  23.55%)
   displ. norm   :     0.5050763 α      lambda       -0.4351170E-02
   maximum displ.:     0.1998839 α      in ANC's #19, #12, #16, ...

........................................................................
.............................. CYCLE   11 ..............................
........................................................................
   1   -211.0193663 -0.211019E+03  0.193E-01    0.43       0.0  T
   2   -211.0184742  0.892101E-03  0.125E-01    0.46       1.0  T
   3   -211.0001701  0.183040E-01  0.262E-01    0.38       1.0  T
   4   -211.0189128 -0.187427E-01  0.564E-02    0.46       1.0  T
   5   -211.0195731 -0.660249E-03  0.152E-02    0.44       1.0  T
   6   -211.0196040 -0.309193E-04  0.869E-03    0.44       1.1  T
   7   -211.0196149 -0.109228E-04  0.415E-03    0.43       2.3  T
   8   -211.0196153 -0.341705E-06  0.301E-03    0.43       3.2  T
   9   -211.0196162 -0.890575E-06  0.899E-04    0.43      10.7  T
     SCC iter.                  ...        0 min,  0.383 sec
     gradient                   ...        0 min,  0.035 sec
 * total energy  :  -207.4523250 Eh     change       -0.2215480E-02 Eh
   gradient norm :     0.0329395 Eh/α   predicted    -0.2730585E-02 (  23.25%)
   displ. norm   :     0.5809097 α      lambda       -0.2924817E-02
   maximum displ.:     0.2241454 α      in ANC's #19, #12, #16, ...

........................................................................
.............................. CYCLE   12 ..............................
........................................................................
   1   -211.0089781 -0.211009E+03  0.179E-01    0.43       0.0  T
   2   -211.0076722  0.130590E-02  0.124E-01    0.46       1.0  T
   3   -210.9949801  0.126921E-01  0.232E-01    0.40       1.0  T
   4   -211.0086781 -0.136980E-01  0.495E-02    0.47       1.0  T
   5   -211.0092234 -0.545329E-03  0.139E-02    0.44       1.0  T
   6   -211.0092489 -0.254607E-04  0.860E-03    0.44       1.1  T
   7   -211.0092585 -0.957378E-05  0.393E-03    0.44       2.5  T
   8   -211.0092587 -0.290617E-06  0.266E-03    0.44       3.6  T
   9   -211.0092594 -0.610330E-06  0.923E-04    0.44      10.4  T
     SCC iter.                  ...        0 min,  0.618 sec
     gradient                   ...        0 min,  0.044 sec
 * total energy  :  -207.4542205 Eh     change       -0.1895465E-02 Eh
   gradient norm :     0.0232258 Eh/α   predicted    -0.1955905E-02 (   3.19%)
   displ. norm   :     0.6063325 α      lambda       -0.3204226E-02
   maximum displ.:     0.2462930 α      in ANC's #12, #19, #16, ...

........................................................................
.............................. CYCLE   13 ..............................
........................................................................
   1   -211.0143051 -0.211014E+03  0.184E-01    0.44       0.0  T
   2   -211.0143340 -0.289869E-04  0.106E-01    0.44       1.0  T
   3   -211.0138351  0.498900E-03  0.585E-02    0.44       1.0  T
   4   -211.0142622 -0.427068E-03  0.244E-02    0.43       1.0  T
   5   -211.0143452 -0.829590E-04  0.122E-02    0.44       1.0  T
   6   -211.0143692 -0.240430E-04  0.678E-03    0.43       1.4  T
   7   -211.0143783 -0.913600E-05  0.293E-03    0.44       3.3  T
   8   -211.0143797 -0.132243E-05  0.102E-03    0.44       9.4  T
   9   -211.0143797 -0.722844E-07  0.495E-04    0.44      19.4  T
     SCC iter.                  ...        0 min,  0.477 sec
     gradient                   ...        0 min,  0.034 sec
 * total energy  :  -207.4558721 Eh     change       -0.1651688E-02 Eh
   gradient norm :     0.0274116 Eh/α   predicted    -0.2191120E-02 (  32.66%)
   displ. norm   :     0.6428331 α      lambda       -0.3147683E-02
   maximum displ.:     0.2203031 α      in ANC's #12, #19, #16, ...

........................................................................
.............................. CYCLE   14 ..............................
........................................................................
   1   -211.0013277 -0.211001E+03  0.195E-01    0.43       0.0  T
   2   -210.9964435  0.488419E-02  0.177E-01    0.47       1.0  T
   3   -210.9927720  0.367153E-02  0.206E-01    0.42       1.0  T
   4   -211.0015388 -0.876675E-02  0.524E-02    0.46       1.0  T
   5   -211.0020977 -0.558909E-03  0.133E-02    0.44       1.0  T
   6   -211.0020985 -0.836568E-06  0.105E-02    0.44       1.0  T
   7   -211.0021093 -0.107871E-04  0.487E-03    0.43       2.0  T
   8   -211.0021091  0.171041E-06  0.356E-03    0.43       2.7  T
   9   -211.0021108 -0.165254E-05  0.110E-03    0.43       8.8  T
     SCC iter.                  ...        0 min,  0.385 sec
     gradient                   ...        0 min,  0.039 sec
 * total energy  :  -207.4569165 Eh     change       -0.1044347E-02 Eh
   gradient norm :     0.0354968 Eh/α   predicted    -0.2224209E-02 ( 112.98%)
   displ. norm   :     0.4095754 α      lambda       -0.3372418E-02
   maximum displ.:     0.1633452 α      in ANC's #12, #17, #11, ...

........................................................................
.............................. CYCLE   15 ..............................
........................................................................
   1   -211.0176584 -0.211018E+03  0.158E-01    0.43       0.0  T
   2   -211.0176849 -0.264356E-04  0.904E-02    0.43       1.0  T
   3   -211.0160694  0.161545E-02  0.835E-02    0.41       1.0  T
   4   -211.0169140 -0.844531E-03  0.568E-02    0.44       1.0  T
   5   -211.0177462 -0.832247E-03  0.118E-02    0.43       1.0  T
   6   -211.0177644 -0.181847E-04  0.507E-03    0.43       1.9  T
   7   -211.0177663 -0.191817E-05  0.325E-03    0.43       3.0  T
   8   -211.0177675 -0.120476E-05  0.101E-03    0.43       9.6  T
     SCC iter.                  ...        0 min,  0.533 sec
     gradient                   ...        0 min,  0.055 sec
 * total energy  :  -207.4586133 Eh     change       -0.1696839E-02 Eh
   gradient norm :     0.0310463 Eh/α   predicted    -0.1969077E-02 (  16.04%)
   displ. norm   :     0.5074681 α      lambda       -0.2357765E-02
   maximum displ.:     0.2208978 α      in ANC's #12, #17, #19, ...

........................................................................
.............................. CYCLE   16 ..............................
........................................................................
   1   -211.0187026 -0.211019E+03  0.161E-01    0.42       0.0  T
   2   -211.0186871  0.155513E-04  0.946E-02    0.43       1.0  T
   3   -211.0151951  0.349197E-02  0.125E-01    0.41       1.0  T
   4   -211.0177207 -0.252564E-02  0.679E-02    0.44       1.0  T
   5   -211.0188388 -0.111803E-02  0.125E-02    0.42       1.0  T
   6   -211.0188596 -0.208544E-04  0.517E-03    0.42       1.9  T
   7   -211.0188606 -0.100334E-05  0.323E-03    0.42       3.0  T
   8   -211.0188619 -0.131804E-05  0.133E-03    0.42       7.2  T
     SCC iter.                  ...        0 min,  0.356 sec
     gradient                   ...        0 min,  0.035 sec
 * total energy  :  -207.4597989 Eh     change       -0.1185555E-02 Eh
   gradient norm :     0.0244499 Eh/α   predicted    -0.1482476E-02 (  25.04%)
   displ. norm   :     0.5571494 α      lambda       -0.2393679E-02
   maximum displ.:     0.2237880 α      in ANC's #17, #12, #19, ...

........................................................................
.............................. CYCLE   17 ..............................
........................................................................
   1   -211.0042301 -0.211004E+03  0.171E-01    0.41       0.0  T
   2   -211.0037694  0.460685E-03  0.105E-01    0.43       1.0  T
   3   -210.9894226  0.143468E-01  0.231E-01    0.40       1.0  T
   4   -211.0041443 -0.147217E-01  0.363E-02    0.43       1.0  T
   5   -211.0043685 -0.224160E-03  0.111E-02    0.42       1.0  T
   6   -211.0043754 -0.685486E-05  0.654E-03    0.42       1.5  T
   7   -211.0043792 -0.386904E-05  0.330E-03    0.42       2.9  T
   8   -211.0043798 -0.606731E-06  0.184E-03    0.42       5.2  T
     SCC iter.                  ...        0 min,  0.356 sec
     gradient                   ...        0 min,  0.034 sec
 * total energy  :  -207.4611280 Eh     change       -0.1329145E-02 Eh
   gradient norm :     0.0263526 Eh/α   predicted    -0.1568358E-02 (  18.00%)
   displ. norm   :     0.5648375 α      lambda       -0.2148421E-02
   maximum displ.:     0.2303700 α      in ANC's #17, #12, #11, ...

........................................................................
.............................. CYCLE   18 ..............................
........................................................................
   1   -211.0089929 -0.211009E+03  0.192E-01    0.41       0.0  T
   2   -211.0070197  0.197317E-02  0.139E-01    0.43       1.0  T
   3   -210.9921809  0.148388E-01  0.261E-01    0.41       1.0  T
   4   -211.0088636 -0.166827E-01  0.494E-02    0.43       1.0  T
   5   -211.0092984 -0.434796E-03  0.132E-02    0.42       1.0  T
   6   -211.0092958  0.260962E-05  0.116E-02    0.42       1.0  T
   7   -211.0093149 -0.190811E-04  0.419E-03    0.42       2.3  T
   8   -211.0093148  0.892382E-07  0.300E-03    0.42       3.2  T
   9   -211.0093158 -0.101231E-05  0.865E-04    0.42      11.1  T
     SCC iter.                  ...        0 min,  0.405 sec
     gradient                   ...        0 min,  0.036 sec
 * total energy  :  -207.4623921 Eh     change       -0.1264076E-02 Eh
   gradient norm :     0.0240706 Eh/α   predicted    -0.1416934E-02 (  12.09%)
   displ. norm   :     0.5819985 α      lambda       -0.2022258E-02
   maximum displ.:     0.2531390 α      in ANC's #17, #12, #11, ...

........................................................................
.............................. CYCLE   19 ..............................
........................................................................
   1   -211.0057942 -0.211006E+03  0.202E-01    0.40       0.0  T
   2   -211.0035568  0.223740E-02  0.148E-01    0.42       1.0  T
   3   -210.9862158  0.173409E-01  0.278E-01    0.41       1.0  T
   4   -211.0057815 -0.195657E-01  0.516E-02    0.43       1.0  T
   5   -211.0061845 -0.402985E-03  0.138E-02    0.41       1.0  T
   6   -211.0061816  0.289185E-05  0.116E-02    0.41       1.0  T
   7   -211.0061948 -0.132396E-04  0.484E-03    0.41       2.0  T
   8   -211.0061953 -0.446270E-06  0.306E-03    0.41       3.1  T
   9   -211.0061962 -0.878771E-06  0.969E-04    0.41       9.9  T
     SCC iter.                  ...        0 min,  0.372 sec
     gradient                   ...        0 min,  0.035 sec
 * total energy  :  -207.4633235 Eh     change       -0.9314346E-03 Eh
   gradient norm :     0.0309286 Eh/α   predicted    -0.1353624E-02 (  45.33%)
   displ. norm   :     0.4902254 α      lambda       -0.2242635E-02
   maximum displ.:     0.2084339 α      in ANC's #17, #12, #21, ...

........................................................................
.............................. CYCLE   20 ..............................
........................................................................
   1   -211.0277978 -0.211028E+03  0.165E-01    0.41       0.0  T
   2   -211.0278145 -0.167085E-04  0.944E-02    0.41       1.0  T
   3   -211.0248327  0.298172E-02  0.115E-01    0.42       1.0  T
   4   -211.0270513 -0.221860E-02  0.612E-02    0.40       1.0  T
   5   -211.0279161 -0.864726E-03  0.108E-02    0.41       1.0  T
   6   -211.0279283 -0.122754E-04  0.522E-03    0.41       1.8  T
   7   -211.0279305 -0.213138E-05  0.256E-03    0.41       3.8  T
   8   -211.0279312 -0.757524E-06  0.110E-03    0.41       8.7  T
     SCC iter.                  ...        0 min,  0.536 sec
     gradient                   ...        0 min,  0.067 sec
 * total energy  :  -207.4642752 Eh     change       -0.9516121E-03 Eh
   gradient norm :     0.0407341 Eh/α   predicted    -0.1390794E-02 (  46.15%)
   displ. norm   :     0.4711230 α      lambda       -0.2365970E-02
   maximum displ.:     0.1618736 α      in ANC's #12, #17, #11, ...
 * RMSD in coord.:     0.8147873 α      energy gain  -0.8252442E-01 Eh

generating ANC from model Hessian ...
Using Lindh-Hessian (1995)
 Shifting diagonal of input Hessian by   5.074328756904131E-003
 Lowest  eigenvalues of input Hessian
    0.005000    0.005021   -0.000000   -0.000000   -0.000000    0.000000
    0.000000    0.000000    0.005101    0.005107    0.005158    0.005218
    0.005305    0.005356    0.005386    0.005511    0.005679    0.005770
 Highest eigenvalues
    2.598442    2.625159    2.634736    2.641038    2.652173    2.661871
 

........................................................................
.............................. CYCLE   21 ..............................
........................................................................
   1   -211.0193547 -0.211019E+03  0.157E-01    0.41       0.0  T
   2   -211.0193864 -0.317420E-04  0.898E-02    0.41       1.0  T
   3   -211.0185456  0.840855E-03  0.684E-02    0.40       1.0  T
   4   -211.0189957 -0.450105E-03  0.433E-02    0.41       1.0  T
   5   -211.0194130 -0.417287E-03  0.158E-02    0.41       1.0  T
   6   -211.0194612 -0.482147E-04  0.547E-03    0.41       1.8  T
   7   -211.0194638 -0.261866E-05  0.227E-03    0.41       4.2  T
   8   -211.0194640 -0.211540E-06  0.132E-03    0.41       7.3  T
   9   -211.0194642 -0.184175E-06  0.526E-04    0.41      18.3  T
  10   -211.0194642 -0.130814E-07  0.323E-04    0.41      29.8  T
     SCC iter.                  ...        0 min,  0.744 sec
     gradient                   ...        0 min,  0.060 sec
 * total energy  :  -207.4650020 Eh     change       -0.7268347E-03 Eh
   gradient norm :     0.0308657 Eh/α   predicted     0.0000000E+00 (-100.00%)
   displ. norm   :     0.3040739 α      lambda       -0.2256675E-02
   maximum displ.:     0.1223898 α      in ANC's #17, #34, #10, ...

........................................................................
.............................. CYCLE   22 ..............................
........................................................................
   1   -211.0160229 -0.211016E+03  0.182E-01    0.41       0.0  T
   2   -211.0155814  0.441473E-03  0.110E-01    0.41       1.0  T
   3   -210.9997573  0.158241E-01  0.246E-01    0.41       1.0  T
   4   -211.0159329 -0.161756E-01  0.355E-02    0.42       1.0  T
   5   -211.0161549 -0.221941E-03  0.876E-03    0.41       1.1  T
   6   -211.0161575 -0.260377E-05  0.612E-03    0.41       1.6  T
   7   -211.0161608 -0.329096E-05  0.259E-03    0.41       3.7  T
   8   -211.0161609 -0.130011E-06  0.172E-03    0.41       5.6  T
     SCC iter.                  ...        0 min,  0.423 sec
     gradient                   ...        0 min,  0.059 sec
 * total energy  :  -207.4656903 Eh     change       -0.6882967E-03 Eh
   gradient norm :     0.0174375 Eh/α   predicted    -0.1232665E-02 (  79.09%)
   displ. norm   :     0.3505781 α      lambda       -0.2492456E-02
   maximum displ.:     0.1784126 α      in ANC's #12, #15, #17, ...

........................................................................
.............................. CYCLE   23 ..............................
........................................................................
   1   -211.0193660 -0.211019E+03  0.229E-01    0.40       0.0  T
   2   -211.0192776  0.884124E-04  0.130E-01    0.40       1.0  T
   3   -211.0102967  0.898090E-02  0.195E-01    0.43       1.0  T
   4   -211.0193604 -0.906370E-02  0.321E-02    0.41       1.0  T
   5   -211.0195046 -0.144257E-03  0.908E-03    0.40       1.1  T
   6   -211.0195094 -0.472484E-05  0.556E-03    0.40       1.7  T
   7   -211.0195131 -0.372695E-05  0.237E-03    0.40       4.1  T
   8   -211.0195134 -0.287462E-06  0.137E-03    0.40       7.0  T
   9   -211.0195135 -0.166546E-06  0.503E-04    0.40      19.1  T
     SCC iter.                  ...        0 min,  0.558 sec
     gradient                   ...        0 min,  0.038 sec
 * total energy  :  -207.4656429 Eh     change        0.4736867E-04 Eh
   gradient norm :     0.0304407 Eh/α   predicted    -0.1399396E-02 (*******%)
   displ. norm   :     0.2310405 α      lambda       -0.2616156E-02
   maximum displ.:     0.0882972 α      in ANC's #34, #14, #37, ...

........................................................................
.............................. CYCLE   24 ..............................
........................................................................
   1   -211.0259652 -0.211026E+03  0.188E-01    0.40       0.0  T
   2   -211.0253208  0.644388E-03  0.117E-01    0.40       1.0  T
   3   -211.0099440  0.153768E-01  0.261E-01    0.44       1.0  T
   4   -211.0259692 -0.160252E-01  0.307E-02    0.41       1.0  T
   5   -211.0261018 -0.132579E-03  0.655E-03    0.41       1.5  T
   6   -211.0261001  0.167749E-05  0.630E-03    0.40       1.5  T
   7   -211.0261049 -0.478693E-05  0.296E-03    0.40       3.2  T
   8   -211.0261051 -0.227343E-06  0.170E-03    0.40       5.7  T
     SCC iter.                  ...        0 min,  0.428 sec
     gradient                   ...        0 min,  0.044 sec
 * total energy  :  -207.4665679 Eh     change       -0.9249895E-03 Eh
   gradient norm :     0.0199449 Eh/α   predicted    -0.1377915E-02 (  48.97%)
   displ. norm   :     0.2050053 α      lambda       -0.1479807E-02
   maximum displ.:     0.0678315 α      in ANC's #17, #34, #13, ...

........................................................................
.............................. CYCLE   25 ..............................
........................................................................
   1   -211.0200622 -0.211020E+03  0.131E-01    0.40       0.0  T
   2   -211.0197865  0.275752E-03  0.814E-02    0.41       1.0  T
   3   -211.0108800  0.890649E-02  0.184E-01    0.40       1.0  T
   4   -211.0200229 -0.914290E-02  0.266E-02    0.41       1.0  T
   5   -211.0201408 -0.117931E-03  0.594E-03    0.41       1.6  T
   6   -211.0201417 -0.933919E-06  0.360E-03    0.40       2.7  T
   7   -211.0201429 -0.116734E-05  0.222E-03    0.40       4.3  T
   8   -211.0201434 -0.455055E-06  0.123E-03    0.40       7.8  T
     SCC iter.                  ...        0 min,  0.439 sec
     gradient                   ...        0 min,  0.042 sec
 * total energy  :  -207.4670140 Eh     change       -0.4461135E-03 Eh
   gradient norm :     0.0155903 Eh/α   predicted    -0.7710019E-03 (  72.83%)
   displ. norm   :     0.2723329 α      lambda       -0.1017833E-02
   maximum displ.:     0.1108913 α      in ANC's #17, #12, #13, ...

........................................................................
.............................. CYCLE   26 ..............................
........................................................................
   1   -211.0194845 -0.211019E+03  0.123E-01    0.40       0.0  T
   2   -211.0194973 -0.127607E-04  0.688E-02    0.40       1.0  T
   3   -211.0192773  0.220038E-03  0.413E-02    0.40       1.0  T
   4   -211.0195160 -0.238717E-03  0.693E-03    0.40       1.4  T
   5   -211.0195152  0.787620E-06  0.561E-03    0.40       1.7  T
   6   -211.0195094  0.580623E-05  0.658E-03    0.40       1.5  T
   7   -211.0195195 -0.100975E-04  0.152E-03    0.40       6.3  T
   8   -211.0195199 -0.382300E-06  0.570E-04    0.40      16.9  T
   9   -211.0195199 -0.928762E-08  0.387E-04    0.40      24.9  T
     SCC iter.                  ...        0 min,  0.682 sec
     gradient                   ...        0 min,  0.043 sec
 * total energy  :  -207.4675091 Eh     change       -0.4951234E-03 Eh
   gradient norm :     0.0127918 Eh/α   predicted    -0.5466646E-03 (  10.41%)
   displ. norm   :     0.4659802 α      lambda       -0.1423743E-02
   maximum displ.:     0.2018209 α      in ANC's #17, #10, #15, ...

........................................................................
.............................. CYCLE   27 ..............................
........................................................................
   1   -211.0177652 -0.211018E+03  0.176E-01    0.40       0.0  T
   2   -211.0174076  0.357589E-03  0.107E-01    0.40       1.0  T
   3   -211.0069505  0.104572E-01  0.218E-01    0.43       1.0  T
   4   -211.0176742 -0.107237E-01  0.396E-02    0.41       1.0  T
   5   -211.0178834 -0.209217E-03  0.101E-02    0.40       1.0  T
   6   -211.0178839 -0.531636E-06  0.744E-03    0.40       1.3  T
   7   -211.0178923 -0.837263E-05  0.251E-03    0.40       3.8  T
   8   -211.0178928 -0.451037E-06  0.126E-03    0.40       7.6  T
   9   -211.0178929 -0.128076E-06  0.603E-04    0.40      16.0  T
     SCC iter.                  ...        0 min,  0.481 sec
     gradient                   ...        0 min,  0.037 sec
 * total energy  :  -207.4680445 Eh     change       -0.5353608E-03 Eh
   gradient norm :     0.0207714 Eh/α   predicted    -0.8664597E-03 (  61.85%)
   displ. norm   :     0.4157370 α      lambda       -0.1324965E-02
   maximum displ.:     0.1653558 α      in ANC's #17, #13, #10, ...

........................................................................
.............................. CYCLE   28 ..............................
........................................................................
   1   -211.0172395 -0.211017E+03  0.163E-01    0.40       0.0  T
   2   -211.0171175  0.122016E-03  0.946E-02    0.40       1.0  T
   3   -211.0115356  0.558190E-02  0.163E-01    0.42       1.0  T
   4   -211.0169548 -0.541923E-02  0.426E-02    0.40       1.0  T
   5   -211.0173149 -0.360058E-03  0.997E-03    0.40       1.0  T
   6   -211.0173204 -0.550242E-05  0.678E-03    0.40       1.4  T
   7   -211.0173287 -0.826905E-05  0.254E-03    0.40       3.8  T
   8   -211.0173296 -0.947094E-06  0.121E-03    0.40       7.9  T
   9   -211.0173298 -0.153005E-06  0.699E-04    0.40      13.8  T
     SCC iter.                  ...        0 min,  0.611 sec
     gradient                   ...        0 min,  0.036 sec
 * total energy  :  -207.4686719 Eh     change       -0.6274200E-03 Eh
   gradient norm :     0.0205431 Eh/α   predicted    -0.7769877E-03 (  23.84%)
   displ. norm   :     0.4569949 α      lambda       -0.1697854E-02
   maximum displ.:     0.1834762 α      in ANC's #17, #10, #1, ...

........................................................................
.............................. CYCLE   29 ..............................
........................................................................
   1   -211.0169480 -0.211017E+03  0.170E-01    0.40       0.0  T
   2   -211.0169625 -0.144420E-04  0.948E-02    0.40       1.0  T
   3   -211.0160092  0.953234E-03  0.749E-02    0.40       1.0  T
   4   -211.0167627 -0.753511E-03  0.335E-02    0.40       1.0  T
   5   -211.0169795 -0.216738E-03  0.173E-02    0.40       1.0  T
   6   -211.0170357 -0.562564E-04  0.587E-03    0.40       1.6  T
   7   -211.0170384 -0.270406E-05  0.250E-03    0.40       3.8  T
   8   -211.0170392 -0.763444E-06  0.990E-04    0.40       9.7  T
     SCC iter.                  ...        0 min,  0.578 sec
     gradient                   ...        0 min,  0.030 sec
 * total energy  :  -207.4693753 Eh     change       -0.7033361E-03 Eh
   gradient norm :     0.0147585 Eh/α   predicted    -0.1026223E-02 (  45.91%)
   displ. norm   :     0.4779573 α      lambda       -0.1587613E-02
   maximum displ.:     0.1877930 α      in ANC's #17, #13, #14, ...

........................................................................
.............................. CYCLE   30 ..............................
........................................................................
   1   -211.0191750 -0.211019E+03  0.184E-01    0.40       0.0  T
   2   -211.0191698  0.519967E-05  0.103E-01    0.40       1.0  T
   3   -211.0171718  0.199794E-02  0.994E-02    0.40       1.0  T
   4   -211.0187851 -0.161327E-02  0.459E-02    0.40       1.0  T
   5   -211.0192417 -0.456603E-03  0.127E-02    0.40       1.0  T
   6   -211.0192635 -0.218285E-04  0.549E-03    0.40       1.8  T
   7   -211.0192657 -0.212396E-05  0.205E-03    0.40       4.7  T
   8   -211.0192661 -0.387389E-06  0.105E-03    0.40       9.2  T
     SCC iter.                  ...        0 min,  0.362 sec
     gradient                   ...        0 min,  0.061 sec
 * total energy  :  -207.4700197 Eh     change       -0.6444716E-03 Eh
   gradient norm :     0.0213937 Eh/α   predicted    -0.9751527E-03 (  51.31%)
   displ. norm   :     0.5057005 α      lambda       -0.1294564E-02
   maximum displ.:     0.2031997 α      in ANC's #17, #10, #1, ...

........................................................................
.............................. CYCLE   31 ..............................
........................................................................
   1   -211.0155770 -0.211016E+03  0.145E-01    0.40       0.0  T
   2   -211.0154715  0.105500E-03  0.859E-02    0.40       1.0  T
   3   -211.0116974  0.377405E-02  0.139E-01    0.41       1.0  T
   4   -211.0150911 -0.339370E-02  0.503E-02    0.40       1.0  T
   5   -211.0156403 -0.549194E-03  0.116E-02    0.40       1.0  T
   6   -211.0156540 -0.136710E-04  0.697E-03    0.40       1.4  T
   7   -211.0156618 -0.782534E-05  0.256E-03    0.40       3.8  T
   8   -211.0156626 -0.814174E-06  0.133E-03    0.40       7.2  T
   9   -211.0156629 -0.231700E-06  0.719E-04    0.40      13.4  T
     SCC iter.                  ...        0 min,  0.469 sec
     gradient                   ...        0 min,  0.040 sec
 * total energy  :  -207.4709078 Eh     change       -0.8881188E-03 Eh
   gradient norm :     0.0110165 Eh/α   predicted    -0.8128141E-03 (  -8.48%)
   displ. norm   :     0.5544426 α      lambda       -0.1014138E-02
   maximum displ.:     0.1885768 α      in ANC's #17, #1, #13, ...

........................................................................
.............................. CYCLE   32 ..............................
........................................................................
   1   -211.0217562 -0.211022E+03  0.146E-01    0.40       0.0  T
   2   -211.0214488  0.307428E-03  0.896E-02    0.40       1.0  T
   3   -211.0142290  0.721984E-02  0.184E-01    0.42       1.0  T
   4   -211.0216159 -0.738697E-02  0.384E-02    0.40       1.0  T
   5   -211.0218324 -0.216452E-03  0.103E-02    0.40       1.0  T
   6   -211.0218342 -0.177051E-05  0.714E-03    0.40       1.3  T
   7   -211.0218430 -0.887572E-05  0.229E-03    0.40       4.2  T
   8   -211.0218436 -0.606853E-06  0.112E-03    0.40       8.6  T
   9   -211.0218438 -0.144019E-06  0.668E-04    0.40      14.4  T
     SCC iter.                  ...        0 min,  0.462 sec
     gradient                   ...        0 min,  0.038 sec
 * total energy  :  -207.4716859 Eh     change       -0.7780732E-03 Eh
   gradient norm :     0.0120557 Eh/α   predicted    -0.6629446E-03 ( -14.80%)
   displ. norm   :     0.7824378 α      lambda       -0.1073579E-02
   maximum displ.:     0.2741345 α      in ANC's #17, #1, #13, ...

........................................................................
.............................. CYCLE   33 ..............................
........................................................................
   1   -211.0196155 -0.211020E+03  0.209E-01    0.40       0.0  T
   2   -211.0195739  0.415578E-04  0.118E-01    0.40       1.0  T
   3   -211.0170958  0.247813E-02  0.126E-01    0.41       1.0  T
   4   -211.0190946 -0.199883E-02  0.529E-02    0.40       1.0  T
   5   -211.0196409 -0.546278E-03  0.229E-02    0.40       1.0  T
   6   -211.0197429 -0.102020E-03  0.851E-03    0.40       1.1  T
   7   -211.0197513 -0.833679E-05  0.287E-03    0.40       3.4  T
   8   -211.0197522 -0.943932E-06  0.116E-03    0.40       8.3  T
   9   -211.0197523 -0.796052E-07  0.734E-04    0.40      13.1  T
     SCC iter.                  ...        0 min,  0.655 sec
     gradient                   ...        0 min,  0.034 sec
 * total energy  :  -207.4725861 Eh     change       -0.9001621E-03 Eh
   gradient norm :     0.0107624 Eh/α   predicted    -0.8654231E-03 (  -3.86%)
   displ. norm   :     0.7502374 α      lambda       -0.1129617E-02
   maximum displ.:     0.2562197 α      in ANC's #1, #8, #13, ...

........................................................................
.............................. CYCLE   34 ..............................
........................................................................
   1   -211.0257078 -0.211026E+03  0.196E-01    0.40       0.0  T
   2   -211.0256371  0.706749E-04  0.110E-01    0.40       1.0  T
   3   -211.0212508  0.438639E-02  0.148E-01    0.41       1.0  T
   4   -211.0252944 -0.404361E-02  0.489E-02    0.40       1.0  T
   5   -211.0257599 -0.465545E-03  0.171E-02    0.40       1.0  T
   6   -211.0257997 -0.398291E-04  0.721E-03    0.40       1.3  T
   7   -211.0258063 -0.658597E-05  0.265E-03    0.40       3.6  T
   8   -211.0258072 -0.902751E-06  0.104E-03    0.40       9.2  T
   9   -211.0258073 -0.544863E-07  0.679E-04    0.40      14.2  T
     SCC iter.                  ...        0 min,  0.460 sec
     gradient                   ...        0 min,  0.038 sec
 * total energy  :  -207.4735279 Eh     change       -0.9417975E-03 Eh
   gradient norm :     0.0093469 Eh/α   predicted    -0.8827278E-03 (  -6.27%)
   displ. norm   :     0.8365891 α      lambda       -0.1100556E-02
   maximum displ.:     0.2920950 α      in ANC's #1, #8, #17, ...

........................................................................
.............................. CYCLE   35 ..............................
........................................................................
   1   -211.0255176 -0.211026E+03  0.223E-01    0.41       0.0  T
   2   -211.0253093  0.208370E-03  0.127E-01    0.40       1.0  T
   3   -211.0166470  0.866230E-02  0.208E-01    0.43       1.0  T
   4   -211.0250984 -0.845146E-02  0.541E-02    0.40       1.0  T
   5   -211.0256069 -0.508435E-03  0.199E-02    0.41       1.0  T
   6   -211.0256532 -0.463357E-04  0.978E-03    0.40       1.0  T
   7   -211.0256658 -0.125710E-04  0.472E-03    0.40       2.0  T
   8   -211.0256700 -0.425621E-05  0.213E-03    0.40       4.5  T
   9   -211.0256708 -0.806149E-06  0.919E-04    0.40      10.5  T
  10   -211.0256709 -0.820261E-07  0.484E-04    0.40      19.9  T
     SCC iter.                  ...        0 min,  0.533 sec
     gradient                   ...        0 min,  0.043 sec
 * total energy  :  -207.4744488 Eh     change       -0.9208897E-03 Eh
   gradient norm :     0.0089319 Eh/α   predicted    -0.9354088E-03 (   1.58%)
   displ. norm   :     0.7939264 α      lambda       -0.1094946E-02
   maximum displ.:     0.2996925 α      in ANC's #1, #8, #5, ...

........................................................................
.............................. CYCLE   36 ..............................
........................................................................
   1   -211.0313359 -0.211031E+03  0.200E-01    0.41       0.0  T
   2   -211.0307925  0.543334E-03  0.120E-01    0.40       1.0  T
   3   -211.0176639  0.131287E-01  0.249E-01    0.44       1.0  T
   4   -211.0313373 -0.136734E-01  0.372E-02    0.41       1.0  T
   5   -211.0314666 -0.129301E-03  0.152E-02    0.41       1.0  T
   6   -211.0314794 -0.127788E-04  0.948E-03    0.41       1.0  T
   7   -211.0314883 -0.899205E-05  0.403E-03    0.41       2.4  T
   8   -211.0314897 -0.137214E-05  0.204E-03    0.41       4.7  T
   9   -211.0314902 -0.465511E-06  0.976E-04    0.41       9.9  T
     SCC iter.                  ...        0 min,  0.667 sec
     gradient                   ...        0 min,  0.041 sec
 * total energy  :  -207.4753709 Eh     change       -0.9221068E-03 Eh
   gradient norm :     0.0106133 Eh/α   predicted    -0.8925548E-03 (  -3.20%)
   displ. norm   :     0.8392647 α      lambda       -0.1196904E-02
   maximum displ.:     0.3265786 α      in ANC's #8, #1, #5, ...

........................................................................
.............................. CYCLE   37 ..............................
........................................................................
   1   -211.0209559 -0.211021E+03  0.228E-01    0.41       0.0  T
   2   -211.0208653  0.906240E-04  0.127E-01    0.41       1.0  T
   3   -211.0142025  0.666272E-02  0.178E-01    0.43       1.0  T
   4   -211.0206638 -0.646123E-02  0.493E-02    0.41       1.0  T
   5   -211.0210411 -0.377292E-03  0.207E-02    0.41       1.0  T
   6   -211.0210916 -0.505143E-04  0.100E-02    0.41       1.0  T
   7   -211.0211037 -0.121040E-04  0.417E-03    0.41       2.3  T
   8   -211.0211065 -0.283971E-05  0.170E-03    0.41       5.7  T
   9   -211.0211068 -0.280109E-06  0.109E-03    0.41       8.8  T
     SCC iter.                  ...        0 min,  0.469 sec
     gradient                   ...        0 min,  0.040 sec
 * total energy  :  -207.4763245 Eh     change       -0.9536459E-03 Eh
   gradient norm :     0.0128915 Eh/α   predicted    -0.1019985E-02 (   6.96%)
   displ. norm   :     0.7269265 α      lambda       -0.1240397E-02
   maximum displ.:     0.3530696 α      in ANC's #8, #1, #5, ...

........................................................................
.............................. CYCLE   38 ..............................
........................................................................
   1   -211.0381922 -0.211038E+03  0.204E-01    0.41       0.0  T
   2   -211.0378302  0.362063E-03  0.118E-01    0.41       1.0  T
   3   -211.0261378  0.116924E-01  0.230E-01    0.45       1.0  T
   4   -211.0382828 -0.121450E-01  0.320E-02    0.42       1.0  T
   5   -211.0383360 -0.531815E-04  0.135E-02    0.41       1.0  T
   6   -211.0383569 -0.209013E-04  0.820E-03    0.41       1.2  T
   7   -211.0383641 -0.717815E-05  0.445E-03    0.41       2.2  T
   8   -211.0383672 -0.309973E-05  0.192E-03    0.41       5.0  T
   9   -211.0383677 -0.494030E-06  0.930E-04    0.41      10.3  T
  10   -211.0383677 -0.705719E-07  0.500E-04    0.41      19.3  T
     SCC iter.                  ...        0 min,  0.515 sec
     gradient                   ...        0 min,  0.039 sec
 * total energy  :  -207.4768547 Eh     change       -0.5301638E-03 Eh
   gradient norm :     0.0229948 Eh/α   predicted    -0.9479276E-03 (  78.80%)
   displ. norm   :     0.6430850 α      lambda       -0.1500680E-02
   maximum displ.:     0.2603759 α      in ANC's #8, #1, #5, ...

........................................................................
.............................. CYCLE   39 ..............................
........................................................................
   1   -211.0301623 -0.211030E+03  0.168E-01    0.41       0.0  T
   2   -211.0302113 -0.490009E-04  0.926E-02    0.41       1.0  T
   3   -211.0296520  0.559276E-03  0.616E-02    0.41       1.0  T
   4   -211.0296887 -0.367475E-04  0.504E-02    0.41       1.0  T
   5   -211.0301900 -0.501275E-03  0.169E-02    0.41       1.0  T
   6   -211.0302416 -0.516164E-04  0.807E-03    0.41       1.2  T
   7   -211.0302520 -0.103851E-04  0.378E-03    0.41       2.5  T
   8   -211.0302545 -0.247498E-05  0.126E-03    0.41       7.6  T
   9   -211.0302546 -0.105593E-06  0.733E-04    0.41      13.1  T
     SCC iter.                  ...        0 min,  0.468 sec
     gradient                   ...        0 min,  0.042 sec
 * total energy  :  -207.4779302 Eh     change       -0.1075488E-02 Eh
   gradient norm :     0.0102569 Eh/α   predicted    -0.1060648E-02 (  -1.38%)
   displ. norm   :     0.7580446 α      lambda       -0.9802713E-03
   maximum displ.:     0.3543152 α      in ANC's #8, #1, #5, ...

........................................................................
.............................. CYCLE   40 ..............................
........................................................................
   1   -211.0227824 -0.211023E+03  0.202E-01    0.41       0.0  T
   2   -211.0228490 -0.665983E-04  0.109E-01    0.41       1.0  T
   3   -211.0227358  0.113173E-03  0.386E-02    0.41       1.0  T
   4   -211.0228392 -0.103358E-03  0.184E-02    0.41       1.0  T
   5   -211.0228542 -0.150147E-04  0.115E-02    0.41       1.0  T
   6   -211.0228407  0.134798E-04  0.123E-02    0.41       1.0  T
   7   -211.0228751 -0.344099E-04  0.511E-03    0.41       1.9  T
   8   -211.0228799 -0.474469E-05  0.132E-03    0.41       7.3  T
   9   -211.0228800 -0.928625E-07  0.790E-04    0.41      12.2  T
  10   -211.0228800 -0.404200E-07  0.421E-04    0.41      22.9  T
     SCC iter.                  ...        0 min,  0.577 sec
     gradient                   ...        0 min,  0.037 sec
 * total energy  :  -207.4787078 Eh     change       -0.7775998E-03 Eh
   gradient norm :     0.0135830 Eh/α   predicted    -0.7717833E-03 (  -0.75%)
   displ. norm   :     0.6619988 α      lambda       -0.1168594E-02
   maximum displ.:     0.3687069 α      in ANC's #8, #5, #1, ...

........................................................................
.............................. CYCLE   41 ..............................
........................................................................
   1   -211.0357559 -0.211036E+03  0.170E-01    0.41       0.0  T
   2   -211.0357353  0.206860E-04  0.966E-02    0.40       1.0  T
   3   -211.0326831  0.305216E-02  0.122E-01    0.42       1.0  T
   4   -211.0349802 -0.229712E-02  0.644E-02    0.40       1.0  T
   5   -211.0358557 -0.875471E-03  0.184E-02    0.41       1.0  T
   6   -211.0359000 -0.443496E-04  0.625E-03    0.40       1.5  T
   7   -211.0359011 -0.101684E-05  0.377E-03    0.41       2.6  T
   8   -211.0359031 -0.202937E-05  0.142E-03    0.41       6.8  T
   9   -211.0359032 -0.143125E-06  0.982E-04    0.41       9.8  T
     SCC iter.                  ...        0 min,  0.468 sec
     gradient                   ...        0 min,  0.037 sec
 * total energy  :  -207.4793623 Eh     change       -0.6545334E-03 Eh
   gradient norm :     0.0200278 Eh/α   predicted    -0.8403737E-03 (  28.39%)
   displ. norm   :     0.6522634 α      lambda       -0.1311359E-02
   maximum displ.:     0.3420418 α      in ANC's #8, #5, #1, ...

........................................................................
.............................. CYCLE   42 ..............................
........................................................................
   1   -211.0326380 -0.211033E+03  0.168E-01    0.40       0.0  T
   2   -211.0326283  0.967963E-05  0.945E-02    0.40       1.0  T
   3   -211.0298700  0.275833E-02  0.108E-01    0.40       1.0  T
   4   -211.0320910 -0.222103E-02  0.521E-02    0.41       1.0  T
   5   -211.0326959 -0.604935E-03  0.142E-02    0.40       1.0  T
   6   -211.0327083 -0.124148E-04  0.711E-03    0.40       1.4  T
   7   -211.0327131 -0.478330E-05  0.380E-03    0.40       2.5  T
   8   -211.0327156 -0.251222E-05  0.133E-03    0.40       7.3  T
     SCC iter.                  ...        0 min,  0.417 sec
     gradient                   ...        0 min,  0.041 sec
 * total energy  :  -207.4802634 Eh     change       -0.9011385E-03 Eh
   gradient norm :     0.0163202 Eh/α   predicted    -0.9346411E-03 (   3.72%)
   displ. norm   :     0.5733055 α      lambda       -0.1251589E-02
   maximum displ.:     0.3306953 α      in ANC's #8, #5, #1, ...
 * RMSD in coord.:     1.0470996 α      energy gain  -0.1598829E-01 Eh

generating ANC from model Hessian ...
Using Lindh-Hessian (1995)
 Shifting diagonal of input Hessian by   5.066141550620789E-003
 Lowest  eigenvalues of input Hessian
    0.005000    0.005011   -0.000000   -0.000000   -0.000000    0.000000
    0.000000    0.000000    0.005105    0.005125    0.005192    0.005233
    0.005339    0.005466    0.005524    0.005546    0.005568    0.005699
 Highest eigenvalues
    2.604962    2.618030    2.632091    2.637115    2.646527    2.657966
 

........................................................................
.............................. CYCLE   43 ..............................
........................................................................
   1   -211.0377609 -0.211038E+03  0.160E-01    0.40       0.0  T
   2   -211.0377019  0.590173E-04  0.917E-02    0.40       1.0  T
   3   -211.0335514  0.415045E-02  0.135E-01    0.39       1.0  T
   4   -211.0370993 -0.354786E-02  0.574E-02    0.41       1.0  T
   5   -211.0378524 -0.753069E-03  0.149E-02    0.40       1.0  T
   6   -211.0378727 -0.203415E-04  0.598E-03    0.40       1.6  T
   7   -211.0378734 -0.690263E-06  0.388E-03    0.40       2.5  T
   8   -211.0378763 -0.288381E-05  0.137E-03    0.40       7.0  T
   9   -211.0378765 -0.192116E-06  0.821E-04    0.40      11.7  T
  10   -211.0378766 -0.723091E-07  0.356E-04    0.40      27.0  T
     SCC iter.                  ...        0 min,  0.704 sec
     gradient                   ...        0 min,  0.060 sec
 * total energy  :  -207.4808952 Eh     change       -0.6317618E-03 Eh
   gradient norm :     0.0185275 Eh/α   predicted     0.0000000E+00 (-100.00%)
   displ. norm   :     0.2833119 α      lambda       -0.1143138E-02
   maximum displ.:     0.1432953 α      in ANC's #11, #5, #9, ...

........................................................................
.............................. CYCLE   44 ..............................
........................................................................
   1   -211.0311364 -0.211031E+03  0.181E-01    0.40       0.0  T
   2   -211.0311411 -0.473505E-05  0.101E-01    0.40       1.0  T
   3   -211.0289533  0.218784E-02  0.964E-02    0.41       1.0  T
   4   -211.0308710 -0.191765E-02  0.410E-02    0.40       1.0  T
   5   -211.0312150 -0.344004E-03  0.503E-03    0.40       1.9  T
   6   -211.0312161 -0.117189E-05  0.328E-03    0.40       2.9  T
   7   -211.0312164 -0.318469E-06  0.208E-03    0.40       4.6  T
   8   -211.0312171 -0.676000E-06  0.878E-04    0.40      11.0  T
     SCC iter.                  ...        0 min,  0.416 sec
     gradient                   ...        0 min,  0.039 sec
 * total energy  :  -207.4806063 Eh     change        0.2889117E-03 Eh
   gradient norm :     0.0236677 Eh/α   predicted    -0.6174465E-03 (-313.71%)
   displ. norm   :     0.2291828 α      lambda       -0.2236048E-02
   maximum displ.:     0.0926329 α      in ANC's #10, #9, #5, ...

........................................................................
.............................. CYCLE   45 ..............................
........................................................................
   1   -211.0376026 -0.211038E+03  0.170E-01    0.40       0.0  T
   2   -211.0376224 -0.197966E-04  0.948E-02    0.40       1.0  T
   3   -211.0365857  0.103673E-02  0.701E-02    0.41       1.0  T
   4   -211.0373642 -0.778462E-03  0.367E-02    0.40       1.0  T
   5   -211.0376706 -0.306418E-03  0.524E-03    0.40       1.8  T
   6   -211.0376732 -0.257750E-05  0.289E-03    0.40       3.3  T
   7   -211.0376737 -0.498065E-06  0.136E-03    0.40       7.1  T
     SCC iter.                  ...        0 min,  0.388 sec
     gradient                   ...        0 min,  0.038 sec
 * total energy  :  -207.4813594 Eh     change       -0.7530970E-03 Eh
   gradient norm :     0.0160477 Eh/α   predicted    -0.1176751E-02 (  56.25%)
   displ. norm   :     0.2746038 α      lambda       -0.1578206E-02
   maximum displ.:     0.0985633 α      in ANC's #23, #22, #37, ...

........................................................................
.............................. CYCLE   46 ..............................
........................................................................
   1   -211.0365846 -0.211037E+03  0.203E-01    0.40       0.0  T
   2   -211.0366342 -0.496222E-04  0.113E-01    0.40       1.0  T
   3   -211.0360537  0.580576E-03  0.554E-02    0.40       1.0  T
   4   -211.0364794 -0.425780E-03  0.291E-02    0.40       1.0  T
   5   -211.0366695 -0.190045E-03  0.610E-03    0.40       1.6  T
   6   -211.0366713 -0.181876E-05  0.420E-03    0.40       2.3  T
   7   -211.0366734 -0.210842E-05  0.151E-03    0.40       6.4  T
   8   -211.0366736 -0.203926E-06  0.800E-04    0.40      12.0  T
     SCC iter.                  ...        0 min,  0.428 sec
     gradient                   ...        0 min,  0.212 sec
 * total energy  :  -207.4808041 Eh     change        0.5553313E-03 Eh
   gradient norm :     0.0179785 Eh/α   predicted    -0.8486073E-03 (-252.81%)
   displ. norm   :     0.1814265 α      lambda       -0.2120260E-02
   maximum displ.:     0.0617022 α      in ANC's #26, #9, #39, ...

........................................................................
.............................. CYCLE   47 ..............................
........................................................................
   1   -211.0418689 -0.211042E+03  0.147E-01    0.40       0.0  T
   2   -211.0418939 -0.250300E-04  0.811E-02    0.40       1.0  T
   3   -211.0416509  0.243012E-03  0.361E-02    0.41       1.0  T
   4   -211.0418027 -0.151814E-03  0.216E-02    0.40       1.0  T
   5   -211.0419144 -0.111700E-03  0.287E-03    0.40       3.3  T
   6   -211.0419146 -0.173079E-06  0.186E-03    0.40       5.2  T
   7   -211.0419149 -0.231455E-06  0.898E-04    0.40      10.7  T
     SCC iter.                  ...        0 min,  0.354 sec
     gradient                   ...        0 min,  0.042 sec
 * total energy  :  -207.4818812 Eh     change       -0.1077166E-02 Eh
   gradient norm :     0.0114218 Eh/α   predicted    -0.1095026E-02 (   1.66%)
   displ. norm   :     0.2377473 α      lambda       -0.6986532E-03
   maximum displ.:     0.0948156 α      in ANC's #5, #11, #10, ...

........................................................................
.............................. CYCLE   48 ..............................
........................................................................
   1   -211.0351023 -0.211035E+03  0.128E-01    0.40       0.0  T
   2   -211.0351144 -0.120997E-04  0.719E-02    0.40       1.0  T
   3   -211.0345507  0.563715E-03  0.492E-02    0.41       1.0  T
   4   -211.0350160 -0.465325E-03  0.238E-02    0.40       1.0  T
   5   -211.0351356 -0.119610E-03  0.485E-03    0.40       2.0  T
   6   -211.0351364 -0.729243E-06  0.305E-03    0.40       3.2  T
   7   -211.0351371 -0.721808E-06  0.116E-03    0.40       8.3  T
   8   -211.0351372 -0.902195E-07  0.621E-04    0.40      15.5  T
     SCC iter.                  ...        0 min,  0.426 sec
     gradient                   ...        0 min,  0.039 sec
 * total energy  :  -207.4818026 Eh     change        0.7865237E-04 Eh
   gradient norm :     0.0146402 Eh/α   predicted    -0.3690762E-03 (-569.25%)
   displ. norm   :     0.2123479 α      lambda       -0.9881777E-03
   maximum displ.:     0.1292160 α      in ANC's #9, #5, #14, ...

........................................................................
.............................. CYCLE   49 ..............................
........................................................................
   1   -211.0369939 -0.211037E+03  0.105E-01    0.40       0.0  T
   2   -211.0369984 -0.444222E-05  0.584E-02    0.40       1.0  T
   3   -211.0365323  0.466052E-03  0.461E-02    0.41       1.0  T
   4   -211.0369272 -0.394862E-03  0.202E-02    0.40       1.0  T
   5   -211.0370169 -0.897508E-04  0.351E-03    0.40       2.7  T
   6   -211.0370175 -0.592677E-06  0.200E-03    0.40       4.8  T
   7   -211.0370179 -0.402540E-06  0.709E-04    0.40      13.6  T
     SCC iter.                  ...        0 min,  0.374 sec
     gradient                   ...        0 min,  0.041 sec
 * total energy  :  -207.4823029 Eh     change       -0.5003433E-03 Eh
   gradient norm :     0.0113039 Eh/α   predicted    -0.5163724E-03 (   3.20%)
   displ. norm   :     0.3083576 α      lambda       -0.9383453E-03
   maximum displ.:     0.1611454 α      in ANC's #9, #5, #11, ...

........................................................................
.............................. CYCLE   50 ..............................
........................................................................
   1   -211.0386556 -0.211039E+03  0.116E-01    0.40       0.0  T
   2   -211.0386504  0.522162E-05  0.673E-02    0.40       1.0  T
   3   -211.0376542  0.996153E-03  0.700E-02    0.41       1.0  T
   4   -211.0384604 -0.806166E-03  0.316E-02    0.40       1.0  T
   5   -211.0386791 -0.218710E-03  0.725E-03    0.40       1.3  T
   6   -211.0386821 -0.303828E-05  0.452E-03    0.40       2.1  T
   7   -211.0386849 -0.280482E-05  0.154E-03    0.40       6.3  T
   8   -211.0386851 -0.182720E-06  0.961E-04    0.40      10.0  T
     SCC iter.                  ...        0 min,  0.392 sec
     gradient                   ...        0 min,  0.155 sec
 * total energy  :  -207.4824891 Eh     change       -0.1861352E-03 Eh
   gradient norm :     0.0127456 Eh/α   predicted    -0.5137857E-03 ( 176.03%)
   displ. norm   :     0.2974861 α      lambda       -0.7888377E-03
   maximum displ.:     0.1653987 α      in ANC's #9, #5, #11, ...

........................................................................
.............................. CYCLE   51 ..............................
........................................................................
   1   -211.0388817 -0.211039E+03  0.779E-02    0.40       0.0  T
   2   -211.0388676  0.141055E-04  0.444E-02    0.40       1.0  T
   3   -211.0380047  0.862836E-03  0.609E-02    0.41       1.0  T
   4   -211.0388012 -0.796499E-03  0.220E-02    0.40       1.0  T
   5   -211.0388939 -0.926315E-04  0.552E-03    0.40       1.7  T
   6   -211.0388954 -0.153812E-05  0.291E-03    0.40       3.3  T
   7   -211.0388964 -0.102067E-05  0.796E-04    0.40      12.1  T
     SCC iter.                  ...        0 min,  0.348 sec
     gradient                   ...        0 min,  0.038 sec
 * total energy  :  -207.4831081 Eh     change       -0.6190574E-03 Eh
   gradient norm :     0.0060542 Eh/α   predicted    -0.4293250E-03 ( -30.65%)
   displ. norm   :     0.6475051 α      lambda       -0.8910961E-03
   maximum displ.:     0.3713334 α      in ANC's #9, #5, #11, ...

........................................................................
.............................. CYCLE   52 ..............................
........................................................................
   1   -211.0353295 -0.211035E+03  0.150E-01    0.40       0.0  T
   2   -211.0353004  0.290911E-04  0.831E-02    0.40       1.0  T
   3   -211.0332686  0.203183E-02  0.971E-02    0.41       1.0  T
   4   -211.0350203 -0.175174E-02  0.412E-02    0.40       1.0  T
   5   -211.0353616 -0.341226E-03  0.118E-02    0.40       1.0  T
   6   -211.0353706 -0.904963E-05  0.609E-03    0.40       1.6  T
   7   -211.0353760 -0.539532E-05  0.187E-03    0.40       5.1  T
   8   -211.0353764 -0.344273E-06  0.117E-03    0.40       8.2  T
   9   -211.0353765 -0.131709E-06  0.679E-04    0.40      14.2  T
     SCC iter.                  ...        0 min,  0.445 sec
     gradient                   ...        0 min,  0.038 sec
 * total energy  :  -207.4838245 Eh     change       -0.7163745E-03 Eh
   gradient norm :     0.0069879 Eh/α   predicted    -0.6323530E-03 ( -11.73%)
   displ. norm   :     0.7540194 α      lambda       -0.8574676E-03
   maximum displ.:     0.4363208 α      in ANC's #9, #5, #11, ...

........................................................................
.............................. CYCLE   53 ..............................
........................................................................
   1   -211.0323589 -0.211032E+03  0.170E-01    0.40       0.0  T
   2   -211.0322862  0.726961E-04  0.943E-02    0.40       1.0  T
   3   -211.0281670  0.411922E-02  0.136E-01    0.42       1.0  T
   4   -211.0321573 -0.399028E-02  0.378E-02    0.40       1.0  T
   5   -211.0324013 -0.244018E-03  0.133E-02    0.40       1.0  T
   6   -211.0324127 -0.113521E-04  0.653E-03    0.40       1.5  T
   7   -211.0324185 -0.585179E-05  0.177E-03    0.40       5.4  T
   8   -211.0324186 -0.850623E-07  0.114E-03    0.40       8.5  T
   9   -211.0324187 -0.736845E-07  0.760E-04    0.40      12.7  T
     SCC iter.                  ...        0 min,  0.444 sec
     gradient                   ...        0 min,  0.037 sec
 * total energy  :  -207.4845094 Eh     change       -0.6848982E-03 Eh
   gradient norm :     0.0094980 Eh/α   predicted    -0.6724892E-03 (  -1.81%)
   displ. norm   :     0.7322638 α      lambda       -0.8694567E-03
   maximum displ.:     0.4291619 α      in ANC's #9, #5, #1, ...

........................................................................
.............................. CYCLE   54 ..............................
........................................................................
   1   -211.0343454 -0.211034E+03  0.162E-01    0.40       0.0  T
   2   -211.0342868  0.586185E-04  0.893E-02    0.40       1.0  T
   3   -211.0306899  0.359682E-02  0.128E-01    0.42       1.0  T
   4   -211.0342239 -0.353393E-02  0.303E-02    0.40       1.0  T
   5   -211.0343709 -0.147001E-03  0.131E-02    0.40       1.0  T
   6   -211.0343850 -0.141296E-04  0.570E-03    0.40       1.7  T
   7   -211.0343898 -0.475586E-05  0.192E-03    0.40       5.0  T
   8   -211.0343900 -0.274020E-06  0.122E-03    0.40       7.9  T
   9   -211.0343902 -0.200550E-06  0.675E-04    0.40      14.3  T
     SCC iter.                  ...        0 min,  0.635 sec
     gradient                   ...        0 min,  0.039 sec
 * total energy  :  -207.4852348 Eh     change       -0.7254389E-03 Eh
[...]
    39   6 C      3.006     0.041    27.071     8.535
    40  16 S      2.212     0.004   140.878    19.977
    41   6 C      3.122     0.023    27.313     8.559
    42   6 C      3.237     0.053    25.958     8.265
    43   6 C      3.019    -0.053    29.293     8.878
    44   7 N      2.773    -0.096    23.109     7.140
    45   6 C      3.089     0.063    26.482     8.435
    46   6 C      3.004    -0.062    29.519     8.912
    47   6 C      2.896    -0.041    29.015     8.832
    48   6 C      2.962    -0.032    28.787     8.800
    49   6 C      2.974     0.006    27.872     8.660
    50  16 S      2.442     0.121   136.210    19.643
    51   6 C      2.965     0.015    27.664     8.627
    52   6 C      3.137     0.005    27.681     8.611
    53   6 C      3.117     0.004    27.759     8.630
    54   6 C      2.923    -0.022    28.556     8.763
    55   6 C      2.976     0.024    27.455     8.595
    56   6 C      1.912     0.112    28.329     8.596
    57   7 N      0.911    -0.210    25.576     7.314
    58   6 C      2.975     0.030    27.320     8.574
    59   6 C      1.911     0.114    28.285     8.589
    60   7 N      0.911    -0.198    25.311     7.276
    61   6 C      2.920    -0.021    28.521     8.758
    62   6 C      2.920    -0.020    28.507     8.756
    63   6 C      3.009    -0.031    28.767     8.798
    64   6 C      3.014     0.028    27.353     8.579
    65   6 C      2.947     0.005    27.905     8.664
    66   6 C      1.943     0.124    28.042     8.552
    67   7 N      0.911    -0.229    26.016     7.377
    68   6 C      1.942     0.123    28.063     8.555
    69   7 N      0.911    -0.241    26.297     7.417
    70   6 C      3.029     0.002    27.957     8.673
    71   6 C      3.035    -0.021    28.503     8.757
    72   6 C      2.871     0.223    23.318     7.916
    73   8 O      0.993    -0.362    20.872     6.129
    74   6 C      2.912    -0.017    28.424     8.742
    75   6 C      2.988     0.019    27.573     8.614
    76   6 C      2.987     0.021    27.527     8.606
    77   6 C      2.915    -0.030    28.741     8.791
    78   6 C      2.919    -0.029    28.715     8.787
    79   6 C      2.916    -0.021    28.529     8.759
    80   6 C      2.916    -0.021    28.541     8.761
    81   6 C      2.918    -0.029    28.718     8.788
    82   1 H      0.926     0.063     2.160     2.298
    83   1 H      0.926     0.052     2.295     2.369
    84   1 H      0.926     0.056     2.242     2.342
    85   1 H      0.926     0.048     2.346     2.395
    86   1 H      0.926     0.045     2.382     2.413
    87   1 H      0.926     0.046     2.370     2.408
    88   1 H      0.925     0.115     1.658     2.013
    89   1 H      0.926     0.078     1.995     2.209
    90   1 H      0.926     0.053     2.285     2.364
    91   1 H      0.926     0.044     2.402     2.423
    92   1 H      0.926     0.069     2.097     2.265
    93   1 H      0.925     0.067     2.120     2.277
    94   1 H      0.925     0.118     1.628     1.995
    95   1 H      0.926     0.071     2.075     2.253
    96   1 H      0.860     0.181     1.207     1.721
    97   1 H      0.927     0.063     2.166     2.301
    98   1 H      0.926     0.053     2.286     2.365
    99   1 H      0.925     0.066     2.135     2.285
   100   1 H      0.926     0.050     2.322     2.383
   101   1 H      0.926     0.065     2.141     2.288
   102   1 H      0.926     0.071     2.076     2.253
   103   1 H      0.926     0.061     2.182     2.310
   104   1 H      0.926     0.059     2.211     2.325
   105   1 H      0.926     0.050     2.322     2.383
   106   1 H      0.926     0.047     2.359     2.402
   107   1 H      0.926     0.046     2.368     2.406
   108   1 H      0.926     0.047     2.361     2.403

 Mol. C6AA /au·bohr⁶  :     222332.984785
 Mol. C8AA /au·bohr⁸  :    5980169.340999
 Mol. α(0) /au        :        755.382169


Wiberg/Mayer (AO) data.
largest (>0.10) Wiberg bond orders for each atom
          total WBO             WBO to atom ...
     1  C   3.976        C    2 1.489    C   19 1.107    C    7 1.093
     2  C   3.964        C    1 1.489    C    3 1.101    C    5 1.096
     3  C   3.946        N    4 2.760    C    2 1.101
     4  N   2.974        C    3 2.760
     5  C   3.947        N    6 2.765    C    2 1.096
     6  N   2.980        C    5 2.765
     7  C   3.980        C   12 1.492    C    8 1.191    C    1 1.093
     8  C   3.976        C    9 1.520    C    7 1.191    C   17 1.022
     9  C   3.982        C    8 1.520    C   10 1.272    H   82 0.963
    10  C   3.977        C   16 1.291    C    9 1.272    C   11 1.234
    11  C   3.982        C   13 1.285    C   12 1.281    C   10 1.234
    12  C   3.974        C    7 1.492    C   11 1.281    H   83 0.960
    13  C   3.977        C   14 1.546    C   11 1.285    H   84 0.966    C   16 0.112
    14  C   3.980        C   13 1.546    C   15 1.326    H   85 0.970
    15  C   3.973        C   16 1.542    C   14 1.326    H   86 0.970
    16  C   3.981        C   15 1.542    C   10 1.291    H   87 0.967    C   13 0.112
    17  C   3.926        O   18 1.795    C    8 1.022    C   19 0.992
    18  O   2.064        C   17 1.795
    19  C   3.955        C   20 1.593    C    1 1.107    C   17 0.992
    20  C   3.954        C   19 1.593    C   21 1.194    H   88 0.927
    21  C   3.946        C   22 1.417    C   20 1.194    C   28 1.074
    22  C   3.901        C   21 1.417    C   26 1.170    N   23 1.026
    23  N   3.912        O   24 1.424    O   25 1.416    C   22 1.026
    24  O   1.889        N   23 1.424    O   25 0.344
    25  O   1.900        N   23 1.416    O   24 0.344
    26  C   3.899        C   27 1.602    C   22 1.170    H   89 0.966
    27  C   3.964        C   26 1.602    C   28 1.205    H   90 0.967
    28  C   3.926        C   29 1.392    C   27 1.205    C   21 1.074
    29  C   3.951        C   28 1.392    C   30 1.251    C   36 1.045
    30  C   3.951        C   31 1.550    C   29 1.251    H   91 0.970
    31  C   3.917        C   30 1.550    C   32 1.205    H   92 0.968
    32  C   3.877        C   36 1.335    C   31 1.205    N   33 1.057
    33  N   3.902        O   35 1.403    O   34 1.384    C   32 1.057
    34  O   1.876        N   33 1.384    O   35 0.315
    35  O   1.871        N   33 1.403    O   34 0.315
    36  C   3.946        C   32 1.335    C   37 1.331    C   29 1.045
    37  C   3.962        C   38 1.465    C   36 1.331    H   93 0.944
    38  C   3.925        C   37 1.465    C   39 1.321    H   94 0.924
    39  C   3.911        C   43 1.357    C   38 1.321    S   40 1.078
    40  S   2.537        C   41 1.140    C   39 1.078
    41  C   3.908        C   46 1.424    C   42 1.190    S   40 1.140
    42  C   3.913        C   43 1.373    C   41 1.190    N   44 1.187
    43  C   3.915        C   42 1.373    C   39 1.357    H   95 0.959
    44  N   3.535        C   42 1.187    C   45 1.173    H   96 0.937
    45  C   3.886        C   46 1.327    C   47 1.230    N   44 1.173
    46  C   3.932        C   41 1.424    C   45 1.327    H   97 0.969
    47  C   3.931        C   48 1.566    C   45 1.230    H   98 0.954
    48  C   3.919        C   47 1.566    C   49 1.260    H   99 0.955
    49  C   3.923        C   48 1.260    C   53 1.246    S   50 1.205
    50  S   2.839        C   49 1.205    C   51 1.163    O   73 0.157
    51  C   3.907        C   62 1.325    C   52 1.229    S   50 1.163
    52  C   3.961        C   61 1.315    C   51 1.229    C   53 1.218
    53  C   3.954        C   54 1.310    C   49 1.246    C   52 1.218
    54  C   3.981        C   55 1.455    C   53 1.310    H  100 0.960
    55  C   3.973        C   54 1.455    C   58 1.206    C   56 1.095
    56  C   3.947        N   57 2.809    C   55 1.095
    57  N   2.980        C   56 2.809
    58  C   3.966        C   61 1.457    C   55 1.206    C   59 1.092
    59  C   3.948        N   60 2.814    C   58 1.092
    60  N   2.983        C   59 2.814
    61  C   3.978        C   58 1.457    C   52 1.315    H  101 0.957
    62  C   3.954        C   63 1.483    C   51 1.325    H  102 0.932
    63  C   3.921        C   62 1.483    C   64 1.140    C   72 1.064
    64  C   3.971        C   65 1.479    C   63 1.140    C   70 1.091
    65  C   3.919        C   64 1.479    C   68 1.101    C   66 1.095
    66  C   3.946        N   67 2.766    C   65 1.095
    67  N   2.970        C   66 2.766
    68  C   3.944        N   69 2.748    C   65 1.101
    69  N   2.961        C   68 2.748
    70  C   3.981        C   77 1.504    C   71 1.193    C   64 1.091
    71  C   3.979        C   74 1.518    C   70 1.193    C   72 1.040
    72  C   3.915        O   73 1.689    C   63 1.064    C   71 1.040
    73  O   2.110        C   72 1.689    S   50 0.157
    74  C   3.976        C   71 1.518    C   75 1.270    H  103 0.963
    75  C   3.979        C   81 1.291    C   74 1.270    C   76 1.238
    76  C   3.982        C   78 1.290    C   77 1.273    C   75 1.238
    77  C   3.970        C   70 1.504    C   76 1.273    H  104 0.958
    78  C   3.978        C   79 1.541    C   76 1.290    H  105 0.967    C   81 0.111
    79  C   3.978        C   78 1.541    C   80 1.329    H  106 0.970
    80  C   3.975        C   81 1.540    C   79 1.329    H  107 0.970
    81  C   3.980        C   80 1.540    C   75 1.291    H  108 0.967    C   78 0.111
    82  H   0.995        C    9 0.963
    83  H   0.996        C   12 0.960
    84  H   0.996        C   13 0.966
    85  H   0.997        C   14 0.970
    86  H   0.997        C   15 0.970
    87  H   0.997        C   16 0.967
    88  H   0.982        C   20 0.927
    89  H   0.992        C   26 0.966
    90  H   0.996        C   27 0.967
    91  H   0.997        C   30 0.970
    92  H   0.994        C   31 0.968
    93  H   0.995        C   37 0.944
    94  H   0.986        C   38 0.924
    95  H   0.995        C   43 0.959
    96  H   0.967        N   44 0.937
    97  H   0.996        C   46 0.969
    98  H   0.996        C   47 0.954
    99  H   0.994        C   48 0.955
   100  H   0.996        C   54 0.960
   101  H   0.994        C   61 0.957
   102  H   0.994        C   62 0.932
   103  H   0.995        C   74 0.963
   104  H   0.996        C   77 0.958
   105  H   0.997        C   78 0.967
   106  H   0.997        C   79 0.970
   107  H   0.997        C   80 0.970
   108  H   0.997        C   81 0.967

molecular dipole:
                 x           y           z       tot (Debye)
 q only:       -1.174       0.676       1.504
   full:       -1.192      -0.300       1.539       5.008
molecular quadrupole (traceless):
                xx          xy          yy          xz          yz          zz
 q only:      114.438     -41.451    -106.971       1.487     -45.232      -7.467
  q+dip:      159.965     -44.440    -171.728       4.710     -39.656      11.763
   full:      153.650     -43.957    -180.241      -2.695     -49.705      26.591

           -------------------------------------------------
          |                Geometry Summary                 |
           -------------------------------------------------

      molecular mass/u    :     1082.0940000
   center of mass at/Å    :       -2.4514659      11.2164289      -2.4131718
  moments of inertia/u·Å² :        0.1436024E+05   0.7407418E+05   0.8194365E+05
rotational constants/cm⁻¹ :        0.1173910E-02   0.2275777E-03   0.2057223E-03

 * 102 selected distances

     #   Z        #   Z                                     value/Å
     1   6 C      2   6 C                                 1.3680753
     3   6 C      4   7 N                                 1.1485342
     5   6 C      6   7 N                                 1.1477793
     7   6 C      8   6 C                                 1.4263470
     8   6 C      9   6 C                                 1.3651338
     9   6 C     10   6 C                                 1.4133995
    10   6 C     11   6 C                                 1.4262778
     7   6 C     12   6 C                                 1.3696609
    11   6 C     12   6 C                                 1.4121263
    11   6 C     13   6 C                                 1.4095756
    13   6 C     14   6 C                                 1.3681327
    14   6 C     15   6 C                                 1.4031027
    10   6 C     16   6 C                                 1.4086154
    15   6 C     16   6 C                                 1.3687833
    17   6 C     18   8 O                                 1.2065739
    19   6 C     20   6 C                                 1.3577465
    20   6 C     21   6 C                                 1.4221531
    21   6 C     22   6 C                                 1.3870642
    22   6 C     23   7 N                                 1.4080122
    23   7 N     24   8 O                                 1.2171497
    23   7 N     25   8 O                                 1.2187449
    22   6 C     26   6 C                                 1.4338304
    26   6 C     27   6 C                                 1.3619679
    27   6 C     28   6 C                                 1.4298681
    28   6 C     29   6 C                                 1.3871387
    29   6 C     30   6 C                                 1.4183400
    30   6 C     31   6 C                                 1.3657074
    31   6 C     32   6 C                                 1.4284399
    32   6 C     33   7 N                                 1.3986668
    33   7 N     34   8 O                                 1.2241080
    33   7 N     35   8 O                                 1.2227184
    32   6 C     36   6 C                                 1.4063875
    36   6 C     37   6 C                                 1.3991777
    37   6 C     38   6 C                                 1.3752709
    38   6 C     39   6 C                                 1.3960430
    40  16 S     41   6 C                                 1.7201614
    41   6 C     42   6 C                                 1.4249898
    39   6 C     43   6 C                                 1.3980672
    42   6 C     43   6 C                                 1.3810577
    42   6 C     44   7 N                                 1.3583115
    44   7 N     45   6 C                                 1.3764340
    41   6 C     46   6 C                                 1.3833560
    45   6 C     46   6 C                                 1.4067130
    45   6 C     47   6 C                                 1.4130041
    47   6 C     48   6 C                                 1.3629215
    48   6 C     49   6 C                                 1.4113512
    49   6 C     50  16 S                                 1.7311560
    50  16 S     51   6 C                                 1.7346396 (max)
    51   6 C     52   6 C                                 1.4226461
    49   6 C     53   6 C                                 1.4145331
    52   6 C     53   6 C                                 1.4267334
    53   6 C     54   6 C                                 1.4011095
    54   6 C     55   6 C                                 1.3789854
    56   6 C     57   7 N                                 1.1455597
    55   6 C     58   6 C                                 1.4219547
    59   6 C     60   7 N                                 1.1448931
    52   6 C     61   6 C                                 1.4021291
    58   6 C     61   6 C                                 1.3791215
    51   6 C     62   6 C                                 1.3979331
    62   6 C     63   6 C                                 1.3735138
    64   6 C     65   6 C                                 1.3726654
    66   6 C     67   7 N                                 1.1478423
    68   6 C     69   7 N                                 1.1493545
    70   6 C     71   6 C                                 1.4257765
    72   6 C     73   8 O                                 1.2215780
    71   6 C     74   6 C                                 1.3652627
    74   6 C     75   6 C                                 1.4129321
    75   6 C     76   6 C                                 1.4250035
    70   6 C     77   6 C                                 1.3692222
    76   6 C     77   6 C                                 1.4145701
    76   6 C     78   6 C                                 1.4091887
    78   6 C     79   6 C                                 1.3689323
    79   6 C     80   6 C                                 1.4025587
    75   6 C     81   6 C                                 1.4083909
    80   6 C     81   6 C                                 1.3690460
     9   6 C     82   1 H                                 1.0798809
    12   6 C     83   1 H                                 1.0791038
    13   6 C     84   1 H                                 1.0792483
    14   6 C     85   1 H                                 1.0794294
    15   6 C     86   1 H                                 1.0797929
    16   6 C     87   1 H                                 1.0802236
    20   6 C     88   1 H                                 1.0867835
    26   6 C     89   1 H                                 1.0729462
    27   6 C     90   1 H                                 1.0733593
    30   6 C     91   1 H                                 1.0729857
    31   6 C     92   1 H                                 1.0741304
    37   6 C     93   1 H                                 1.0839757
    38   6 C     94   1 H                                 1.0815902
    43   6 C     95   1 H                                 1.0742517
    44   7 N     96   1 H                                 1.0065942 (min)
    46   6 C     97   1 H                                 1.0702553
    47   6 C     98   1 H                                 1.0807638
    48   6 C     99   1 H                                 1.0818643
    54   6 C    100   1 H                                 1.0776524
    61   6 C    101   1 H                                 1.0796844
    62   6 C    102   1 H                                 1.0804904
    74   6 C    103   1 H                                 1.0799107
    77   6 C    104   1 H                                 1.0782317
    78   6 C    105   1 H                                 1.0800616
    79   6 C    106   1 H                                 1.0795633
    80   6 C    107   1 H                                 1.0795949
    81   6 C    108   1 H                                 1.0801286

 * 7 distinct bonds (by element types)

   Z      Z             #   av. dist./Å        max./Å        min./Å
   1 H    6 C          26     1.0786886     1.0867835     1.0702553
   6 C    6 C          56     1.3973578     1.4338304     1.3577465
   1 H    7 N           1     1.0065942     1.0065942     1.0065942
   6 C    7 N          10     1.2425388     1.4080122     1.1448931
   6 C    8 O           2     1.2140760     1.2215780     1.2065739
   7 N    8 O           4     1.2206802     1.2241080     1.2171497
   6 C   16 S           3     1.7286523     1.7346396     1.7201614


optimized geometry written to: xtbopt.xyz


           -------------------------------------------------
          | TOTAL ENERGY             -207.493503559835 Eh   |
          | GRADIENT NORM               0.000913413208 Eh/α |
          | HOMO-LUMO GAP               0.395990082314 eV   |
           -------------------------------------------------

------------------------------------------------------------------------
 * finished run on 2021/09/15 at 10:17:54.283     
------------------------------------------------------------------------
 total:
 * wall-time:     0 d,  0 h,  1 min, 26.135 sec
 *  cpu-time:     0 d,  0 h, 12 min, 57.539 sec
 * ratio c/w:     9.027 speedup
 SCF:
 * wall-time:     0 d,  0 h,  0 min,  1.085 sec
 *  cpu-time:     0 d,  0 h,  0 min,  9.732 sec
 * ratio c/w:     8.974 speedup
 ANC optimizer:
 * wall-time:     0 d,  0 h,  1 min, 24.965 sec
 *  cpu-time:     0 d,  0 h, 12 min, 47.162 sec
 * ratio c/w:     9.029 speedup

