      -----------------------------------------------------------      
     |                   =====================                   |     
     |                           x T B                           |     
     |                   =====================                   |     
     |                         S. Grimme                         |     
     |          Mulliken Center for Theoretical Chemistry        |     
     |                    University of Bonn                     |     
     |                Version 6.2 RC2 (SAW190805)                |     
      -----------------------------------------------------------      

   This program is distributed in the hope that it will be useful,
   but WITHOUT ANY WARRANTY; without even the implied warranty of
   MERCHANTABILITY or FITNESS FOR A PARTICULAR PURPOSE.
   
   FOR NON-COMMERCIAL, ACADEMIA USE ONLY.
   
   Cite this work as:
   * S. Grimme, C. Bannwarth, P. Shushkov, J. Chem. Theory Comput., 2017,
     13, 1989-2009. DOI: 10.1021/acs.jctc.7b00118
   * C. Bannwarth, S. Ehlert and S. Grimme., J. Chem. Theory Comput., 2019,
     15, 1652-1671. DOI: 10.1021/acs.jctc.8b01176
   * P. Pracht, E. Caldeweyher, S. Ehlert, S. Grimme, ChemRxiv, 2019, preprint.
     DOI: 10.26434/chemrxiv.8326202.v1
   
   for DFT-D4:
   * E. Caldeweyher, C. Bannwarth and S. Grimme, J. Chem. Phys., 2017,
     147, 034112. DOI: 10.1063/1.4993215
   * E. Caldeweyher, S. Ehlert, A. Hansen, H. Neugebauer, S. Spicher,
     C. Bannwarth and S. Grimme, J. Chem. Phys., 2019, 150, 154122.
     DOI: 10.1063/1.5090222
   
   for sTDA-xTB:
   * S. Grimme and C. Bannwarth, J. Chem. Phys., 2016, 145, 054103.
     DOI: 10.1063/1.4959605
   
   in the mass-spec context:
   * V. Asgeirsson, C. Bauer and S. Grimme, Chem. Sci., 2017, 8, 4879.
     DOI: 10.1039/c7sc00601b
   
   for metadynamics refer to:
   * S. Grimme, J. Chem. Theory Comput., 2019, 155, 2847-2862
     DOI: 10.1021/acs.jctc.9b00143
   
   with help from (in alphabetical order)
   C. Bannwarth, F. Bohle, G. Brandenburg, E. Caldeweyher, M. Checinski,
   S. Dohm, S. Ehlert, S. Ehrlich, F. März, H. Neugebauer, J. Pisarek,
   P. Pracht, P. Shushkov, and S. Spicher.
   
 * started run on 2021/09/14 at 13:17:53.263     

           -------------------------------------------------
          |                Calculation Setup                |
           -------------------------------------------------

          program call               : /ihome/ghutchison/geoffh/xtb/xtb /ihome/ghutchison/blp62/GA/running_GA/v5/generations/39/279_110_580_110_279_13031.xyz -opt
          hostname                   : smp-n120
          coordinate file            : /ihome/ghutchison/blp62/GA/running_GA/v5/generations/39/279_110_580_110_279_13031.xyz
          omp threads                :                    12
          number of atoms            :                   112
          number of electrons        :                   380
          charge                     :                     0
          spin                       :                   0.0
          first test random number   :      0.47843376624718


########################################################################
# WARNING! Please study the warnings concerning your input carefully
#  - XTBPATH is not set, using XTBHOME instead
#  - the use of '-opt' is discouraged, please use '--opt' next time
########################################################################

           ------------------------------------------------- 
          |                 G F N 2 - x T B                 |
          | Geometry, Frequencies, Noncovalent interactions |
          |            JCTC 2019 parametrisation            |
           ------------------------------------------------- 
             KAB for C  - Si     :                1.0500
             KAB for H  - Pd     :                0.9500
             k(s)              :                1.8500
             k(p)              :                2.2300
             k(d)              :                2.2300
             k(f)              :                2.0000
             kEN (H0ij)        :               -2.0000
             D4 a1             :                0.5200
             D4 a2             :                5.0000
             D4 s6             :                1.0000
             D4 s8             :                2.7000
             D4 s9             :                5.0000
             alphaj            :                2.0000

  Z AO/shell   Hii/eV     exponent
  1     Wed Apr 25 08:07:45 CEST 2018   EN: 2.200 GM2: 0.406  GM3: 0.0800  RAES: 1.40
     1s    -10.707211    1.230000
  6     Wed Apr 25 08:07:45 CEST 2018   EN: 2.550 GM2: 0.538  GM3: 0.1500  RAES: 3.00
     2s    -13.970922    2.096432
     2p    -10.063292    1.800000
  7     Wed Apr 25 08:07:45 CEST 2018   EN: 3.040 GM2: 0.461  GM3:-0.0640  RAES: 1.90
     2s    -16.686243    2.339881
     2p    -12.523956    2.014332
  8     Wed Apr 25 08:07:45 CEST 2018   EN: 3.440 GM2: 0.452  GM3:-0.0517  RAES: 1.80
     2s    -20.229985    2.439742
     2p    -15.503117    2.137023
 16     Tue Apr 24 11:44:34 CEST 2018   EN: 2.580 GM2: 0.340  GM3:-0.0502  RAES: 3.10
     3s    -20.029654    1.981333
     3p    -11.377694    2.025643
     3d     -0.420282    1.702555

           ------------------------------------------------- 
          |        Self-Consistent Charge Iterations        |
           ------------------------------------------------- 

          ...................................................
          :                      SETUP                      :
          :.................................................:
          :  # basis functions                 370          :
          :  # atomic orbitals                 368          :
          :  # shells                          196          :
          :  # electrons                       380          :
          :  max. iterations                   250          :
          :  Hamiltonian                  GFN2-xTB          :
          :  restarted?                      false          :
          :  GBSA solvation                  false          :
          :  PC potential                    false          :
          :  electronic temp.          300.0000000     K    :
          :  accuracy                    1.0000000          :
          :  -> integral cutoff          0.2500000E+02      :
          :  -> integral neglect         0.1000000E-07      :
          :  -> SCF convergence          0.1000000E-05 Eh   :
          :  -> wf. convergence          0.1000000E-03 e    :
          :  Broyden damping             0.4000000          :
          ...................................................

 iter      E             dE          RMSdq      gap      omega  full diag
   1   -211.3638632 -0.211364E+03  0.554E+00    1.43       0.0  T
   2   -211.4281670 -0.643038E-01  0.368E+00    1.22       1.0  T
   3   -211.3004426  0.127724E+00  0.258E+00    1.08       1.0  T
   4   -211.7494929 -0.449050E+00  0.694E-01    1.14       1.0  T
   5   -211.7925975 -0.431046E-01  0.224E-01    1.08       1.0  T
   6   -211.7940281 -0.143062E-02  0.143E-01    1.10       1.0  T
   7   -211.7955533 -0.152514E-02  0.766E-02    1.15       1.0  T
   8   -211.7961218 -0.568584E-03  0.262E-02    1.13       1.0  T
   9   -211.7961544 -0.325686E-04  0.131E-02    1.13       1.0  T
  10   -211.7961655 -0.110817E-04  0.553E-03    1.13       1.7  T
  11   -211.7961674 -0.188315E-05  0.262E-03    1.13       3.6  T
  12   -211.7961676 -0.193685E-06  0.181E-03    1.13       5.2  T
  13   -211.7961679 -0.299730E-06  0.769E-04    1.13      12.3  T
  14   -211.7961679 -0.277467E-08  0.537E-04    1.13      17.6  T

   *** convergence criteria satisfied after 14 iterations ***

         #    Occupation            Energy/Eh            Energy/eV
      -------------------------------------------------------------
         1        2.0000           -0.7752012             -21.0943
       ...           ...                  ...                  ...
       184        2.0000           -0.4209334             -11.4542
       185        2.0000           -0.4189226             -11.3995
       186        2.0000           -0.4161521             -11.3241
       187        2.0000           -0.4128888             -11.2353
       188        2.0000           -0.4023931             -10.9497
       189        2.0000           -0.3991737             -10.8621
       190        2.0000           -0.3902961             -10.6205 (HOMO)
       191                         -0.3487931              -9.4911 (LUMO)
       192                         -0.3466707              -9.4334
       193                         -0.3341645              -9.0931
       194                         -0.3311124              -9.0100
       195                         -0.3294990              -8.9661
       ...                                ...                  ...
       368                          1.0851917              29.5296
      -------------------------------------------------------------
                  HL-Gap            0.0415029 Eh            1.1294 eV
             Fermi-level           -0.3695929 Eh          -10.0571 eV

 SCC (total)                   0 d,  0 h,  0 min,  0.256 sec
 SCC setup                      ...        0 min,  0.003 sec (  1.012%)
 Dispersion                     ...        0 min,  0.007 sec (  2.746%)
 integral evaluation            ...        0 min,  0.025 sec (  9.834%)
 zeroth order Hamiltonian       ...        0 min,  0.002 sec (  0.602%)
 iterations                     ...        0 min,  0.194 sec ( 75.739%)
 molecular gradient             ...        0 min,  0.025 sec (  9.563%)
 printout                       ...        0 min,  0.001 sec (  0.463%)

         :::::::::::::::::::::::::::::::::::::::::::::::::::::
         ::                     SUMMARY                     ::
         :::::::::::::::::::::::::::::::::::::::::::::::::::::
         :: total energy            -208.218465720249 Eh    ::
         :: gradient norm              0.217994370856 Eh/a0 ::
         :: HOMO-LUMO gap              1.129352710017 eV    ::
         ::.................................................::
         :: SCC energy              -211.796167867564 Eh    ::
         :: -> isotropic ES            0.182054534670 Eh    ::
         :: -> anisotropic ES          0.012856297050 Eh    ::
         :: -> anisotropic XC          0.200639271778 Eh    ::
         :: -> dispersion             -0.169890229893 Eh    ::
         :: repulsion energy           3.576693886266 Eh    ::
         :: add. restraining           0.000000000000 Eh    ::
         :::::::::::::::::::::::::::::::::::::::::::::::::::::

      ----------------------------------------------------------- 
     |                   =====================                   |
     |                        A N C O P T                        |
     |                   =====================                   |
     |               Approximate Normal Coordinate               |
     |                Rational Function Optimizer                |
      ----------------------------------------------------------- 

          ...................................................
          :                      SETUP                      :
          :.................................................:
          :   optimization level            normal          :
          :   max. optcycles                   336          :
          :   ANC micro-cycles                  20          :
          :   degrees of freedom               330          :
          :.................................................:
          :   RF solver                   davidson          :
          :   input Hessian                  false          :
          :   write xtbopt.log                true          :
          :   linear?                        false          :
          :   energy convergence         0.5000000E-05 Eh   :
          :   grad. convergence          0.1000000E-02 Eh/α :
          :   maximium RF displ.         2.0000000          :
          :   Hlow (freq-cutoff)         0.5000000E-02      :
          :   Hmax (freq-cutoff)         5.0000000          :
          :   S6 in model hess.         20.0000000          :
          ...................................................

generating ANC from model Hessian ...
Using Lindh-Hessian (1995)
 Shifting diagonal of input Hessian by   4.992056105357336E-003
 Lowest  eigenvalues of input Hessian
   -0.000000   -0.000000   -0.000000    0.000000    0.000000    0.000000
    0.005000    0.005009    0.005024    0.005037    0.005062    0.005069
    0.005090    0.005095    0.005106    0.005154    0.005186    0.005256
 Highest eigenvalues
    2.508458    2.513338    2.514145    2.514682    2.574548    2.586611
 

........................................................................
.............................. CYCLE    1 ..............................
........................................................................
   1   -211.7961679 -0.211796E+03  0.176E-04    1.13       0.0  T
   2   -211.7961679  0.590461E-09  0.157E-04    1.13      60.1  T
   3   -211.7961679 -0.199844E-08  0.818E-05    1.13     115.5  T
     SCC iter.                  ...        0 min,  0.043 sec
     gradient                   ...        0 min,  0.025 sec
 * total energy  :  -208.2184655 Eh     change        0.2466518E-06 Eh
   gradient norm :     0.2179967 Eh/α   predicted     0.0000000E+00 (-100.00%)
   displ. norm   :     0.4404175 α      lambda       -0.5605092E-01
   maximum displ.:     0.0938834 α      in ANC's #160, #135, #140, ...

........................................................................
.............................. CYCLE    2 ..............................
........................................................................
   1   -211.9709375 -0.211971E+03  0.268E-01    1.11       0.0  T
   2   -211.9710348 -0.973621E-04  0.156E-01    1.11       1.0  T
   3   -211.9694877  0.154711E-02  0.129E-01    1.09       1.0  T
   4   -211.9715265 -0.203879E-02  0.363E-02    1.11       1.0  T
   5   -211.9715987 -0.722263E-04  0.231E-02    1.10       1.0  T
   6   -211.9716428 -0.441036E-04  0.902E-03    1.10       1.0  T
   7   -211.9716487 -0.589570E-05  0.245E-03    1.10       3.9  T
   8   -211.9716492 -0.486657E-06  0.104E-03    1.10       9.1  T
     SCC iter.                  ...        0 min,  0.113 sec
     gradient                   ...        0 min,  0.024 sec
 * total energy  :  -208.2572363 Eh     change       -0.3877081E-01 Eh
   gradient norm :     0.0967328 Eh/α   predicted    -0.3346159E-01 ( -13.69%)
   displ. norm   :     0.4718532 α      lambda       -0.2203919E-01
   maximum displ.:     0.1107425 α      in ANC's #72, #68, #39, ...

........................................................................
.............................. CYCLE    3 ..............................
........................................................................
   1   -212.0231155 -0.212023E+03  0.277E-01    1.06       0.0  T
   2   -212.0232830 -0.167537E-03  0.148E-01    1.07       1.0  T
   3   -212.0222495  0.103354E-02  0.980E-02    1.06       1.0  T
   4   -212.0234104 -0.116097E-02  0.321E-02    1.07       1.0  T
   5   -212.0234581 -0.477204E-04  0.191E-02    1.06       1.0  T
   6   -212.0234809 -0.227939E-04  0.901E-03    1.07       1.0  T
   7   -212.0234893 -0.835535E-05  0.212E-03    1.07       4.5  T
   8   -212.0234896 -0.322783E-06  0.991E-04    1.06       9.5  T
   9   -212.0234896 -0.792369E-09  0.628E-04    1.06      15.0  T
     SCC iter.                  ...        0 min,  0.122 sec
     gradient                   ...        0 min,  0.024 sec
 * total energy  :  -208.2705805 Eh     change       -0.1334424E-01 Eh
   gradient norm :     0.0305984 Eh/α   predicted    -0.1347307E-01 (   0.97%)
   displ. norm   :     0.5942367 α      lambda       -0.9070887E-02
   maximum displ.:     0.1460313 α      in ANC's #32, #44, #35, ...

........................................................................
.............................. CYCLE    4 ..............................
........................................................................
   1   -212.0122150 -0.212012E+03  0.349E-01    1.02       0.0  T
   2   -212.0123881 -0.173101E-03  0.191E-01    1.05       1.0  T
   3   -212.0114669  0.921140E-03  0.890E-02    1.02       1.0  T
   4   -212.0124880 -0.102110E-02  0.249E-02    1.05       1.0  T
   5   -212.0125084 -0.203770E-04  0.157E-02    1.04       1.0  T
   6   -212.0125290 -0.206442E-04  0.658E-03    1.04       1.4  T
   7   -212.0125333 -0.425924E-05  0.246E-03    1.04       3.8  T
   8   -212.0125336 -0.304346E-06  0.120E-03    1.04       7.9  T
     SCC iter.                  ...        0 min,  0.110 sec
     gradient                   ...        0 min,  0.024 sec
 * total energy  :  -208.2716413 Eh     change       -0.1060806E-02 Eh
   gradient norm :     0.0550008 Eh/α   predicted    -0.6137037E-02 ( 478.53%)
   displ. norm   :     0.4634770 α      lambda       -0.1110000E-01
   maximum displ.:     0.1284517 α      in ANC's #13, #32, #46, ...

........................................................................
.............................. CYCLE    5 ..............................
........................................................................
   1   -212.0317438 -0.212032E+03  0.292E-01    1.02       0.0  T
   2   -212.0318588 -0.114919E-03  0.161E-01    1.04       1.0  T
   3   -212.0312080  0.650800E-03  0.728E-02    1.03       1.0  T
   4   -212.0319393 -0.731352E-03  0.168E-02    1.04       1.0  T
   5   -212.0319569 -0.176241E-04  0.101E-02    1.04       1.0  T
   6   -212.0319651 -0.814199E-05  0.464E-03    1.04       2.0  T
   7   -212.0319672 -0.207978E-05  0.176E-03    1.04       5.4  T
   8   -212.0319673 -0.169104E-06  0.887E-04    1.04      10.7  T
     SCC iter.                  ...        0 min,  0.112 sec
     gradient                   ...        0 min,  0.024 sec
 * total energy  :  -208.2775132 Eh     change       -0.5871908E-02 Eh
   gradient norm :     0.0303286 Eh/α   predicted    -0.6742229E-02 (  14.82%)
   displ. norm   :     0.4623280 α      lambda       -0.4285082E-02
   maximum displ.:     0.1750100 α      in ANC's #32, #45, #13, ...

........................................................................
.............................. CYCLE    6 ..............................
........................................................................
   1   -212.0196732 -0.212020E+03  0.264E-01    1.01       0.0  T
   2   -212.0197534 -0.801936E-04  0.147E-01    1.03       1.0  T
   3   -212.0191124  0.640989E-03  0.707E-02    1.02       1.0  T
   4   -212.0198268 -0.714351E-03  0.128E-02    1.03       1.0  T
   5   -212.0198375 -0.107264E-04  0.785E-03    1.03       1.2  T
   6   -212.0198420 -0.444751E-05  0.386E-03    1.03       2.4  T
   7   -212.0198431 -0.114746E-05  0.153E-03    1.03       6.2  T
     SCC iter.                  ...        0 min,  0.095 sec
     gradient                   ...        0 min,  0.024 sec
 * total energy  :  -208.2786281 Eh     change       -0.1114873E-02 Eh
   gradient norm :     0.0322627 Eh/α   predicted    -0.2600513E-02 ( 133.26%)
   displ. norm   :     0.4796925 α      lambda       -0.5489045E-02
   maximum displ.:     0.1907600 α      in ANC's #41, #13, #36, ...

........................................................................
.............................. CYCLE    7 ..............................
........................................................................
   1   -212.0239884 -0.212024E+03  0.233E-01    0.99       0.0  T
   2   -212.0240535 -0.651446E-04  0.131E-01    1.01       1.0  T
   3   -212.0234474  0.606147E-03  0.692E-02    0.99       1.0  T
   4   -212.0241149 -0.667542E-03  0.127E-02    1.01       1.0  T
   5   -212.0241228 -0.784461E-05  0.836E-03    1.01       1.1  T
   6   -212.0241282 -0.542644E-05  0.422E-03    1.01       2.2  T
   7   -212.0241297 -0.149307E-05  0.141E-03    1.01       6.7  T
     SCC iter.                  ...        0 min,  0.098 sec
     gradient                   ...        0 min,  0.024 sec
 * total energy  :  -208.2813633 Eh     change       -0.2735200E-02 Eh
   gradient norm :     0.0333025 Eh/α   predicted    -0.3376054E-02 (  23.43%)
   displ. norm   :     0.5155492 α      lambda       -0.4339242E-02
   maximum displ.:     0.1673690 α      in ANC's #13, #32, #42, ...

........................................................................
.............................. CYCLE    8 ..............................
........................................................................
   1   -212.0189743 -0.212019E+03  0.297E-01    0.97       0.0  T
   2   -212.0190794 -0.105060E-03  0.164E-01    1.00       1.0  T
   3   -212.0184214  0.657926E-03  0.733E-02    0.97       1.0  T
   4   -212.0191427 -0.721274E-03  0.170E-02    1.00       1.0  T
   5   -212.0191615 -0.188044E-04  0.102E-02    0.99       1.0  T
   6   -212.0191691 -0.761781E-05  0.415E-03    0.99       2.3  T
   7   -212.0191706 -0.142668E-05  0.154E-03    0.99       6.1  T
   8   -212.0191706 -0.587912E-07  0.920E-04    0.99      10.3  T
     SCC iter.                  ...        0 min,  0.108 sec
     gradient                   ...        0 min,  0.024 sec
 * total energy  :  -208.2818575 Eh     change       -0.4942137E-03 Eh
   gradient norm :     0.0354483 Eh/α   predicted    -0.2746286E-02 ( 455.69%)
   displ. norm   :     0.3817370 α      lambda       -0.4917308E-02
   maximum displ.:     0.1578118 α      in ANC's #41, #32, #21, ...

........................................................................
.............................. CYCLE    9 ..............................
........................................................................
   1   -212.0375894 -0.212038E+03  0.224E-01    0.97       0.0  T
   2   -212.0376415 -0.520660E-04  0.124E-01    0.99       1.0  T
   3   -212.0371534  0.488078E-03  0.623E-02    0.97       1.0  T
   4   -212.0376878 -0.534386E-03  0.116E-02    0.99       1.0  T
   5   -212.0376938 -0.597134E-05  0.758E-03    0.98       1.2  T
   6   -212.0376988 -0.498329E-05  0.262E-03    0.98       3.6  T
   7   -212.0376993 -0.532587E-06  0.103E-03    0.98       9.1  T
     SCC iter.                  ...        0 min,  0.095 sec
     gradient                   ...        0 min,  0.024 sec
 * total energy  :  -208.2839982 Eh     change       -0.2140625E-02 Eh
   gradient norm :     0.0320174 Eh/α   predicted    -0.2816938E-02 (  31.59%)
   displ. norm   :     0.4339609 α      lambda       -0.3413545E-02
   maximum displ.:     0.1708088 α      in ANC's #13, #14, #21, ...

........................................................................
.............................. CYCLE   10 ..............................
........................................................................
   1   -212.0278760 -0.212028E+03  0.254E-01    0.96       0.0  T
   2   -212.0279539 -0.778960E-04  0.141E-01    0.97       1.0  T
   3   -212.0274823  0.471679E-03  0.648E-02    0.96       1.0  T
   4   -212.0280157 -0.533434E-03  0.110E-02    0.97       1.0  T
   5   -212.0280235 -0.784603E-05  0.725E-03    0.97       1.3  T
   6   -212.0280277 -0.420483E-05  0.298E-03    0.97       3.2  T
   7   -212.0280284 -0.710486E-06  0.111E-03    0.97       8.5  T
     SCC iter.                  ...        0 min,  0.095 sec
     gradient                   ...        0 min,  0.024 sec
 * total energy  :  -208.2841921 Eh     change       -0.1939049E-03 Eh
   gradient norm :     0.0416412 Eh/α   predicted    -0.2028195E-02 ( 945.97%)
   displ. norm   :     0.3507334 α      lambda       -0.4401173E-02
   maximum displ.:     0.1213728 α      in ANC's #27, #11, #13, ...

........................................................................
.............................. CYCLE   11 ..............................
........................................................................
   1   -212.0388337 -0.212039E+03  0.198E-01    0.94       0.0  T
   2   -212.0388841 -0.503917E-04  0.111E-01    0.95       1.0  T
   3   -212.0385346  0.349474E-03  0.513E-02    0.94       1.0  T
   4   -212.0389153 -0.380727E-03  0.107E-02    0.96       1.0  T
   5   -212.0389271 -0.117172E-04  0.579E-03    0.95       1.6  T
   6   -212.0389295 -0.249299E-05  0.238E-03    0.95       4.0  T
   7   -212.0389299 -0.361990E-06  0.106E-03    0.95       8.9  T
     SCC iter.                  ...        0 min,  0.098 sec
     gradient                   ...        0 min,  0.024 sec
 * total energy  :  -208.2858162 Eh     change       -0.1624179E-02 Eh
   gradient norm :     0.0367888 Eh/α   predicted    -0.2471287E-02 (  52.16%)
   displ. norm   :     0.4171233 α      lambda       -0.3201342E-02
   maximum displ.:     0.1357903 α      in ANC's #13, #20, #24, ...

........................................................................
.............................. CYCLE   12 ..............................
........................................................................
   1   -212.0266510 -0.212027E+03  0.248E-01    0.93       0.0  T
   2   -212.0267220 -0.709254E-04  0.137E-01    0.95       1.0  T
   3   -212.0260640  0.657954E-03  0.700E-02    0.92       1.0  T
   4   -212.0267736 -0.709610E-03  0.149E-02    0.95       1.0  T
   5   -212.0267887 -0.150860E-04  0.872E-03    0.94       1.1  T
   6   -212.0267943 -0.561189E-05  0.353E-03    0.94       2.7  T
   7   -212.0267953 -0.984310E-06  0.132E-03    0.94       7.2  T
     SCC iter.                  ...        0 min,  0.094 sec
     gradient                   ...        0 min,  0.024 sec
 * total energy  :  -208.2856899 Eh     change        0.1263579E-03 Eh
   gradient norm :     0.0459061 Eh/α   predicted    -0.1879179E-02 (*******%)
   displ. norm   :     0.3529757 α      lambda       -0.4685413E-02
   maximum displ.:     0.1345267 α      in ANC's #40, #11, #21, ...

........................................................................
.............................. CYCLE   13 ..............................
........................................................................
   1   -212.0447235 -0.212045E+03  0.236E-01    0.93       0.0  T
   2   -212.0447945 -0.709906E-04  0.130E-01    0.94       1.0  T
   3   -212.0446023  0.192158E-03  0.411E-02    0.93       1.0  T
   4   -212.0448251 -0.222707E-03  0.107E-02    0.94       1.0  T
   5   -212.0448305 -0.547068E-05  0.660E-03    0.93       1.4  T
   6   -212.0448344 -0.389679E-05  0.285E-03    0.94       3.3  T
   7   -212.0448352 -0.762795E-06  0.111E-03    0.94       8.5  T
     SCC iter.                  ...        0 min,  0.095 sec
     gradient                   ...        0 min,  0.024 sec
 * total energy  :  -208.2870449 Eh     change       -0.1355019E-02 Eh
   gradient norm :     0.0337848 Eh/α   predicted    -0.2634595E-02 (  94.43%)
   displ. norm   :     0.3333595 α      lambda       -0.3280669E-02
   maximum displ.:     0.1218608 α      in ANC's #13, #11, #18, ...

........................................................................
.............................. CYCLE   14 ..............................
........................................................................
   1   -212.0409752 -0.212041E+03  0.165E-01    0.92       0.0  T
   2   -212.0410070 -0.318886E-04  0.927E-02    0.92       1.0  T
   3   -212.0408122  0.194869E-03  0.407E-02    0.92       1.0  T
   4   -212.0410257 -0.213558E-03  0.101E-02    0.92       1.0  T
   5   -212.0410300 -0.424768E-05  0.722E-03    0.92       1.3  T
   6   -212.0410347 -0.475302E-05  0.308E-03    0.92       3.1  T
   7   -212.0410356 -0.907505E-06  0.131E-03    0.92       7.2  T
     SCC iter.                  ...        0 min,  0.096 sec
     gradient                   ...        0 min,  0.024 sec
 * total energy  :  -208.2881180 Eh     change       -0.1073080E-02 Eh
   gradient norm :     0.0251961 Eh/α   predicted    -0.1822621E-02 (  69.85%)
   displ. norm   :     0.4453588 α      lambda       -0.2458669E-02
   maximum displ.:     0.1555466 α      in ANC's #24, #13, #11, ...

........................................................................
.............................. CYCLE   15 ..............................
........................................................................
   1   -212.0341024 -0.212034E+03  0.217E-01    0.90       0.0  T
   2   -212.0341546 -0.522378E-04  0.121E-01    0.91       1.0  T
   3   -212.0335644  0.590245E-03  0.665E-02    0.89       1.0  T
   4   -212.0342025 -0.638091E-03  0.124E-02    0.91       1.0  T
   5   -212.0342141 -0.116389E-04  0.773E-03    0.91       1.2  T
   6   -212.0342196 -0.547966E-05  0.283E-03    0.91       3.3  T
   7   -212.0342202 -0.604935E-06  0.119E-03    0.91       8.0  T
     SCC iter.                  ...        0 min,  0.094 sec
     gradient                   ...        0 min,  0.024 sec
 * total energy  :  -208.2878490 Eh     change        0.2689743E-03 Eh
   gradient norm :     0.0528321 Eh/α   predicted    -0.1473168E-02 (-647.70%)
   displ. norm   :     0.3249892 α      lambda       -0.4543785E-02
   maximum displ.:     0.1496474 α      in ANC's #10, #14, #18, ...

........................................................................
.............................. CYCLE   16 ..............................
........................................................................
   1   -212.0436992 -0.212044E+03  0.173E-01    0.90       0.0  T
   2   -212.0437483 -0.490419E-04  0.947E-02    0.91       1.0  T
   3   -212.0435097  0.238569E-03  0.441E-02    0.90       1.0  T
   4   -212.0437619 -0.252164E-03  0.138E-02    0.91       1.0  T
   5   -212.0437767 -0.147980E-04  0.744E-03    0.90       1.3  T
   6   -212.0437811 -0.445443E-05  0.304E-03    0.91       3.1  T
   7   -212.0437820 -0.876140E-06  0.112E-03    0.91       8.5  T
     SCC iter.                  ...        0 min,  0.095 sec
     gradient                   ...        0 min,  0.024 sec
 * total energy  :  -208.2897171 Eh     change       -0.1868074E-02 Eh
   gradient norm :     0.0280809 Eh/α   predicted    -0.2511841E-02 (  34.46%)
   displ. norm   :     0.4014011 α      lambda       -0.1675665E-02
   maximum displ.:     0.1584760 α      in ANC's #11, #10, #13, ...

........................................................................
.............................. CYCLE   17 ..............................
........................................................................
   1   -212.0397650 -0.212040E+03  0.115E-01    0.88       0.0  T
   2   -212.0397764 -0.114091E-04  0.647E-02    0.89       1.0  T
   3   -212.0395724  0.203933E-03  0.379E-02    0.88       1.0  T
   4   -212.0397850 -0.212524E-03  0.850E-03    0.89       1.1  T
   5   -212.0397922 -0.721454E-05  0.444E-03    0.89       2.1  T
   6   -212.0397936 -0.138484E-05  0.190E-03    0.89       5.0  T
   7   -212.0397939 -0.313340E-06  0.733E-04    0.89      12.9  T
     SCC iter.                  ...        0 min,  0.095 sec
     gradient                   ...        0 min,  0.024 sec
 * total energy  :  -208.2907427 Eh     change       -0.1025636E-02 Eh
   gradient norm :     0.0146962 Eh/α   predicted    -0.9728257E-03 (  -5.15%)
   displ. norm   :     0.6306635 α      lambda       -0.1729015E-02
   maximum displ.:     0.2285215 α      in ANC's #10, #11, #5, ...

........................................................................
.............................. CYCLE   18 ..............................
........................................................................
   1   -212.0365521 -0.212037E+03  0.165E-01    0.87       0.0  T
   2   -212.0365598 -0.770569E-05  0.929E-02    0.88       1.0  T
   3   -212.0358685  0.691324E-03  0.683E-02    0.86       1.0  T
   4   -212.0365945 -0.726032E-03  0.129E-02    0.88       1.0  T
   5   -212.0366085 -0.139897E-04  0.669E-03    0.87       1.4  T
   6   -212.0366113 -0.277105E-05  0.270E-03    0.87       3.5  T
   7   -212.0366120 -0.739491E-06  0.104E-03    0.87       9.1  T
     SCC iter.                  ...        0 min,  0.092 sec
     gradient                   ...        0 min,  0.024 sec
 * total energy  :  -208.2916961 Eh     change       -0.9533449E-03 Eh
   gradient norm :     0.0236964 Eh/α   predicted    -0.1208354E-02 (  26.75%)
   displ. norm   :     0.6259285 α      lambda       -0.1970255E-02
   maximum displ.:     0.2529333 α      in ANC's #11, #10, #13, ...

........................................................................
.............................. CYCLE   19 ..............................
........................................................................
   1   -212.0432660 -0.212043E+03  0.166E-01    0.86       0.0  T
   2   -212.0432857 -0.196752E-04  0.927E-02    0.87       1.0  T
   3   -212.0429270  0.358668E-03  0.507E-02    0.86       1.0  T
   4   -212.0433006 -0.373570E-03  0.125E-02    0.87       1.0  T
   5   -212.0433130 -0.124214E-04  0.731E-03    0.87       1.3  T
   6   -212.0433173 -0.431498E-05  0.260E-03    0.87       3.6  T
   7   -212.0433180 -0.648479E-06  0.102E-03    0.87       9.2  T
     SCC iter.                  ...        0 min,  0.097 sec
     gradient                   ...        0 min,  0.024 sec
 * total energy  :  -208.2927546 Eh     change       -0.1058583E-02 Eh
   gradient norm :     0.0215183 Eh/α   predicted    -0.1371087E-02 (  29.52%)
   displ. norm   :     0.5744596 α      lambda       -0.2472348E-02
   maximum displ.:     0.2323073 α      in ANC's #10, #5, #11, ...

........................................................................
.............................. CYCLE   20 ..............................
........................................................................
   1   -212.0563853 -0.212056E+03  0.178E-01    0.85       0.0  T
   2   -212.0564276 -0.422394E-04  0.977E-02    0.86       1.0  T
   3   -212.0561236  0.303957E-03  0.477E-02    0.85       1.0  T
   4   -212.0564422 -0.318555E-03  0.148E-02    0.86       1.0  T
   5   -212.0564570 -0.148327E-04  0.894E-03    0.86       1.1  T
   6   -212.0564637 -0.671341E-05  0.363E-03    0.86       2.6  T
   7   -212.0564651 -0.135707E-05  0.165E-03    0.86       5.7  T
   8   -212.0564654 -0.292571E-06  0.746E-04    0.86      12.7  T
     SCC iter.                  ...        0 min,  0.109 sec
     gradient                   ...        0 min,  0.024 sec
 * total energy  :  -208.2934468 Eh     change       -0.6921736E-03 Eh
   gradient norm :     0.0358769 Eh/α   predicted    -0.1644117E-02 ( 137.53%)
   displ. norm   :     0.4913477 α      lambda       -0.2355171E-02
   maximum displ.:     0.2184348 α      in ANC's #11, #10, #9, ...
 * RMSD in coord.:     0.6266881 α      energy gain  -0.7498109E-01 Eh

generating ANC from model Hessian ...
Using Lindh-Hessian (1995)
 Shifting diagonal of input Hessian by   4.988001824951075E-003
 Lowest  eigenvalues of input Hessian
   -0.000000   -0.000000   -0.000000   -0.000000    0.000000    0.000000
    0.005000    0.005007    0.005035    0.005049    0.005086    0.005099
    0.005207    0.005218    0.005310    0.005481    0.005622    0.005663
 Highest eigenvalues
    2.610223    2.619121    2.626513    2.653637    2.653789    2.654830
 

........................................................................
.............................. CYCLE   21 ..............................
........................................................................
   1   -212.0416456 -0.212042E+03  0.163E-01    0.84       0.0  T
   2   -212.0416667 -0.210616E-04  0.905E-02    0.85       1.0  T
   3   -212.0412052  0.461511E-03  0.551E-02    0.83       1.0  T
   4   -212.0416874 -0.482244E-03  0.118E-02    0.84       1.0  T
   5   -212.0417010 -0.136267E-04  0.616E-03    0.84       1.5  T
   6   -212.0417038 -0.275514E-05  0.248E-03    0.84       3.8  T
   7   -212.0417043 -0.539787E-06  0.105E-03    0.84       9.0  T
   8   -212.0417044 -0.616355E-07  0.550E-04    0.84      17.2  T
   9   -212.0417044 -0.108221E-07  0.330E-04    0.84      28.7  T
     SCC iter.                  ...        0 min,  0.127 sec
     gradient                   ...        0 min,  0.026 sec
 * total energy  :  -208.2946885 Eh     change       -0.1241703E-02 Eh
   gradient norm :     0.0246442 Eh/α   predicted     0.0000000E+00 (-100.00%)
   displ. norm   :     0.3243984 α      lambda       -0.1500537E-02
   maximum displ.:     0.2197384 α      in ANC's #7, #6, #25, ...

........................................................................
.............................. CYCLE   22 ..............................
........................................................................
   1   -212.0422353 -0.212042E+03  0.144E-01    0.84       0.0  T
   2   -212.0422601 -0.248071E-04  0.801E-02    0.85       1.0  T
   3   -212.0421366  0.123542E-03  0.327E-02    0.84       1.0  T
   4   -212.0422742 -0.137556E-03  0.661E-03    0.85       1.4  T
   5   -212.0422783 -0.414660E-05  0.390E-03    0.84       2.4  T
   6   -212.0422796 -0.130166E-05  0.152E-03    0.84       6.2  T
     SCC iter.                  ...        0 min,  0.082 sec
     gradient                   ...        0 min,  0.024 sec
 * total energy  :  -208.2950872 Eh     change       -0.3986978E-03 Eh
   gradient norm :     0.0174005 Eh/α   predicted    -0.8292237E-03 ( 107.98%)
   displ. norm   :     0.2789308 α      lambda       -0.1783135E-02
   maximum displ.:     0.1558748 α      in ANC's #7, #6, #18, ...

........................................................................
.............................. CYCLE   23 ..............................
........................................................................
   1   -212.0525679 -0.212053E+03  0.155E-01    0.85       0.0  T
   2   -212.0525992 -0.312920E-04  0.857E-02    0.85       1.0  T
   3   -212.0525584  0.408179E-04  0.210E-02    0.85       1.0  T
   4   -212.0526126 -0.541987E-04  0.545E-03    0.85       1.7  T
   5   -212.0526144 -0.184585E-05  0.367E-03    0.85       2.6  T
   6   -212.0526157 -0.128733E-05  0.155E-03    0.85       6.1  T
   7   -212.0526159 -0.212633E-06  0.648E-04    0.85      14.6  T
     SCC iter.                  ...        0 min,  0.092 sec
     gradient                   ...        0 min,  0.024 sec
 * total energy  :  -208.2957160 Eh     change       -0.6288145E-03 Eh
   gradient norm :     0.0289239 Eh/α   predicted    -0.9609341E-03 (  52.82%)
   displ. norm   :     0.2445219 α      lambda       -0.1118531E-02
   maximum displ.:     0.1443785 α      in ANC's #7, #6, #32, ...

........................................................................
.............................. CYCLE   24 ..............................
........................................................................
   1   -212.0514911 -0.212051E+03  0.126E-01    0.85       0.0  T
   2   -212.0515121 -0.209974E-04  0.695E-02    0.85       1.0  T
   3   -212.0514668  0.452677E-04  0.218E-02    0.84       1.0  T
   4   -212.0515223 -0.554200E-04  0.483E-03    0.85       2.0  T
   5   -212.0515230 -0.743474E-06  0.362E-03    0.85       2.6  T
   6   -212.0515245 -0.146518E-05  0.141E-03    0.85       6.7  T
     SCC iter.                  ...        0 min,  0.083 sec
     gradient                   ...        0 min,  0.024 sec
 * total energy  :  -208.2961984 Eh     change       -0.4823787E-03 Eh
   gradient norm :     0.0115668 Eh/α   predicted    -0.5927044E-03 (  22.87%)
   displ. norm   :     0.3450236 α      lambda       -0.1413467E-02
   maximum displ.:     0.2051947 α      in ANC's #7, #6, #22, ...

........................................................................
.............................. CYCLE   25 ..............................
........................................................................
   1   -212.0464250 -0.212046E+03  0.137E-01    0.84       0.0  T
   2   -212.0464490 -0.239585E-04  0.753E-02    0.84       1.0  T
   3   -212.0463732  0.757308E-04  0.260E-02    0.84       1.0  T
   4   -212.0464597 -0.864968E-04  0.691E-03    0.84       1.4  T
   5   -212.0464617 -0.201846E-05  0.474E-03    0.84       2.0  T
   6   -212.0464637 -0.197441E-05  0.212E-03    0.84       4.5  T
   7   -212.0464642 -0.507001E-06  0.776E-04    0.84      12.2  T
     SCC iter.                  ...        0 min,  0.093 sec
     gradient                   ...        0 min,  0.024 sec
 * total energy  :  -208.2966549 Eh     change       -0.4564843E-03 Eh
   gradient norm :     0.0285407 Eh/α   predicted    -0.7908634E-03 (  73.25%)
   displ. norm   :     0.3321778 α      lambda       -0.1282723E-02
   maximum displ.:     0.2068333 α      in ANC's #7, #6, #22, ...

........................................................................
.............................. CYCLE   26 ..............................
........................................................................
   1   -212.0462269 -0.212046E+03  0.119E-01    0.84       0.0  T
   2   -212.0462406 -0.137394E-04  0.664E-02    0.84       1.0  T
   3   -212.0461166  0.124027E-03  0.329E-02    0.83       1.0  T
   4   -212.0462555 -0.138887E-03  0.508E-03    0.84       1.9  T
   5   -212.0462553  0.186214E-06  0.437E-03    0.84       2.2  T
   6   -212.0462574 -0.212027E-05  0.149E-03    0.84       6.4  T
     SCC iter.                  ...        0 min,  0.084 sec
     gradient                   ...        0 min,  0.024 sec
 * total energy  :  -208.2975758 Eh     change       -0.9208771E-03 Eh
   gradient norm :     0.0183139 Eh/α   predicted    -0.7121302E-03 ( -22.67%)
   displ. norm   :     0.5368073 α      lambda       -0.1335449E-02
   maximum displ.:     0.3414328 α      in ANC's #7, #6, #22, ...

........................................................................
.............................. CYCLE   27 ..............................
........................................................................
   1   -212.0458701 -0.212046E+03  0.121E-01    0.83       0.0  T
   2   -212.0458819 -0.117901E-04  0.679E-02    0.83       1.0  T
   3   -212.0457172  0.164758E-03  0.345E-02    0.83       1.0  T
   4   -212.0458876 -0.170410E-03  0.927E-03    0.83       1.0  T
   5   -212.0458925 -0.495179E-05  0.591E-03    0.83       1.6  T
   6   -212.0458958 -0.328439E-05  0.184E-03    0.83       5.1  T
   7   -212.0458961 -0.288012E-06  0.772E-04    0.83      12.2  T
   8   -212.0458961 -0.266723E-07  0.441E-04    0.83      21.4  T
     SCC iter.                  ...        0 min,  0.105 sec
     gradient                   ...        0 min,  0.024 sec
 * total energy  :  -208.2985897 Eh     change       -0.1013900E-02 Eh
   gradient norm :     0.0152114 Eh/α   predicted    -0.8601363E-03 ( -15.17%)
   displ. norm   :     0.6648404 α      lambda       -0.1235968E-02
   maximum displ.:     0.4180282 α      in ANC's #7, #6, #22, ...

........................................................................
.............................. CYCLE   28 ..............................
........................................................................
   1   -212.0436428 -0.212044E+03  0.151E-01    0.82       0.0  T
   2   -212.0436627 -0.199013E-04  0.834E-02    0.83       1.0  T
   3   -212.0434595  0.203186E-03  0.380E-02    0.82       1.0  T
   4   -212.0436708 -0.211256E-03  0.112E-02    0.82       1.0  T
   5   -212.0436758 -0.499666E-05  0.700E-03    0.82       1.3  T
   6   -212.0436807 -0.492627E-05  0.289E-03    0.82       3.3  T
   7   -212.0436816 -0.930115E-06  0.887E-04    0.82      10.6  T
   8   -212.0436816 -0.375244E-07  0.511E-04    0.82      18.5  T
     SCC iter.                  ...        0 min,  0.104 sec
     gradient                   ...        0 min,  0.024 sec
 * total energy  :  -208.2997426 Eh     change       -0.1152946E-02 Eh
   gradient norm :     0.0168330 Eh/α   predicted    -0.8911455E-03 ( -22.71%)
   displ. norm   :     0.7735899 α      lambda       -0.1583397E-02
   maximum displ.:     0.4875856 α      in ANC's #7, #6, #22, ...

........................................................................
.............................. CYCLE   29 ..............................
........................................................................
   1   -212.0444291 -0.212044E+03  0.169E-01    0.81       0.0  T
   2   -212.0444593 -0.302041E-04  0.925E-02    0.81       1.0  T
   3   -212.0442675  0.191819E-03  0.384E-02    0.80       1.0  T
   4   -212.0444587 -0.191204E-03  0.148E-02    0.81       1.0  T
   5   -212.0444721 -0.134782E-04  0.872E-03    0.81       1.1  T
   6   -212.0444795 -0.738883E-05  0.347E-03    0.81       2.7  T
   7   -212.0444810 -0.143049E-05  0.107E-03    0.81       8.9  T
   8   -212.0444810 -0.771965E-07  0.588E-04    0.81      16.1  T
     SCC iter.                  ...        0 min,  0.103 sec
     gradient                   ...        0 min,  0.024 sec
 * total energy  :  -208.3012133 Eh     change       -0.1470680E-02 Eh
   gradient norm :     0.0104451 Eh/α   predicted    -0.1265485E-02 ( -13.95%)
   displ. norm   :     0.8229606 α      lambda       -0.1749565E-02
   maximum displ.:     0.5359265 α      in ANC's #7, #6, #22, ...

........................................................................
.............................. CYCLE   30 ..............................
........................................................................
   1   -212.0488940 -0.212049E+03  0.179E-01    0.79       0.0  T
   2   -212.0489252 -0.312544E-04  0.973E-02    0.80       1.0  T
   3   -212.0485792  0.346067E-03  0.486E-02    0.78       1.0  T
   4   -212.0489341 -0.354929E-03  0.156E-02    0.80       1.0  T
   5   -212.0489479 -0.138582E-04  0.930E-03    0.79       1.0  T
   6   -212.0489560 -0.809038E-05  0.375E-03    0.79       2.5  T
   7   -212.0489576 -0.161183E-05  0.113E-03    0.79       8.3  T
   8   -212.0489577 -0.880114E-07  0.608E-04    0.79      15.5  T
     SCC iter.                  ...        0 min,  0.103 sec
     gradient                   ...        0 min,  0.024 sec
 * total energy  :  -208.3027178 Eh     change       -0.1504530E-02 Eh
   gradient norm :     0.0110914 Eh/α   predicted    -0.1467249E-02 (  -2.48%)
   displ. norm   :     0.8203660 α      lambda       -0.1879896E-02
   maximum displ.:     0.5416278 α      in ANC's #7, #6, #22, ...

........................................................................
.............................. CYCLE   31 ..............................
........................................................................
   1   -212.0524184 -0.212052E+03  0.187E-01    0.78       0.0  T
   2   -212.0524542 -0.357172E-04  0.102E-01    0.78       1.0  T
   3   -212.0521097  0.344427E-03  0.480E-02    0.77       1.0  T
   4   -212.0524558 -0.346031E-03  0.168E-02    0.78       1.0  T
   5   -212.0524810 -0.252258E-04  0.863E-03    0.78       1.1  T
   6   -212.0524871 -0.610519E-05  0.295E-03    0.78       3.2  T
   7   -212.0524879 -0.800124E-06  0.113E-03    0.78       8.3  T
   8   -212.0524880 -0.666938E-07  0.641E-04    0.78      14.7  T
     SCC iter.                  ...        0 min,  0.106 sec
     gradient                   ...        0 min,  0.024 sec
 * total energy  :  -208.3041016 Eh     change       -0.1383780E-02 Eh
   gradient norm :     0.0168997 Eh/α   predicted    -0.1572534E-02 (  13.64%)
   displ. norm   :     0.7699574 α      lambda       -0.1833900E-02
   maximum displ.:     0.5053706 α      in ANC's #7, #6, #22, ...

........................................................................
.............................. CYCLE   32 ..............................
........................................................................
   1   -212.0474857 -0.212047E+03  0.167E-01    0.77       0.0  T
   2   -212.0475144 -0.286973E-04  0.922E-02    0.77       1.0  T
   3   -212.0473101  0.204334E-03  0.389E-02    0.76       1.0  T
   4   -212.0475195 -0.209443E-03  0.130E-02    0.77       1.0  T
   5   -212.0475280 -0.853089E-05  0.884E-03    0.77       1.1  T
   6   -212.0475371 -0.902497E-05  0.314E-03    0.77       3.0  T
   7   -212.0475381 -0.103905E-05  0.109E-03    0.77       8.6  T
   8   -212.0475382 -0.765149E-07  0.568E-04    0.77      16.6  T
     SCC iter.                  ...        0 min,  0.104 sec
     gradient                   ...        0 min,  0.024 sec
 * total energy  :  -208.3056413 Eh     change       -0.1539681E-02 Eh
   gradient norm :     0.0147363 Eh/α   predicted    -0.1460548E-02 (  -5.14%)
   displ. norm   :     0.7447065 α      lambda       -0.1804033E-02
   maximum displ.:     0.5015976 α      in ANC's #7, #6, #22, ...

........................................................................
.............................. CYCLE   33 ..............................
........................................................................
   1   -212.0548118 -0.212055E+03  0.149E-01    0.76       0.0  T
   2   -212.0548200 -0.819183E-05  0.831E-02    0.76       1.0  T
   3   -212.0543824  0.437536E-03  0.540E-02    0.75       1.0  T
   4   -212.0548394 -0.456927E-03  0.121E-02    0.76       1.0  T
   5   -212.0548448 -0.543901E-05  0.882E-03    0.76       1.1  T
   6   -212.0548535 -0.872375E-05  0.221E-03    0.76       4.3  T
   7   -212.0548539 -0.385598E-06  0.106E-03    0.76       8.9  T
   8   -212.0548540 -0.870030E-07  0.510E-04    0.76      18.5  T
     SCC iter.                  ...        0 min,  0.104 sec
     gradient                   ...        0 min,  0.024 sec
 * total energy  :  -208.3071167 Eh     change       -0.1475434E-02 Eh
   gradient norm :     0.0152437 Eh/α   predicted    -0.1402266E-02 (  -4.96%)
   displ. norm   :     0.8093861 α      lambda       -0.1712001E-02
   maximum displ.:     0.5565075 α      in ANC's #7, #6, #5, ...

........................................................................
.............................. CYCLE   34 ..............................
........................................................................
   1   -212.0528460 -0.212053E+03  0.166E-01    0.75       0.0  T
   2   -212.0528674 -0.213813E-04  0.908E-02    0.75       1.0  T
   3   -212.0525416  0.325761E-03  0.462E-02    0.74       1.0  T
   4   -212.0528779 -0.336223E-03  0.132E-02    0.75       1.0  T
   5   -212.0528857 -0.783511E-05  0.879E-03    0.75       1.1  T
   6   -212.0528943 -0.856995E-05  0.286E-03    0.75       3.3  T
   7   -212.0528951 -0.841636E-06  0.989E-04    0.75       9.6  T
   8   -212.0528952 -0.646590E-07  0.506E-04    0.75      18.7  T
     SCC iter.                  ...        0 min,  0.104 sec
     gradient                   ...        0 min,  0.024 sec
 * total energy  :  -208.3086101 Eh     change       -0.1493414E-02 Eh
   gradient norm :     0.0119602 Eh/α   predicted    -0.1416779E-02 (  -5.13%)
   displ. norm   :     0.8404607 α      lambda       -0.1713593E-02
   maximum displ.:     0.5779226 α      in ANC's #7, #6, #5, ...

........................................................................
.............................. CYCLE   35 ..............................
........................................................................
   1   -212.0541835 -0.212054E+03  0.166E-01    0.74       0.0  T
   2   -212.0542057 -0.222401E-04  0.899E-02    0.74       1.0  T
   3   -212.0539276  0.278137E-03  0.442E-02    0.73       1.0  T
   4   -212.0542060 -0.278430E-03  0.151E-02    0.74       1.0  T
   5   -212.0542201 -0.140392E-04  0.902E-03    0.74       1.0  T
   6   -212.0542296 -0.954399E-05  0.258E-03    0.74       3.7  T
   7   -212.0542302 -0.622020E-06  0.940E-04    0.74      10.1  T
   8   -212.0542303 -0.595620E-07  0.509E-04    0.74      18.6  T
     SCC iter.                  ...        0 min,  0.105 sec
     gradient                   ...        0 min,  0.024 sec
 * total energy  :  -208.3100829 Eh     change       -0.1472763E-02 Eh
   gradient norm :     0.0126553 Eh/α   predicted    -0.1462024E-02 (  -0.73%)
   displ. norm   :     0.8516692 α      lambda       -0.1668657E-02
   maximum displ.:     0.5935701 α      in ANC's #7, #6, #5, ...

........................................................................
.............................. CYCLE   36 ..............................
........................................................................
   1   -212.0544379 -0.212054E+03  0.176E-01    0.73       0.0  T
   2   -212.0544565 -0.185997E-04  0.967E-02    0.73       1.0  T
   3   -212.0540165  0.439988E-03  0.548E-02    0.72       1.0  T
   4   -212.0544700 -0.453535E-03  0.147E-02    0.73       1.0  T
   5   -212.0544834 -0.133858E-04  0.944E-03    0.73       1.0  T
   6   -212.0544927 -0.931135E-05  0.260E-03    0.73       3.6  T
   7   -212.0544933 -0.613799E-06  0.104E-03    0.73       9.0  T
   8   -212.0544934 -0.719380E-07  0.578E-04    0.73      16.4  T
     SCC iter.                  ...        0 min,  0.106 sec
     gradient                   ...        0 min,  0.024 sec
 * total energy  :  -208.3114579 Eh     change       -0.1375028E-02 Eh
   gradient norm :     0.0154505 Eh/α   predicted    -0.1439496E-02 (   4.69%)
   displ. norm   :     0.8182902 α      lambda       -0.1544699E-02
   maximum displ.:     0.5795544 α      in ANC's #7, #6, #5, ...

........................................................................
.............................. CYCLE   37 ..............................
........................................................................
   1   -212.0610153 -0.212061E+03  0.149E-01    0.72       0.0  T
   2   -212.0610284 -0.130873E-04  0.817E-02    0.72       1.0  T
   3   -212.0607858  0.242582E-03  0.407E-02    0.71       1.0  T
   4   -212.0610303 -0.244412E-03  0.130E-02    0.72       1.0  T
   5   -212.0610403 -0.100767E-04  0.812E-03    0.72       1.2  T
   6   -212.0610477 -0.740396E-05  0.177E-03    0.72       5.3  T
   7   -212.0610480 -0.272717E-06  0.783E-04    0.72      12.1  T
   8   -212.0610480 -0.325387E-07  0.431E-04    0.72      21.9  T
     SCC iter.                  ...        0 min,  0.105 sec
     gradient                   ...        0 min,  0.024 sec
 * total energy  :  -208.3127273 Eh     change       -0.1269404E-02 Eh
   gradient norm :     0.0158118 Eh/α   predicted    -0.1289513E-02 (   1.58%)
   displ. norm   :     0.8354060 α      lambda       -0.1508585E-02
   maximum displ.:     0.5837362 α      in ANC's #7, #6, #5, ...

........................................................................
.............................. CYCLE   38 ..............................
........................................................................
   1   -212.0529873 -0.212053E+03  0.159E-01    0.71       0.0  T
   2   -212.0530107 -0.234183E-04  0.866E-02    0.71       1.0  T
   3   -212.0528701  0.140633E-03  0.325E-02    0.70       1.0  T
   4   -212.0530014 -0.131350E-03  0.147E-02    0.71       1.0  T
   5   -212.0530184 -0.169941E-04  0.776E-03    0.71       1.2  T
   6   -212.0530256 -0.712428E-05  0.280E-03    0.71       3.4  T
   7   -212.0530265 -0.928505E-06  0.912E-04    0.71      10.4  T
   8   -212.0530266 -0.656350E-07  0.487E-04    0.71      19.4  T
     SCC iter.                  ...        0 min,  0.105 sec
     gradient                   ...        0 min,  0.024 sec
 * total energy  :  -208.3139491 Eh     change       -0.1221747E-02 Eh
   gradient norm :     0.0126728 Eh/α   predicted    -0.1280717E-02 (   4.83%)
   displ. norm   :     0.7821702 α      lambda       -0.1474966E-02
   maximum displ.:     0.5471371 α      in ANC's #7, #6, #8, ...

........................................................................
.............................. CYCLE   39 ..............................
........................................................................
   1   -212.0572683 -0.212057E+03  0.150E-01    0.70       0.0  T
   2   -212.0572843 -0.160002E-04  0.835E-02    0.70       1.0  T
   3   -212.0570684  0.215896E-03  0.406E-02    0.70       1.0  T
   4   -212.0572883 -0.219892E-03  0.122E-02    0.70       1.0  T
   5   -212.0572977 -0.944371E-05  0.792E-03    0.70       1.2  T
   6   -212.0573053 -0.763611E-05  0.235E-03    0.70       4.0  T
   7   -212.0573059 -0.525884E-06  0.101E-03    0.70       9.4  T
   8   -212.0573060 -0.944259E-07  0.499E-04    0.70      18.9  T
     SCC iter.                  ...        0 min,  0.112 sec
     gradient                   ...        0 min,  0.024 sec
 * total energy  :  -208.3151091 Eh     change       -0.1160013E-02 Eh
   gradient norm :     0.0220575 Eh/α   predicted    -0.1188671E-02 (   2.47%)
   displ. norm   :     0.7738001 α      lambda       -0.1589720E-02
   maximum displ.:     0.5326758 α      in ANC's #7, #6, #9, ...

........................................................................
.............................. CYCLE   40 ..............................
........................................................................
   1   -212.0573858 -0.212057E+03  0.152E-01    0.69       0.0  T
   2   -212.0574030 -0.172381E-04  0.847E-02    0.69       1.0  T
   3   -212.0571656  0.237406E-03  0.419E-02    0.68       1.0  T
   4   -212.0574039 -0.238272E-03  0.133E-02    0.69       1.0  T
   5   -212.0574210 -0.170997E-04  0.705E-03    0.69       1.3  T
   6   -212.0574255 -0.453734E-05  0.274E-03    0.69       3.5  T
   7   -212.0574264 -0.896151E-06  0.103E-03    0.69       9.2  T
     SCC iter.                  ...        0 min,  0.094 sec
     gradient                   ...        0 min,  0.024 sec
 * total energy  :  -208.3161068 Eh     change       -0.9977379E-03 Eh
   gradient norm :     0.0260638 Eh/α   predicted    -0.1270798E-02 (  27.37%)
   displ. norm   :     0.7147545 α      lambda       -0.1435826E-02
   maximum displ.:     0.4999874 α      in ANC's #7, #6, #8, ...

........................................................................
.............................. CYCLE   41 ..............................
........................................................................
   1   -212.0649662 -0.212065E+03  0.128E-01    0.68       0.0  T
   2   -212.0649775 -0.112811E-04  0.722E-02    0.68       1.0  T
   3   -212.0648661  0.111456E-03  0.296E-02    0.68       1.0  T
   4   -212.0649830 -0.116919E-03  0.815E-03    0.68       1.2  T
   5   -212.0649849 -0.189625E-05  0.607E-03    0.68       1.6  T
   6   -212.0649895 -0.459615E-05  0.230E-03    0.68       4.1  T
   7   -212.0649902 -0.681823E-06  0.872E-04    0.68      10.8  T
     SCC iter.                  ...        0 min,  0.098 sec
     gradient                   ...        0 min,  0.024 sec
 * total energy  :  -208.3171620 Eh     change       -0.1055129E-02 Eh
   gradient norm :     0.0217402 Eh/α   predicted    -0.1084677E-02 (   2.80%)
   displ. norm   :     0.7114123 α      lambda       -0.1518896E-02
   maximum displ.:     0.4904061 α      in ANC's #7, #6, #8, ...

........................................................................
.............................. CYCLE   42 ..............................
........................................................................
   1   -212.0473284 -0.212047E+03  0.163E-01    0.68       0.0  T
   2   -212.0473594 -0.310394E-04  0.908E-02    0.68       1.0  T
   3   -212.0472117  0.147683E-03  0.372E-02    0.68       1.0  T
   4   -212.0473743 -0.162597E-03  0.878E-03    0.68       1.1  T
   5   -212.0473748 -0.486794E-06  0.711E-03    0.68       1.3  T
   6   -212.0473821 -0.731878E-05  0.219E-03    0.68       4.3  T
   7   -212.0473826 -0.496889E-06  0.806E-04    0.68      11.7  T
   8   -212.0473827 -0.313748E-07  0.482E-04    0.68      19.6  T
     SCC iter.                  ...        0 min,  0.105 sec
     gradient                   ...        0 min,  0.024 sec
 * total energy  :  -208.3176717 Eh     change       -0.5097656E-03 Eh
   gradient norm :     0.0426807 Eh/α   predicted    -0.1143814E-02 ( 124.38%)
   displ. norm   :     0.5080344 α      lambda       -0.1720408E-02
   maximum displ.:     0.3306341 α      in ANC's #7, #6, #20, ...
 * RMSD in coord.:     1.2670002 α      energy gain  -0.2422491E-01 Eh

generating ANC from model Hessian ...
Using Lindh-Hessian (1995)
 Shifting diagonal of input Hessian by   4.987386568688974E-003
 Lowest  eigenvalues of input Hessian
   -0.000000    0.000000    0.000000    0.000000    0.000000    0.000000
    0.005000    0.005002    0.005034    0.005052    0.005088    0.005098
    0.005210    0.005236    0.005309    0.005355    0.005494    0.005558
 Highest eigenvalues
    2.613045    2.626911    2.627110    2.639901    2.652963    2.653088
 

........................................................................
.............................. CYCLE   43 ..............................
........................................................................
   1   -212.0618797 -0.212062E+03  0.107E-01    0.68       0.0  T
   2   -212.0618842 -0.449534E-05  0.614E-02    0.68       1.0  T
   3   -212.0616919  0.192282E-03  0.424E-02    0.68       1.0  T
   4   -212.0619052 -0.213264E-03  0.648E-03    0.68       1.5  T
   5   -212.0619048  0.411312E-06  0.614E-03    0.68       1.5  T
   6   -212.0619095 -0.472977E-05  0.170E-03    0.68       5.6  T
   7   -212.0619098 -0.278923E-06  0.858E-04    0.68      11.0  T
   8   -212.0619099 -0.950394E-07  0.404E-04    0.68      23.4  T
     SCC iter.                  ...        0 min,  0.105 sec
     gradient                   ...        0 min,  0.025 sec
 * total energy  :  -208.3187566 Eh     change       -0.1084857E-02 Eh
   gradient norm :     0.0154219 Eh/α   predicted     0.0000000E+00 (-100.00%)
   displ. norm   :     0.2611184 α      lambda       -0.6979749E-03
   maximum displ.:     0.1146503 α      in ANC's #5, #9, #8, ...

........................................................................
.............................. CYCLE   44 ..............................
........................................................................
   1   -212.0628392 -0.212063E+03  0.874E-02    0.68       0.0  T
   2   -212.0628485 -0.921039E-05  0.487E-02    0.68       1.0  T
   3   -212.0628311  0.173316E-04  0.130E-02    0.68       1.0  T
   4   -212.0628528 -0.216606E-04  0.299E-03    0.68       3.2  T
   5   -212.0628532 -0.391401E-06  0.214E-03    0.68       4.4  T
   6   -212.0628536 -0.437591E-06  0.943E-04    0.68      10.0  T
     SCC iter.                  ...        0 min,  0.081 sec
     gradient                   ...        0 min,  0.024 sec
 * total energy  :  -208.3192457 Eh     change       -0.4891560E-03 Eh
   gradient norm :     0.0078001 Eh/α   predicted    -0.3727825E-03 ( -23.79%)
   displ. norm   :     0.3146399 α      lambda       -0.7942173E-03
   maximum displ.:     0.1339932 α      in ANC's #8, #5, #9, ...

........................................................................
.............................. CYCLE   45 ..............................
........................................................................
   1   -212.0626186 -0.212063E+03  0.132E-01    0.68       0.0  T
   2   -212.0626398 -0.212286E-04  0.734E-02    0.68       1.0  T
   3   -212.0625195  0.120338E-03  0.304E-02    0.68       1.0  T
   4   -212.0626492 -0.129712E-03  0.699E-03    0.68       1.4  T
   5   -212.0626557 -0.645772E-05  0.316E-03    0.68       3.0  T
   6   -212.0626564 -0.712227E-06  0.152E-03    0.68       6.2  T
   7   -212.0626565 -0.149998E-06  0.662E-04    0.68      14.3  T
     SCC iter.                  ...        0 min,  0.096 sec
     gradient                   ...        0 min,  0.024 sec
 * total energy  :  -208.3192645 Eh     change       -0.1872087E-04 Eh
   gradient norm :     0.0236415 Eh/α   predicted    -0.4364225E-03 (2231.21%)
   displ. norm   :     0.2075997 α      lambda       -0.9821020E-03
   maximum displ.:     0.0863290 α      in ANC's #9, #5, #7, ...

........................................................................
.............................. CYCLE   46 ..............................
........................................................................
   1   -212.0645954 -0.212065E+03  0.951E-02    0.69       0.0  T
   2   -212.0646061 -0.107256E-04  0.528E-02    0.68       1.0  T
   3   -212.0645740  0.321218E-04  0.155E-02    0.69       1.0  T
   4   -212.0646109 -0.368639E-04  0.388E-03    0.68       2.4  T
   5   -212.0646126 -0.175255E-05  0.185E-03    0.69       5.1  T
   6   -212.0646128 -0.146645E-06  0.105E-03    0.69       9.0  T
     SCC iter.                  ...        0 min,  0.080 sec
     gradient                   ...        0 min,  0.024 sec
 * total energy  :  -208.3198483 Eh     change       -0.5838050E-03 Eh
   gradient norm :     0.0126357 Eh/α   predicted    -0.5122144E-03 ( -12.26%)
   displ. norm   :     0.3247957 α      lambda       -0.9193699E-03
   maximum displ.:     0.1431838 α      in ANC's #8, #5, #9, ...

........................................................................
.............................. CYCLE   47 ..............................
........................................................................
   1   -212.0638709 -0.212064E+03  0.118E-01    0.68       0.0  T
   2   -212.0638857 -0.147976E-04  0.661E-02    0.69       1.0  T
   3   -212.0638020  0.837023E-04  0.265E-02    0.68       1.0  T
   4   -212.0638967 -0.947824E-04  0.430E-03    0.69       2.2  T
   5   -212.0638982 -0.141833E-05  0.278E-03    0.69       3.4  T
   6   -212.0638988 -0.661342E-06  0.129E-03    0.69       7.3  T
     SCC iter.                  ...        0 min,  0.083 sec
     gradient                   ...        0 min,  0.024 sec
 * total energy  :  -208.3200478 Eh     change       -0.1995640E-03 Eh
   gradient norm :     0.0171745 Eh/α   predicted    -0.5081785E-03 ( 154.64%)
   displ. norm   :     0.3437108 α      lambda       -0.9586755E-03
   maximum displ.:     0.1543998 α      in ANC's #9, #5, #8, ...

........................................................................
.............................. CYCLE   48 ..............................
........................................................................
   1   -212.0628387 -0.212063E+03  0.119E-01    0.69       0.0  T
   2   -212.0628558 -0.171509E-04  0.663E-02    0.69       1.0  T
   3   -212.0628472  0.862792E-05  0.115E-02    0.69       1.0  T
   4   -212.0628640 -0.167876E-04  0.270E-03    0.69       3.5  T
   5   -212.0628640 -0.265438E-07  0.171E-03    0.69       5.5  T
   6   -212.0628642 -0.164083E-06  0.784E-04    0.69      12.1  T
     SCC iter.                  ...        0 min,  0.084 sec
     gradient                   ...        0 min,  0.024 sec
 * total energy  :  -208.3205167 Eh     change       -0.4688480E-03 Eh
   gradient norm :     0.0123982 Eh/α   predicted    -0.5359715E-03 (  14.32%)
   displ. norm   :     0.4607881 α      lambda       -0.1209529E-02
   maximum displ.:     0.2242636 α      in ANC's #8, #5, #9, ...

........................................................................
.............................. CYCLE   49 ..............................
........................................................................
   1   -212.0592832 -0.212059E+03  0.163E-01    0.69       0.0  T
   2   -212.0593112 -0.279718E-04  0.908E-02    0.69       1.0  T
   3   -212.0591069  0.204251E-03  0.400E-02    0.69       1.0  T
   4   -212.0593272 -0.220303E-03  0.838E-03    0.69       1.1  T
   5   -212.0593353 -0.812637E-05  0.432E-03    0.69       2.2  T
   6   -212.0593369 -0.153964E-05  0.163E-03    0.69       5.8  T
   7   -212.0593371 -0.260156E-06  0.677E-04    0.69      14.0  T
     SCC iter.                  ...        0 min,  0.098 sec
     gradient                   ...        0 min,  0.024 sec
 * total energy  :  -208.3208357 Eh     change       -0.3190721E-03 Eh
   gradient norm :     0.0244966 Eh/α   predicted    -0.7331794E-03 ( 129.78%)
   displ. norm   :     0.3420925 α      lambda       -0.1025515E-02
   maximum displ.:     0.1531483 α      in ANC's #8, #5, #9, ...

........................................................................
.............................. CYCLE   50 ..............................
........................................................................
   1   -212.0658593 -0.212066E+03  0.110E-01    0.69       0.0  T
   2   -212.0658689 -0.968172E-05  0.609E-02    0.69       1.0  T
   3   -212.0657517  0.117281E-03  0.281E-02    0.68       1.0  T
   4   -212.0658756 -0.123964E-03  0.612E-03    0.69       1.5  T
   5   -212.0658793 -0.369966E-05  0.288E-03    0.69       3.3  T
   6   -212.0658799 -0.539110E-06  0.990E-04    0.69       9.5  T
     SCC iter.                  ...        0 min,  0.079 sec
     gradient                   ...        0 min,  0.024 sec
 * total energy  :  -208.3214264 Eh     change       -0.5906637E-03 Eh
   gradient norm :     0.0159227 Eh/α   predicted    -0.5727658E-03 (  -3.03%)
   displ. norm   :     0.5029549 α      lambda       -0.1084029E-02
   maximum displ.:     0.2310355 α      in ANC's #8, #5, #9, ...

........................................................................
.............................. CYCLE   51 ..............................
........................................................................
   1   -212.0671314 -0.212067E+03  0.135E-01    0.68       0.0  T
   2   -212.0671412 -0.980335E-05  0.750E-02    0.68       1.0  T
   3   -212.0668754  0.265868E-03  0.448E-02    0.68       1.0  T
   4   -212.0671529 -0.277528E-03  0.994E-03    0.68       1.0  T
   5   -212.0671638 -0.108883E-04  0.493E-03    0.68       1.9  T
   6   -212.0671662 -0.238726E-05  0.161E-03    0.68       5.9  T
   7   -212.0671664 -0.193204E-06  0.801E-04    0.68      11.8  T
     SCC iter.                  ...        0 min,  0.099 sec
     gradient                   ...        0 min,  0.024 sec
 * total energy  :  -208.3218892 Eh     change       -0.4628279E-03 Eh
   gradient norm :     0.0175583 Eh/α   predicted    -0.6791311E-03 (  46.74%)
   displ. norm   :     0.5551085 α      lambda       -0.9759867E-03
   maximum displ.:     0.2581949 α      in ANC's #8, #5, #9, ...

........................................................................
.............................. CYCLE   52 ..............................
........................................................................
   1   -212.0592244 -0.212059E+03  0.143E-01    0.68       0.0  T
   2   -212.0592457 -0.212957E-04  0.789E-02    0.68       1.0  T
   3   -212.0591941  0.516126E-04  0.209E-02    0.67       1.0  T
   4   -212.0592509 -0.568472E-04  0.770E-03    0.68       1.2  T
   5   -212.0592547 -0.373940E-05  0.487E-03    0.68       1.9  T
   6   -212.0592574 -0.271408E-05  0.183E-03    0.68       5.2  T
   7   -212.0592578 -0.410461E-06  0.740E-04    0.68      12.8  T
     SCC iter.                  ...        0 min,  0.095 sec
     gradient                   ...        0 min,  0.024 sec
 * total energy  :  -208.3224603 Eh     change       -0.5710518E-03 Eh
   gradient norm :     0.0158013 Eh/α   predicted    -0.6383709E-03 (  11.79%)
   displ. norm   :     0.5768452 α      lambda       -0.1167821E-02
   maximum displ.:     0.2761358 α      in ANC's #8, #5, #9, ...

........................................................................
.............................. CYCLE   53 ..............................
........................................................................
   1   -212.0582295 -0.212058E+03  0.145E-01    0.67       0.0  T
   2   -212.0582507 -0.212385E-04  0.802E-02    0.67       1.0  T
   3   -212.0581131  0.137600E-03  0.343E-02    0.67       1.0  T
   4   -212.0582616 -0.148519E-03  0.941E-03    0.67       1.0  T
   5   -212.0582644 -0.274360E-05  0.699E-03    0.67       1.4  T
   6   -212.0582709 -0.655065E-05  0.204E-03    0.67       4.6  T
   7   -212.0582714 -0.487274E-06  0.748E-04    0.67      12.6  T
   8   -212.0582714 -0.187800E-07  0.431E-04    0.67      21.9  T
     SCC iter.                  ...        0 min,  0.108 sec
     gradient                   ...        0 min,  0.024 sec
 * total energy  :  -208.3229720 Eh     change       -0.5116753E-03 Eh
   gradient norm :     0.0215791 Eh/α   predicted    -0.7782221E-03 (  52.09%)
   displ. norm   :     0.5010929 α      lambda       -0.1147480E-02
   maximum displ.:     0.2316899 α      in ANC's #5, #8, #9, ...

........................................................................
.............................. CYCLE   54 ..............................
........................................................................
   1   -212.0659029 -0.212066E+03  0.138E-01    0.66       0.0  T
   2   -212.0659233 -0.203287E-04  0.755E-02    0.67       1.0  T
   3   -212.0658690  0.542915E-04  0.216E-02    0.66       1.0  T
   4   -212.0659250 -0.560766E-04  0.910E-03    0.67       1.0  T
   5   -212.0659285 -0.344755E-05  0.645E-03    0.66       1.5  T
   6   -212.0659346 -0.613267E-05  0.166E-03    0.66       5.7  T
   7   -212.0659348 -0.225730E-06  0.771E-04    0.66      12.3  T
   8   -212.0659349 -0.230360E-07  0.466E-04    0.66      20.3  T
     SCC iter.                  ...        0 min,  0.103 sec
     gradient                   ...        0 min,  0.024 sec
 * total energy  :  -208.3235400 Eh     change       -0.5680508E-03 Eh
   gradient norm :     0.0135702 Eh/α   predicted    -0.7178008E-03 (  26.36%)
   displ. norm   :     0.5970274 α      lambda       -0.9903184E-03
   maximum displ.:     0.2783508 α      in ANC's #5, #8, #9, ...

........................................................................
.............................. CYCLE   55 ..............................
........................................................................
   1   -212.0640953 -0.212064E+03  0.132E-01    0.66       0.0  T
   2   -212.0641021 -0.680133E-05  0.736E-02    0.66       1.0  T
   3   -212.0638213  0.280878E-03  0.455E-02    0.66       1.0  T
   4   -212.0641112 -0.289929E-03  0.110E-02    0.66       1.0  T
   5   -212.0641234 -0.121732E-04  0.574E-03    0.66       1.6  T
   6   -212.0641268 -0.347994E-05  0.164E-03    0.66       5.8  T
   7   -212.0641271 -0.242996E-06  0.849E-04    0.66      11.1  T
   8   -212.0641272 -0.738048E-07  0.431E-04    0.66      21.9  T
     SCC iter.                  ...        0 min,  0.112 sec
     gradient                   ...        0 min,  0.024 sec
 * total energy  :  -208.3242316 Eh     change       -0.6915880E-03 Eh
   gradient norm :     0.0080366 Eh/α   predicted    -0.6716573E-03 (  -2.88%)
   displ. norm   :     0.7078533 α      lambda       -0.8478462E-03
   maximum displ.:     0.3430988 α      in ANC's #5, #8, #9, ...

........................................................................
.............................. CYCLE   56 ..............................
........................................................................
   1   -212.0587471 -0.212059E+03  0.153E-01    0.65       0.0  T
   2   -212.0587642 -0.170751E-04  0.851E-02    0.65       1.0  T
   3   -212.0586250  0.139131E-03  0.299E-02    0.65       1.0  T
   4   -212.0587728 -0.147757E-03  0.855E-03    0.65       1.1  T
   5   -212.0587759 -0.306309E-05  0.550E-03    0.65       1.7  T
   6   -212.0587789 -0.306958E-05  0.228E-03    0.65       4.1  T
   7   -212.0587796 -0.688320E-06  0.993E-04    0.65       9.5  T
   8   -212.0587797 -0.101309E-06  0.477E-04    0.65      19.8  T
     SCC iter.                  ...        0 min,  0.109 sec
     gradient                   ...        0 min,  0.024 sec
 * total energy  :  -208.3247079 Eh     change       -0.4762938E-03 Eh
   gradient norm :     0.0155870 Eh/α   predicted    -0.6363317E-03 (  33.60%)
   displ. norm   :     0.6329699 α      lambda       -0.9711391E-03
   maximum displ.:     0.3051539 α      in ANC's #5, #8, #9, ...

........................................................................
.............................. CYCLE   57 ..............................
........................................................................
   1   -212.0597410 -0.212060E+03  0.133E-01    0.65       0.0  T
   2   -212.0597545 -0.134430E-04  0.734E-02    0.65       1.0  T
   3   -212.0596480  0.106467E-03  0.272E-02    0.64       1.0  T
   4   -212.0597570 -0.109058E-03  0.935E-03    0.65       1.0  T
   5   -212.0597623 -0.527981E-05  0.621E-03    0.65       1.5  T
   6   -212.0597665 -0.420996E-05  0.241E-03    0.65       3.9  T
   7   -212.0597673 -0.775197E-06  0.932E-04    0.65      10.1  T
   8   -212.0597674 -0.954905E-07  0.445E-04    0.65      21.2  T
     SCC iter.                  ...        0 min,  0.111 sec
     gradient                   ...        0 min,  0.024 sec
 * total energy  :  -208.3253171 Eh     change       -0.6092496E-03 Eh
   gradient norm :     0.0116004 Eh/α   predicted    -0.6801083E-03 (  11.63%)
   displ. norm   :     0.6010567 α      lambda       -0.9153294E-03
   maximum displ.:     0.3063664 α      in ANC's #5, #8, #6, ...

........................................................................
.............................. CYCLE   58 ..............................
........................................................................
   1   -212.0703450 -0.212070E+03  0.136E-01    0.64       0.0  T
   2   -212.0703616 -0.165484E-04  0.751E-02    0.65       1.0  T
   3   -212.0702750  0.866135E-04  0.295E-02    0.64       1.0  T
   4   -212.0703738 -0.988191E-04  0.700E-03    0.65       1.4  T
   5   -212.0703705  0.327603E-05  0.604E-03    0.64       1.6  T
   6   -212.0703757 -0.522030E-05  0.202E-03    0.65       4.7  T
   7   -212.0703763 -0.561901E-06  0.808E-04    0.65      11.7  T
   8   -212.0703763 -0.203487E-07  0.558E-04    0.65      16.9  T
     SCC iter.                  ...        0 min,  0.109 sec
     gradient                   ...        0 min,  0.024 sec
 * total energy  :  -208.3257457 Eh     change       -0.4285165E-03 Eh
   gradient norm :     0.0269989 Eh/α   predicted    -0.6230183E-03 (  45.39%)
   displ. norm   :     0.5984988 α      lambda       -0.9304661E-03
   maximum displ.:     0.3021388 α      in ANC's #5, #8, #6, ...

........................................................................
.............................. CYCLE   59 ..............................
........................................................................
   1   -212.0704794 -0.212070E+03  0.115E-01    0.64       0.0  T
   2   -212.0704879 -0.842702E-05  0.645E-02    0.64       1.0  T
   3   -212.0704192  0.686371E-04  0.258E-02    0.64       1.0  T
   4   -212.0704925 -0.733053E-04  0.646E-03    0.64       1.5  T
   5   -212.0704903  0.228874E-05  0.660E-03    0.64       1.4  T
   6   -212.0704966 -0.638823E-05  0.147E-03    0.64       6.4  T
   7   -212.0704969 -0.268550E-06  0.670E-04    0.64      14.1  T
   8   -212.0704970 -0.425144E-07  0.366E-04    0.64      25.8  T
     SCC iter.                  ...        0 min,  0.113 sec
     gradient                   ...        0 min,  0.024 sec
 * total energy  :  -208.3262662 Eh     change       -0.5205231E-03 Eh
   gradient norm :     0.0188440 Eh/α   predicted    -0.6318772E-03 (  21.39%)
   displ. norm   :     0.6494333 α      lambda       -0.8624516E-03
   maximum displ.:     0.3266652 α      in ANC's #5, #8, #9, ...

........................................................................
.............................. CYCLE   60 ..............................
........................................................................
   1   -212.0498622 -0.212050E+03  0.142E-01    0.64       0.0  T
   2   -212.0498786 -0.163818E-04  0.805E-02    0.64       1.0  T
   3   -212.0497671  0.111456E-03  0.327E-02    0.64       1.0  T
   4   -212.0498905 -0.123364E-03  0.610E-03    0.64       1.5  T
   5   -212.0498906 -0.107651E-06  0.513E-03    0.64       1.8  T
[...]
    50   6 C      2.975     0.021    27.530     8.607
    51  16 S      2.330     0.068   138.317    19.794
    52   6 C      2.974     0.028    27.380     8.583
    53   6 C      3.140     0.023    27.261     8.544
    54   6 C      3.141     0.006    27.647     8.604
    55   6 C      2.921    -0.019    28.476     8.751
    56   6 C      2.975     0.029    27.339     8.577
    57   6 C      1.912     0.114    28.291     8.590
    58   7 N      0.911    -0.208    25.526     7.307
    59   6 C      2.976     0.032    27.280     8.567
    60   6 C      1.912     0.116    28.238     8.582
    61   7 N      0.911    -0.208    25.522     7.307
    62   6 C      2.922     0.001    28.008     8.679
    63   6 C      2.946    -0.015    28.396     8.740
    64   6 C      3.008    -0.030    28.726     8.792
    65   6 C      3.015     0.028    27.350     8.579
    66   6 C      2.947     0.006    27.881     8.660
    67   6 C      1.935     0.124    28.053     8.553
    68   7 N      0.911    -0.230    26.044     7.381
    69   6 C      1.935     0.120    28.145     8.567
    70   7 N      0.911    -0.234    26.122     7.392
    71   6 C      3.024     0.002    27.948     8.672
    72   6 C      3.035    -0.022    28.517     8.759
    73   6 C      2.862     0.226    23.261     7.905
    74   8 O      0.856    -0.383    21.349     6.195
    75   6 C      2.913    -0.016    28.415     8.741
    76   6 C      2.988     0.020    27.563     8.612
    77   6 C      2.987     0.021    27.527     8.606
    78   6 C      2.915    -0.030    28.743     8.791
    79   6 C      2.919    -0.029    28.722     8.788
    80   6 C      2.916    -0.021    28.537     8.760
    81   6 C      2.916    -0.022    28.546     8.761
    82   6 C      2.918    -0.029    28.713     8.787
    83   1 H      0.926     0.060     2.196     2.317
    84   1 H      0.926     0.059     2.211     2.325
    85   1 H      0.926     0.050     2.323     2.383
    86   1 H      0.926     0.046     2.365     2.405
    87   1 H      0.926     0.045     2.378     2.412
    88   1 H      0.926     0.046     2.374     2.410
    89   1 H      0.926     0.072     2.066     2.248
    90   1 H      0.926     0.064     2.150     2.293
    91   1 H      0.926     0.056     2.241     2.341
    92   1 H      0.924     0.065     2.146     2.291
    93   1 H      0.924     0.087     1.912     2.163
    94   1 H      0.925     0.040     2.445     2.445
    95   1 H      0.925     0.056     2.242     2.341
    96   1 H      0.925     0.052     2.296     2.370
    97   1 H      0.924     0.047     2.358     2.401
    98   1 H      0.924     0.082     1.958     2.188
    99   1 H      0.925     0.043     2.412     2.429
   100   1 H      0.925     0.054     2.275     2.359
   101   1 H      0.925     0.058     2.222     2.331
   102   1 H      0.925     0.082     1.961     2.190
   103   1 H      0.926     0.069     2.098     2.265
   104   1 H      0.926     0.050     2.316     2.380
   105   1 H      0.926     0.053     2.285     2.364
   106   1 H      0.925     0.068     2.109     2.271
   107   1 H      0.926     0.061     2.182     2.310
   108   1 H      0.926     0.058     2.225     2.333
   109   1 H      0.926     0.049     2.333     2.389
   110   1 H      0.926     0.046     2.371     2.408
   111   1 H      0.926     0.045     2.377     2.411
   112   1 H      0.926     0.047     2.362     2.403

 Mol. C6AA /au·bohr⁶  :     231777.425850
 Mol. C8AA /au·bohr⁸  :    6207681.587197
 Mol. α(0) /au        :        768.193057


Wiberg/Mayer (AO) data.
largest (>0.10) Wiberg bond orders for each atom
          total WBO             WBO to atom ...
     1  C   3.971        C    2 1.481    C   19 1.139    C    7 1.090
     2  C   3.921        C    1 1.481    C    5 1.100    C    3 1.095
     3  C   3.946        N    4 2.766    C    2 1.095
     4  N   2.970        C    3 2.766
     5  C   3.945        N    6 2.750    C    2 1.100
     6  N   2.962        C    5 2.750
     7  C   3.981        C   12 1.505    C    8 1.193    C    1 1.090
     8  C   3.979        C    9 1.518    C    7 1.193    C   17 1.041
     9  C   3.976        C    8 1.518    C   10 1.270    H   83 0.963
    10  C   3.979        C   16 1.291    C    9 1.270    C   11 1.238
    11  C   3.982        C   13 1.290    C   12 1.272    C   10 1.238
    12  C   3.970        C    7 1.505    C   11 1.272    H   84 0.958
    13  C   3.978        C   14 1.541    C   11 1.290    H   85 0.967    C   16 0.112
    14  C   3.978        C   13 1.541    C   15 1.329    H   86 0.970
    15  C   3.975        C   16 1.540    C   14 1.329    H   87 0.970
    16  C   3.980        C   15 1.540    C   10 1.291    H   88 0.967    C   13 0.112
    17  C   3.914        O   18 1.680    C   19 1.069    C    8 1.041
    18  O   2.109        C   17 1.680    S   22 0.164
    19  C   3.925        C   20 1.478    C    1 1.139    C   17 1.069
    20  C   3.952        C   19 1.478    C   21 1.328    H   89 0.932
    21  C   3.914        C   20 1.328    C   25 1.230    S   22 1.154
    22  S   2.878        C   23 1.208    C   21 1.154    O   18 0.164
    23  C   3.931        C   24 1.257    S   22 1.208    C   34 1.204
    24  C   3.960        C   33 1.297    C   23 1.257    C   25 1.221
    25  C   3.961        C   26 1.311    C   21 1.230    C   24 1.221
    26  C   3.979        C   27 1.459    C   25 1.311    H   90 0.958
    27  C   3.969        C   26 1.459    C   30 1.204    C   28 1.093
    28  C   3.948        N   29 2.813    C   27 1.093
    29  N   2.982        C   28 2.813
    30  C   3.977        C   33 1.461    C   27 1.204    C   31 1.093
    31  C   3.947        N   32 2.811    C   30 1.093
    32  N   2.982        C   31 2.811
    33  C   3.979        C   30 1.461    C   24 1.297    H   91 0.962
    34  C   3.917        C   41 1.307    C   23 1.204    N   35 1.192
    35  N   3.562        C   34 1.192    C   38 1.064    C   36 0.982    O   39 0.119
    36  C   3.958        C   37 1.007    N   35 0.982    H   93 0.962    H   92 0.958
    37  C   3.990        C   36 1.007    H   96 0.986    H   94 0.985    H   95 0.983
    38  C   3.936        O   39 1.678    C   40 1.081    N   35 1.064
    39  O   2.002        C   38 1.678    N   35 0.119
    40  C   3.926        C   47 1.299    C   41 1.253    C   38 1.081
    41  C   3.931        C   34 1.307    C   40 1.253    C   42 1.073
    42  C   3.937        O   43 1.670    N   44 1.078    C   41 1.073
    43  O   2.009        C   42 1.670    N   44 0.123
    44  N   3.559        C   47 1.176    C   42 1.078    C   45 0.983    O   43 0.123
    45  C   3.960        C   46 1.005    N   44 0.983    H   97 0.964    H   98 0.962
    46  C   3.989        C   45 1.005    H  101 0.986    H   99 0.984    H  100 0.983
    47  C   3.922        C   40 1.299    C   48 1.249    N   44 1.176
    48  C   3.933        C   49 1.544    C   47 1.249    H  102 0.949
    49  C   3.939        C   48 1.544    C   50 1.281    H  103 0.944
    50  C   3.915        C   49 1.281    C   54 1.255    S   51 1.173
    51  S   2.665        C   50 1.173    C   52 1.157
    52  C   3.891        C   53 1.277    C   63 1.258    S   51 1.157
    53  C   3.961        C   62 1.283    C   52 1.277    C   54 1.208
    54  C   3.950        C   55 1.302    C   50 1.255    C   53 1.208
    55  C   3.980        C   56 1.466    C   54 1.302    H  104 0.963
    56  C   3.963        C   55 1.466    C   59 1.192    C   57 1.096
    57  C   3.947        N   58 2.808    C   56 1.096
    58  N   2.978        C   57 2.808
    59  C   3.980        C   62 1.472    C   56 1.192    C   60 1.094
    60  C   3.948        N   61 2.811    C   59 1.094
    61  N   2.982        C   60 2.811
    62  C   3.979        C   59 1.472    C   53 1.283    H  105 0.964
    63  C   3.953        C   64 1.533    C   52 1.258    H  106 0.943
    64  C   3.930        C   63 1.533    C   65 1.136    C   73 1.020
    65  C   3.975        C   66 1.482    C   64 1.136    C   71 1.093
    66  C   3.919        C   65 1.482    C   69 1.098    C   67 1.098
    67  C   3.946        N   68 2.767    C   66 1.098
    68  N   2.971        C   67 2.767
    69  C   3.946        N   70 2.762    C   66 1.098
    70  N   2.967        C   69 2.762
    71  C   3.982        C   78 1.501    C   72 1.193    C   65 1.093
    72  C   3.978        C   75 1.517    C   71 1.193    C   73 1.033
    73  C   3.923        O   74 1.748    C   72 1.033    C   64 1.020
    74  O   2.039        C   73 1.748
    75  C   3.977        C   72 1.517    C   76 1.271    H  107 0.963
    76  C   3.968        C   82 1.291    C   75 1.271    C   77 1.238
    77  C   3.982        C   79 1.289    C   78 1.274    C   76 1.238
    78  C   3.972        C   71 1.501    C   77 1.274    H  108 0.959
    79  C   3.978        C   80 1.543    C   77 1.289    H  109 0.967    C   82 0.112
    80  C   3.978        C   79 1.543    C   81 1.328    H  110 0.970
    81  C   3.975        C   82 1.541    C   80 1.328    H  111 0.970
    82  C   3.980        C   81 1.541    C   76 1.291    H  112 0.967    C   79 0.112
    83  H   0.995        C    9 0.963
    84  H   0.996        C   12 0.958
    85  H   0.997        C   13 0.967
    86  H   0.997        C   14 0.970
    87  H   0.997        C   15 0.970
    88  H   0.997        C   16 0.967
    89  H   0.994        C   20 0.932
    90  H   0.994        C   26 0.958
    91  H   0.995        C   33 0.962
    92  H   0.994        C   36 0.958
    93  H   0.991        C   36 0.962
    94  H   0.998        C   37 0.985
    95  H   0.996        C   37 0.983
    96  H   0.997        C   37 0.986
    97  H   0.996        C   45 0.964
    98  H   0.992        C   45 0.962
    99  H   0.998        C   46 0.984
   100  H   0.996        C   46 0.983
   101  H   0.997        C   46 0.986
   102  H   0.993        C   48 0.949
   103  H   0.995        C   49 0.944
   104  H   0.996        C   55 0.963
   105  H   0.996        C   62 0.964
   106  H   0.991        C   63 0.943
   107  H   0.995        C   75 0.963
   108  H   0.996        C   78 0.959
   109  H   0.997        C   79 0.967
   110  H   0.997        C   80 0.970
   111  H   0.997        C   81 0.970
   112  H   0.997        C   82 0.967

molecular dipole:
                 x           y           z       tot (Debye)
 q only:        0.359      -0.597      -3.842
   full:        0.649      -1.034      -4.939      12.932
molecular quadrupole (traceless):
                xx          xy          yy          xz          yz          zz
 q only:      -44.989     -77.971      58.770      33.926     -67.537     -13.780
  q+dip:      -44.597     -92.611      58.897      37.583    -100.556     -14.300
   full:      -32.081     -95.037      49.994      52.659    -102.136     -17.914

           -------------------------------------------------
          |                Geometry Summary                 |
           -------------------------------------------------

      molecular mass/u    :     1091.1476000
   center of mass at/Å    :        1.9509924       9.9388837      -0.2800031
  moments of inertia/u·Å² :        0.1280968E+05   0.7544561E+05   0.8275497E+05
rotational constants/cm⁻¹ :        0.1316007E-02   0.2234409E-03   0.2037054E-03

 * 106 selected distances

     #   Z        #   Z                                     value/Å
     1   6 C      2   6 C                                 1.3723003
     3   6 C      4   7 N                                 1.1478078
     5   6 C      6   7 N                                 1.1491358
     7   6 C      8   6 C                                 1.4255568
     8   6 C      9   6 C                                 1.3651860
     9   6 C     10   6 C                                 1.4128359
    10   6 C     11   6 C                                 1.4248699
     7   6 C     12   6 C                                 1.3690520
    11   6 C     12   6 C                                 1.4147338
    11   6 C     13   6 C                                 1.4091281
    13   6 C     14   6 C                                 1.3689324
    14   6 C     15   6 C                                 1.4025174
    10   6 C     16   6 C                                 1.4083665
    15   6 C     16   6 C                                 1.3689723
    17   6 C     18   8 O                                 1.2229180
    19   6 C     20   6 C                                 1.3743532
    20   6 C     21   6 C                                 1.3969224
    21   6 C     22  16 S                                 1.7372459 (max)
    22  16 S     23   6 C                                 1.7269573
    23   6 C     24   6 C                                 1.4115488
    21   6 C     25   6 C                                 1.4219099
    24   6 C     25   6 C                                 1.4228058
    25   6 C     26   6 C                                 1.4023217
    26   6 C     27   6 C                                 1.3797168
    28   6 C     29   7 N                                 1.1451782
    27   6 C     30   6 C                                 1.4232754
    31   6 C     32   7 N                                 1.1454009
    24   6 C     33   6 C                                 1.4007583
    30   6 C     33   6 C                                 1.3768592
    23   6 C     34   6 C                                 1.4157278
    34   6 C     35   7 N                                 1.3730399
    35   7 N     36   6 C                                 1.4441139
    36   6 C     37   6 C                                 1.5253906
    35   7 N     38   6 C                                 1.4129057
    38   6 C     39   8 O                                 1.2116185
    38   6 C     40   6 C                                 1.4451125
    34   6 C     41   6 C                                 1.3985310
    40   6 C     41   6 C                                 1.4096671
    42   6 C     43   8 O                                 1.2129775
    42   6 C     44   7 N                                 1.4089294
    44   7 N     45   6 C                                 1.4438435
    45   6 C     46   6 C                                 1.5274636
    40   6 C     47   6 C                                 1.3990649
    44   7 N     47   6 C                                 1.3776586
    47   6 C     48   6 C                                 1.4091130
    48   6 C     49   6 C                                 1.3652519
    49   6 C     50   6 C                                 1.4057202
    50   6 C     51  16 S                                 1.7312885
    51  16 S     52   6 C                                 1.7341682
    52   6 C     53   6 C                                 1.4068076
    50   6 C     54   6 C                                 1.4140191
    53   6 C     54   6 C                                 1.4262983
    54   6 C     55   6 C                                 1.4018128
    55   6 C     56   6 C                                 1.3777265
    57   6 C     58   7 N                                 1.1455732
    56   6 C     59   6 C                                 1.4257134
    60   6 C     61   7 N                                 1.1454521
    53   6 C     62   6 C                                 1.4035693
    59   6 C     62   6 C                                 1.3757046
    52   6 C     63   6 C                                 1.4098993
    63   6 C     64   6 C                                 1.3686963
    65   6 C     66   6 C                                 1.3711414
    67   6 C     68   7 N                                 1.1478093
    69   6 C     70   7 N                                 1.1482988
    71   6 C     72   6 C                                 1.4249591
    73   6 C     74   8 O                                 1.2145831
    72   6 C     75   6 C                                 1.3652963
    75   6 C     76   6 C                                 1.4127655
    76   6 C     77   6 C                                 1.4252855
    71   6 C     78   6 C                                 1.3693184
    77   6 C     78   6 C                                 1.4143015
    77   6 C     79   6 C                                 1.4093401
    79   6 C     80   6 C                                 1.3687478
    80   6 C     81   6 C                                 1.4027209
    76   6 C     82   6 C                                 1.4085063
    81   6 C     82   6 C                                 1.3687976
     9   6 C     83   1 H                                 1.0799468
    12   6 C     84   1 H                                 1.0781948
    13   6 C     85   1 H                                 1.0800501
    14   6 C     86   1 H                                 1.0795602
    15   6 C     87   1 H                                 1.0796177
    16   6 C     88   1 H                                 1.0801921
    20   6 C     89   1 H                                 1.0808370
    26   6 C     90   1 H                                 1.0798709
    33   6 C     91   1 H                                 1.0769868 (min)
    36   6 C     92   1 H                                 1.0930473
    36   6 C     93   1 H                                 1.0938778
    37   6 C     94   1 H                                 1.0877461
    37   6 C     95   1 H                                 1.0858945
    37   6 C     96   1 H                                 1.0875189
    45   6 C     97   1 H                                 1.0923791
    45   6 C     98   1 H                                 1.0943880
    46   6 C     99   1 H                                 1.0882442
    46   6 C    100   1 H                                 1.0865575
    46   6 C    101   1 H                                 1.0872513
    48   6 C    102   1 H                                 1.0844058
    49   6 C    103   1 H                                 1.0778596
    55   6 C    104   1 H                                 1.0793664
    62   6 C    105   1 H                                 1.0784772
    63   6 C    106   1 H                                 1.0838908
    75   6 C    107   1 H                                 1.0799042
    78   6 C    108   1 H                                 1.0786074
    79   6 C    109   1 H                                 1.0800834
    80   6 C    110   1 H                                 1.0795927
    81   6 C    111   1 H                                 1.0796245
    82   6 C    112   1 H                                 1.0801103

 * 5 distinct bonds (by element types)

   Z      Z             #   av. dist./Å        max./Å        min./Å
   1 H    6 C          30     1.0831361     1.0943880     1.0769868
   6 C    6 C          54     1.4038036     1.5274636     1.3651860
   6 C    7 N          14     1.2596534     1.4441139     1.1451782
   6 C    8 O           4     1.2155243     1.2229180     1.2116185
   6 C   16 S           4     1.7324150     1.7372459     1.7269573


optimized geometry written to: xtbopt.xyz


           -------------------------------------------------
          | TOTAL ENERGY             -208.336616433837 Eh   |
          | GRADIENT NORM               0.000565620404 Eh/α |
          | HOMO-LUMO GAP               0.616793421030 eV   |
           -------------------------------------------------

------------------------------------------------------------------------
 * finished run on 2021/09/14 at 13:18:20.752     
------------------------------------------------------------------------
 total:
 * wall-time:     0 d,  0 h,  0 min, 27.489 sec
 *  cpu-time:     0 d,  0 h,  5 min, 29.577 sec
 * ratio c/w:    11.989 speedup
 SCF:
 * wall-time:     0 d,  0 h,  0 min,  0.257 sec
 *  cpu-time:     0 d,  0 h,  0 min,  3.063 sec
 * ratio c/w:    11.894 speedup
 ANC optimizer:
 * wall-time:     0 d,  0 h,  0 min, 27.180 sec
 *  cpu-time:     0 d,  0 h,  5 min, 26.005 sec
 * ratio c/w:    11.994 speedup

