      -----------------------------------------------------------      
     |                   =====================                   |     
     |                           x T B                           |     
     |                   =====================                   |     
     |                         S. Grimme                         |     
     |          Mulliken Center for Theoretical Chemistry        |     
     |                    University of Bonn                     |     
     |                Version 6.2 RC2 (SAW190805)                |     
      -----------------------------------------------------------      

   This program is distributed in the hope that it will be useful,
   but WITHOUT ANY WARRANTY; without even the implied warranty of
   MERCHANTABILITY or FITNESS FOR A PARTICULAR PURPOSE.
   
   FOR NON-COMMERCIAL, ACADEMIA USE ONLY.
   
   Cite this work as:
   * S. Grimme, C. Bannwarth, P. Shushkov, J. Chem. Theory Comput., 2017,
     13, 1989-2009. DOI: 10.1021/acs.jctc.7b00118
   * C. Bannwarth, S. Ehlert and S. Grimme., J. Chem. Theory Comput., 2019,
     15, 1652-1671. DOI: 10.1021/acs.jctc.8b01176
   * P. Pracht, E. Caldeweyher, S. Ehlert, S. Grimme, ChemRxiv, 2019, preprint.
     DOI: 10.26434/chemrxiv.8326202.v1
   
   for DFT-D4:
   * E. Caldeweyher, C. Bannwarth and S. Grimme, J. Chem. Phys., 2017,
     147, 034112. DOI: 10.1063/1.4993215
   * E. Caldeweyher, S. Ehlert, A. Hansen, H. Neugebauer, S. Spicher,
     C. Bannwarth and S. Grimme, J. Chem. Phys., 2019, 150, 154122.
     DOI: 10.1063/1.5090222
   
   for sTDA-xTB:
   * S. Grimme and C. Bannwarth, J. Chem. Phys., 2016, 145, 054103.
     DOI: 10.1063/1.4959605
   
   in the mass-spec context:
   * V. Asgeirsson, C. Bauer and S. Grimme, Chem. Sci., 2017, 8, 4879.
     DOI: 10.1039/c7sc00601b
   
   for metadynamics refer to:
   * S. Grimme, J. Chem. Theory Comput., 2019, 155, 2847-2862
     DOI: 10.1021/acs.jctc.9b00143
   
   with help from (in alphabetical order)
   C. Bannwarth, F. Bohle, G. Brandenburg, E. Caldeweyher, M. Checinski,
   S. Dohm, S. Ehlert, S. Ehrlich, F. März, H. Neugebauer, J. Pisarek,
   P. Pracht, P. Shushkov, and S. Spicher.
   
 * started run on 2021/09/17 at 21:03:31.557     

           -------------------------------------------------
          |                Calculation Setup                |
           -------------------------------------------------

          program call               : /ihome/ghutchison/geoffh/xtb/xtb /ihome/ghutchison/blp62/GA/running_GA/v5/generations/123/281_34_881_34_281_13031.xyz -opt
          hostname                   : smp-n19
          coordinate file            : /ihome/ghutchison/blp62/GA/running_GA/v5/generations/123/281_34_881_34_281_13031.xyz
          omp threads                :                    12
          number of atoms            :                   138
          number of electrons        :                   490
          charge                     :                     0
          spin                       :                   0.0
          first test random number   :      0.24689372255745


########################################################################
# WARNING! Please study the warnings concerning your input carefully
#  - XTBPATH is not set, using XTBHOME instead
#  - the use of '-opt' is discouraged, please use '--opt' next time
########################################################################

           ------------------------------------------------- 
          |                 G F N 2 - x T B                 |
          | Geometry, Frequencies, Noncovalent interactions |
          |            JCTC 2019 parametrisation            |
           ------------------------------------------------- 
             KAB for C  - Si     :                1.0500
             KAB for H  - Pd     :                0.9500
             k(s)              :                1.8500
             k(p)              :                2.2300
             k(d)              :                2.2300
             k(f)              :                2.0000
             kEN (H0ij)        :               -2.0000
             D4 a1             :                0.5200
             D4 a2             :                5.0000
             D4 s6             :                1.0000
             D4 s8             :                2.7000
             D4 s9             :                5.0000
             alphaj            :                2.0000

  Z AO/shell   Hii/eV     exponent
  1     Wed Apr 25 08:07:45 CEST 2018   EN: 2.200 GM2: 0.406  GM3: 0.0800  RAES: 1.40
     1s    -10.707211    1.230000
  6     Wed Apr 25 08:07:45 CEST 2018   EN: 2.550 GM2: 0.538  GM3: 0.1500  RAES: 3.00
     2s    -13.970922    2.096432
     2p    -10.063292    1.800000
  7     Wed Apr 25 08:07:45 CEST 2018   EN: 3.040 GM2: 0.461  GM3:-0.0640  RAES: 1.90
     2s    -16.686243    2.339881
     2p    -12.523956    2.014332
  8     Wed Apr 25 08:07:45 CEST 2018   EN: 3.440 GM2: 0.452  GM3:-0.0517  RAES: 1.80
     2s    -20.229985    2.439742
     2p    -15.503117    2.137023
  9     Mon Apr 23 13:58:50 CEST 2018   EN: 3.980 GM2: 0.532  GM3: 0.1426  RAES: 2.40
     2s    -23.458179    2.416361
     2p    -15.746583    2.308399

           ------------------------------------------------- 
          |        Self-Consistent Charge Iterations        |
           ------------------------------------------------- 

          ...................................................
          :                      SETUP                      :
          :.................................................:
          :  # basis functions                 444          :
          :  # atomic orbitals                 444          :
          :  # shells                          240          :
          :  # electrons                       490          :
          :  max. iterations                   250          :
          :  Hamiltonian                  GFN2-xTB          :
          :  restarted?                      false          :
          :  GBSA solvation                  false          :
          :  PC potential                    false          :
          :  electronic temp.          300.0000000     K    :
          :  accuracy                    1.0000000          :
          :  -> integral cutoff          0.2500000E+02      :
          :  -> integral neglect         0.1000000E-07      :
          :  -> SCF convergence          0.1000000E-05 Eh   :
          :  -> wf. convergence          0.1000000E-03 e    :
          :  Broyden damping             0.4000000          :
          ...................................................

 iter      E             dE          RMSdq      gap      omega  full diag
   1   -280.3352504 -0.280335E+03  0.554E+00    0.82       0.0  T
   2   -280.9366356 -0.601385E+00  0.319E+00    0.76       1.0  T
   3   -280.7710457  0.165590E+00  0.217E+00    0.54       1.0  T
   4   -281.0437256 -0.272680E+00  0.112E+00    0.71       1.0  T
   5   -281.1495364 -0.105811E+00  0.326E-01    0.54       1.0  T
   6   -281.1633567 -0.138202E-01  0.120E-01    0.54       1.0  T
   7   -281.1647180 -0.136133E-02  0.710E-02    0.55       1.0  T
   8   -281.1650671 -0.349144E-03  0.352E-02    0.55       1.0  T
   9   -281.1651826 -0.115473E-03  0.157E-02    0.55       1.0  T
  10   -281.1652041 -0.214827E-04  0.684E-03    0.55       1.2  T
  11   -281.1652066 -0.251626E-05  0.322E-03    0.55       2.6  T
  12   -281.1652074 -0.793560E-06  0.156E-03    0.55       5.5  T
  13   -281.1652076 -0.245269E-06  0.826E-04    0.55      10.3  T
  14   -281.1652077 -0.531319E-07  0.475E-04    0.55      17.9  T

   *** convergence criteria satisfied after 14 iterations ***

         #    Occupation            Energy/Eh            Energy/eV
      -------------------------------------------------------------
         1        2.0000           -0.8577513             -23.3406
       ...           ...                  ...                  ...
       239        2.0000           -0.4309229             -11.7260
       240        2.0000           -0.4277137             -11.6387
       241        2.0000           -0.4237600             -11.5311
       242        2.0000           -0.4231677             -11.5150
       243        2.0000           -0.4176187             -11.3640
       244        2.0000           -0.4137685             -11.2592
       245        2.0000           -0.4111627             -11.1883 (HOMO)
       246        0.0000           -0.3908374             -10.6352 (LUMO)
       247                         -0.3753919             -10.2149
       248                         -0.3561510              -9.6914
       249                         -0.3455663              -9.4033
       250                         -0.3402607              -9.2590
       ...                                ...                  ...
       444                          1.1365243              30.9264
      -------------------------------------------------------------
                  HL-Gap            0.0203252 Eh            0.5531 eV
             Fermi-level           -0.4009699 Eh          -10.9109 eV

 SCC (total)                   0 d,  0 h,  0 min,  0.302 sec
 SCC setup                      ...        0 min,  0.004 sec (  1.193%)
 Dispersion                     ...        0 min,  0.008 sec (  2.587%)
 integral evaluation            ...        0 min,  0.034 sec ( 11.380%)
 zeroth order Hamiltonian       ...        0 min,  0.002 sec (  0.574%)
 iterations                     ...        0 min,  0.223 sec ( 73.921%)
 molecular gradient             ...        0 min,  0.030 sec (  9.890%)
 printout                       ...        0 min,  0.001 sec (  0.425%)

         :::::::::::::::::::::::::::::::::::::::::::::::::::::
         ::                     SUMMARY                     ::
         :::::::::::::::::::::::::::::::::::::::::::::::::::::
         :: total energy            -277.247863861263 Eh    ::
         :: gradient norm              0.219329700863 Eh/a0 ::
         :: HOMO-LUMO gap              0.553077804398 eV    ::
         ::.................................................::
         :: SCC energy              -281.165207702985 Eh    ::
         :: -> isotropic ES            0.385238979732 Eh    ::
         :: -> anisotropic ES          0.026505916069 Eh    ::
         :: -> anisotropic XC          0.118797563368 Eh    ::
         :: -> dispersion             -0.214910340979 Eh    ::
         :: repulsion energy           3.910825865220 Eh    ::
         :: add. restraining           0.000000000000 Eh    ::
         :::::::::::::::::::::::::::::::::::::::::::::::::::::

      ----------------------------------------------------------- 
     |                   =====================                   |
     |                        A N C O P T                        |
     |                   =====================                   |
     |               Approximate Normal Coordinate               |
     |                Rational Function Optimizer                |
      ----------------------------------------------------------- 

          ...................................................
          :                      SETUP                      :
          :.................................................:
          :   optimization level            normal          :
          :   max. optcycles                   414          :
          :   ANC micro-cycles                  20          :
          :   degrees of freedom               408          :
          :.................................................:
          :   RF solver                   davidson          :
          :   input Hessian                  false          :
          :   write xtbopt.log                true          :
          :   linear?                        false          :
          :   energy convergence         0.5000000E-05 Eh   :
          :   grad. convergence          0.1000000E-02 Eh/α :
          :   maximium RF displ.         2.0000000          :
          :   Hlow (freq-cutoff)         0.5000000E-02      :
          :   Hmax (freq-cutoff)         5.0000000          :
          :   S6 in model hess.         20.0000000          :
          ...................................................

generating ANC from model Hessian ...
Using Lindh-Hessian (1995)
 Shifting diagonal of input Hessian by   5.021495379589824E-003
 Lowest  eigenvalues of input Hessian
    0.005000    0.005013   -0.000000   -0.000000   -0.000000    0.000000
    0.000000    0.000000    0.005028    0.005058    0.005080    0.005115
    0.005125    0.005159    0.005246    0.005280    0.005346    0.005426
 Highest eigenvalues
    2.457196    2.472791    2.502223    2.535330    2.577200    2.620244
 

........................................................................
.............................. CYCLE    1 ..............................
........................................................................
   1   -281.1652077 -0.281165E+03  0.175E-04    0.55       0.0  T
   2   -281.1652077  0.782222E-09  0.150E-04    0.55      56.9  T
   3   -281.1652077 -0.267539E-08  0.773E-05    0.55     110.2  T
     SCC iter.                  ...        0 min,  0.051 sec
     gradient                   ...        0 min,  0.029 sec
 * total energy  :  -277.2478637 Eh     change        0.1930392E-06 Eh
   gradient norm :     0.2193353 Eh/α   predicted     0.0000000E+00 (-100.00%)
   displ. norm   :     0.4933957 α      lambda       -0.5620668E-01
   maximum displ.:     0.1041657 α      in ANC's #132, #75, #56, ...

........................................................................
.............................. CYCLE    2 ..............................
........................................................................
   1   -281.2827643 -0.281283E+03  0.224E-01    0.49       0.0  T
   2   -281.2836503 -0.886018E-03  0.128E-01    0.53       1.0  T
   3   -281.2829781  0.672215E-03  0.938E-02    0.49       1.0  T
   4   -281.2835662 -0.588109E-03  0.537E-02    0.51       1.0  T
   5   -281.2839140 -0.347756E-03  0.221E-02    0.52       1.0  T
   6   -281.2839920 -0.780334E-04  0.673E-03    0.51       1.3  T
   7   -281.2839981 -0.611719E-05  0.287E-03    0.51       3.0  T
   8   -281.2839980  0.631752E-07  0.181E-03    0.51       4.7  T
   9   -281.2839984 -0.316557E-06  0.676E-04    0.51      12.6  T
     SCC iter.                  ...        0 min,  0.142 sec
     gradient                   ...        0 min,  0.028 sec
 * total energy  :  -277.2876370 Eh     change       -0.3977337E-01 Eh
   gradient norm :     0.0881337 Eh/α   predicted    -0.3494487E-01 ( -12.14%)
   displ. norm   :     0.6199211 α      lambda       -0.2629315E-01
   maximum displ.:     0.1410683 α      in ANC's #48, #31, #38, ...

........................................................................
.............................. CYCLE    3 ..............................
........................................................................
   1   -281.3425181 -0.281343E+03  0.205E-01    0.44       0.0  T
   2   -281.3427583 -0.240239E-03  0.121E-01    0.47       1.0  T
   3   -281.3412797  0.147861E-02  0.117E-01    0.44       1.0  T
   4   -281.3430033 -0.172360E-02  0.386E-02    0.45       1.0  T
   5   -281.3431509 -0.147571E-03  0.177E-02    0.47       1.0  T
   6   -281.3431999 -0.490661E-04  0.667E-03    0.46       1.3  T
   7   -281.3432055 -0.562579E-05  0.313E-03    0.46       2.7  T
   8   -281.3432057 -0.180258E-06  0.213E-03    0.46       4.0  T
     SCC iter.                  ...        0 min,  0.128 sec
     gradient                   ...        0 min,  0.028 sec
 * total energy  :  -277.3053813 Eh     change       -0.1774428E-01 Eh
   gradient norm :     0.0401478 Eh/α   predicted    -0.1819884E-01 (   2.56%)
   displ. norm   :     0.7191788 α      lambda       -0.1539349E-01
   maximum displ.:     0.2029815 α      in ANC's #31, #56, #48, ...

........................................................................
.............................. CYCLE    4 ..............................
........................................................................
   1   -281.3591798 -0.281359E+03  0.220E-01    0.43       0.0  T
   2   -281.3590348  0.144984E-03  0.136E-01    0.45       1.0  T
   3   -281.3553072  0.372764E-02  0.151E-01    0.42       1.0  T
   4   -281.3594730 -0.416579E-02  0.328E-02    0.44       1.0  T
   5   -281.3596212 -0.148240E-03  0.122E-02    0.45       1.0  T
   6   -281.3596421 -0.208376E-04  0.496E-03    0.44       1.7  T
   7   -281.3596425 -0.467439E-06  0.345E-03    0.44       2.5  T
   8   -281.3596432 -0.717029E-06  0.175E-03    0.44       4.9  T
     SCC iter.                  ...        0 min,  0.132 sec
     gradient                   ...        0 min,  0.030 sec
 * total energy  :  -277.3165583 Eh     change       -0.1117698E-01 Eh
   gradient norm :     0.0358045 Eh/α   predicted    -0.1167764E-01 (   4.48%)
   displ. norm   :     0.7569932 α      lambda       -0.1189014E-01
   maximum displ.:     0.2349023 α      in ANC's #31, #38, #35, ...

........................................................................
.............................. CYCLE    5 ..............................
........................................................................
   1   -281.3723989 -0.281372E+03  0.211E-01    0.42       0.0  T
   2   -281.3724034 -0.447905E-05  0.127E-01    0.44       1.0  T
   3   -281.3699178  0.248560E-02  0.124E-01    0.41       1.0  T
   4   -281.3725994 -0.268167E-02  0.283E-02    0.43       1.0  T
   5   -281.3727143 -0.114869E-03  0.125E-02    0.44       1.0  T
   6   -281.3727389 -0.245868E-04  0.499E-03    0.43       1.7  T
   7   -281.3727402 -0.134910E-05  0.328E-03    0.43       2.6  T
   8   -281.3727409 -0.670331E-06  0.155E-03    0.43       5.5  T
     SCC iter.                  ...        0 min,  0.127 sec
     gradient                   ...        0 min,  0.028 sec
 * total energy  :  -277.3258553 Eh     change       -0.9296976E-02 Eh
   gradient norm :     0.0279497 Eh/α   predicted    -0.9351825E-02 (   0.59%)
   displ. norm   :     0.8026916 α      lambda       -0.9994590E-02
   maximum displ.:     0.2287366 α      in ANC's #31, #39, #38, ...

........................................................................
.............................. CYCLE    6 ..............................
........................................................................
   1   -281.3776338 -0.281378E+03  0.235E-01    0.43       0.0  T
   2   -281.3777270 -0.932189E-04  0.137E-01    0.45       1.0  T
   3   -281.3761807  0.154625E-02  0.946E-02    0.42       1.0  T
   4   -281.3777396 -0.155889E-02  0.289E-02    0.45       1.0  T
   5   -281.3778844 -0.144762E-03  0.106E-02    0.44       1.0  T
   6   -281.3778988 -0.144234E-04  0.512E-03    0.44       1.7  T
   7   -281.3779001 -0.128295E-05  0.290E-03    0.44       2.9  T
   8   -281.3779008 -0.703820E-06  0.140E-03    0.44       6.1  T
     SCC iter.                  ...        0 min,  0.127 sec
     gradient                   ...        0 min,  0.028 sec
 * total energy  :  -277.3328780 Eh     change       -0.7022761E-02 Eh
   gradient norm :     0.0357516 Eh/α   predicted    -0.8217118E-02 (  17.01%)
   displ. norm   :     0.7672749 α      lambda       -0.9042453E-02
   maximum displ.:     0.2670466 α      in ANC's #31, #38, #35, ...

........................................................................
.............................. CYCLE    7 ..............................
........................................................................
   1   -281.3911902 -0.281391E+03  0.226E-01    0.44       0.0  T
   2   -281.3912284 -0.381874E-04  0.133E-01    0.46       1.0  T
   3   -281.3887934  0.243499E-02  0.111E-01    0.43       1.0  T
   4   -281.3912824 -0.248902E-02  0.306E-02    0.45       1.0  T
   5   -281.3914493 -0.166910E-03  0.973E-03    0.45       1.0  T
   6   -281.3914606 -0.112542E-04  0.531E-03    0.45       1.6  T
   7   -281.3914619 -0.131117E-05  0.320E-03    0.45       2.7  T
   8   -281.3914628 -0.938183E-06  0.152E-03    0.45       5.6  T
     SCC iter.                  ...        0 min,  0.128 sec
     gradient                   ...        0 min,  0.028 sec
 * total energy  :  -277.3396466 Eh     change       -0.6768578E-02 Eh
   gradient norm :     0.0334174 Eh/α   predicted    -0.7182924E-02 (   6.12%)
   displ. norm   :     0.7752929 α      lambda       -0.7937752E-02
   maximum displ.:     0.2188842 α      in ANC's #29, #23, #31, ...

........................................................................
.............................. CYCLE    8 ..............................
........................................................................
   1   -281.3986452 -0.281399E+03  0.249E-01    0.44       0.0  T
   2   -281.3989282 -0.282958E-03  0.144E-01    0.46       1.0  T
   3   -281.3981555  0.772703E-03  0.807E-02    0.44       1.0  T
   4   -281.3987003 -0.544801E-03  0.454E-02    0.46       1.0  T
   5   -281.3990987 -0.398351E-03  0.895E-03    0.45       1.0  T
   6   -281.3991035 -0.480458E-05  0.575E-03    0.45       1.5  T
   7   -281.3991056 -0.218325E-05  0.298E-03    0.45       2.9  T
     SCC iter.                  ...        0 min,  0.111 sec
     gradient                   ...        0 min,  0.028 sec
 * total energy  :  -277.3442234 Eh     change       -0.4576757E-02 Eh
   gradient norm :     0.0478321 Eh/α   predicted    -0.6354485E-02 (  38.84%)
   displ. norm   :     0.6733367 α      lambda       -0.7874379E-02
   maximum displ.:     0.1796575 α      in ANC's #7, #31, #29, ...

........................................................................
.............................. CYCLE    9 ..............................
........................................................................
   1   -281.4131595 -0.281413E+03  0.195E-01    0.45       0.0  T
   2   -281.4133161 -0.156601E-03  0.113E-01    0.45       1.0  T
   3   -281.4125764  0.739663E-03  0.756E-02    0.44       1.0  T
   4   -281.4131477 -0.571252E-03  0.405E-02    0.45       1.0  T
   5   -281.4134465 -0.298839E-03  0.772E-03    0.45       1.1  T
   6   -281.4134502 -0.369139E-05  0.533E-03    0.45       1.6  T
   7   -281.4134535 -0.334388E-05  0.255E-03    0.45       3.3  T
     SCC iter.                  ...        0 min,  0.110 sec
     gradient                   ...        0 min,  0.028 sec
 * total energy  :  -277.3501579 Eh     change       -0.5934546E-02 Eh
   gradient norm :     0.0233668 Eh/α   predicted    -0.5722239E-02 (  -3.58%)
   displ. norm   :     0.7912619 α      lambda       -0.6328044E-02
   maximum displ.:     0.2197207 α      in ANC's #7, #23, #11, ...

........................................................................
.............................. CYCLE   10 ..............................
........................................................................
   1   -281.4058976 -0.281406E+03  0.244E-01    0.44       0.0  T
   2   -281.4062075 -0.309918E-03  0.142E-01    0.45       1.0  T
   3   -281.4055692  0.638303E-03  0.811E-02    0.42       1.0  T
   4   -281.4061461 -0.576880E-03  0.364E-02    0.46       1.0  T
   5   -281.4063989 -0.252763E-03  0.911E-03    0.45       1.0  T
   6   -281.4064045 -0.564326E-05  0.600E-03    0.45       1.4  T
   7   -281.4064079 -0.338789E-05  0.294E-03    0.45       2.9  T
     SCC iter.                  ...        0 min,  0.110 sec
     gradient                   ...        0 min,  0.028 sec
 * total energy  :  -277.3545756 Eh     change       -0.4417682E-02 Eh
   gradient norm :     0.0441787 Eh/α   predicted    -0.5145006E-02 (  16.46%)
   displ. norm   :     0.7477899 α      lambda       -0.6346161E-02
   maximum displ.:     0.2268680 α      in ANC's #7, #11, #23, ...

........................................................................
.............................. CYCLE   11 ..............................
........................................................................
   1   -281.4176925 -0.281418E+03  0.204E-01    0.43       0.0  T
   2   -281.4179248 -0.232317E-03  0.119E-01    0.46       1.0  T
   3   -281.4174596  0.465256E-03  0.723E-02    0.43       1.0  T
   4   -281.4179182 -0.458581E-03  0.298E-02    0.45       1.0  T
   5   -281.4180592 -0.141045E-03  0.926E-03    0.44       1.0  T
   6   -281.4180695 -0.103227E-04  0.511E-03    0.45       1.7  T
   7   -281.4180720 -0.247124E-05  0.255E-03    0.45       3.3  T
   8   -281.4180721 -0.112435E-06  0.200E-03    0.45       4.3  T
     SCC iter.                  ...        0 min,  0.126 sec
     gradient                   ...        0 min,  0.028 sec
 * total energy  :  -277.3589247 Eh     change       -0.4349063E-02 Eh
   gradient norm :     0.0358336 Eh/α   predicted    -0.4947435E-02 (  13.76%)
   displ. norm   :     0.7193873 α      lambda       -0.6145164E-02
   maximum displ.:     0.2358866 α      in ANC's #7, #11, #15, ...

........................................................................
.............................. CYCLE   12 ..............................
........................................................................
   1   -281.4312085 -0.281431E+03  0.211E-01    0.43       0.0  T
   2   -281.4314513 -0.242814E-03  0.121E-01    0.43       1.0  T
   3   -281.4304547  0.996690E-03  0.860E-02    0.43       1.0  T
   4   -281.4313091 -0.854444E-03  0.397E-02    0.43       1.0  T
   5   -281.4315873 -0.278236E-03  0.125E-02    0.43       1.0  T
   6   -281.4316072 -0.198235E-04  0.572E-03    0.43       1.5  T
   7   -281.4316102 -0.309250E-05  0.292E-03    0.43       2.9  T
   8   -281.4316102  0.112946E-07  0.233E-03    0.43       3.7  T
     SCC iter.                  ...        0 min,  0.125 sec
     gradient                   ...        0 min,  0.028 sec
 * total energy  :  -277.3627640 Eh     change       -0.3839336E-02 Eh
   gradient norm :     0.0323732 Eh/α   predicted    -0.4662694E-02 (  21.45%)
   displ. norm   :     0.7637108 α      lambda       -0.5273990E-02
   maximum displ.:     0.2470958 α      in ANC's #7, #11, #18, ...

........................................................................
.............................. CYCLE   13 ..............................
........................................................................
   1   -281.4171486 -0.281417E+03  0.232E-01    0.41       0.0  T
   2   -281.4176116 -0.462973E-03  0.138E-01    0.43       1.0  T
   3   -281.4168957  0.715905E-03  0.909E-02    0.41       1.0  T
   4   -281.4175523 -0.656648E-03  0.437E-02    0.44       1.0  T
   5   -281.4178671 -0.314794E-03  0.149E-02    0.42       1.0  T
   6   -281.4178979 -0.307878E-04  0.721E-03    0.42       1.2  T
   7   -281.4179044 -0.652887E-05  0.312E-03    0.42       2.7  T
   8   -281.4179041  0.313948E-06  0.257E-03    0.42       3.3  T
   9   -281.4179050 -0.865389E-06  0.877E-04    0.42       9.7  T
     SCC iter.                  ...        0 min,  0.140 sec
     gradient                   ...        0 min,  0.028 sec
 * total energy  :  -277.3663589 Eh     change       -0.3594942E-02 Eh
   gradient norm :     0.0409150 Eh/α   predicted    -0.4175036E-02 (  16.14%)
   displ. norm   :     0.6939220 α      lambda       -0.5053197E-02
   maximum displ.:     0.2527862 α      in ANC's #7, #11, #15, ...

........................................................................
.............................. CYCLE   14 ..............................
........................................................................
   1   -281.4186241 -0.281419E+03  0.196E-01    0.42       0.0  T
   2   -281.4188861 -0.261966E-03  0.115E-01    0.45       1.0  T
   3   -281.4182070  0.679072E-03  0.836E-02    0.42       1.0  T
   4   -281.4188679 -0.660905E-03  0.367E-02    0.44       1.0  T
   5   -281.4190698 -0.201911E-03  0.133E-02    0.43       1.0  T
   6   -281.4190977 -0.278360E-04  0.537E-03    0.43       1.6  T
   7   -281.4191004 -0.268931E-05  0.275E-03    0.43       3.1  T
   8   -281.4191005 -0.151657E-06  0.205E-03    0.43       4.2  T
     SCC iter.                  ...        0 min,  0.131 sec
     gradient                   ...        0 min,  0.029 sec
 * total energy  :  -277.3691954 Eh     change       -0.2836487E-02 Eh
   gradient norm :     0.0469957 Eh/α   predicted    -0.3743230E-02 (  31.97%)
   displ. norm   :     0.6468145 α      lambda       -0.4952695E-02
   maximum displ.:     0.2452787 α      in ANC's #7, #11, #15, ...

........................................................................
.............................. CYCLE   15 ..............................
........................................................................
   1   -281.4267107 -0.281427E+03  0.184E-01    0.41       0.0  T
   2   -281.4271483 -0.437520E-03  0.110E-01    0.42       1.0  T
   3   -281.4269961  0.152150E-03  0.643E-02    0.40       1.0  T
   4   -281.4270783 -0.822030E-04  0.393E-02    0.43       1.0  T
   5   -281.4273425 -0.264159E-03  0.112E-02    0.41       1.0  T
   6   -281.4273560 -0.134726E-04  0.584E-03    0.42       1.5  T
   7   -281.4273598 -0.385143E-05  0.255E-03    0.42       3.3  T
   8   -281.4273596  0.163200E-06  0.186E-03    0.41       4.6  T
     SCC iter.                  ...        0 min,  0.125 sec
     gradient                   ...        0 min,  0.028 sec
 * total energy  :  -277.3719358 Eh     change       -0.2740394E-02 Eh
   gradient norm :     0.0472627 Eh/α   predicted    -0.3512377E-02 (  28.17%)
   displ. norm   :     0.6418285 α      lambda       -0.5457449E-02
   maximum displ.:     0.2258104 α      in ANC's #7, #11, #15, ...

........................................................................
.............................. CYCLE   16 ..............................
........................................................................
   1   -281.4365777 -0.281437E+03  0.223E-01    0.40       0.0  T
   2   -281.4370569 -0.479223E-03  0.129E-01    0.39       1.0  T
   3   -281.4361748  0.882077E-03  0.957E-02    0.42       1.0  T
   4   -281.4369595 -0.784635E-03  0.493E-02    0.39       1.0  T
   5   -281.4373483 -0.388845E-03  0.152E-02    0.40       1.0  T
   6   -281.4373780 -0.297106E-04  0.784E-03    0.40       1.1  T
   7   -281.4373862 -0.817492E-05  0.337E-03    0.40       2.5  T
   8   -281.4373861  0.492423E-07  0.262E-03    0.40       3.2  T
   9   -281.4373869 -0.795709E-06  0.778E-04    0.40      10.9  T
     SCC iter.                  ...        0 min,  0.140 sec
     gradient                   ...        0 min,  0.028 sec
 * total energy  :  -277.3737033 Eh     change       -0.1767514E-02 Eh
   gradient norm :     0.0555526 Eh/α   predicted    -0.3852806E-02 ( 117.98%)
   displ. norm   :     0.5364648 α      lambda       -0.6267165E-02
   maximum displ.:     0.1900651 α      in ANC's #7, #11, #17, ...

........................................................................
.............................. CYCLE   17 ..............................
........................................................................
   1   -281.4411487 -0.281441E+03  0.217E-01    0.42       0.0  T
   2   -281.4416997 -0.550984E-03  0.127E-01    0.41       1.0  T
   3   -281.4405514  0.114823E-02  0.102E-01    0.41       1.0  T
   4   -281.4417541 -0.120262E-02  0.425E-02    0.41       1.0  T
   5   -281.4419805 -0.226396E-03  0.207E-02    0.41       1.0  T
   6   -281.4420501 -0.696163E-04  0.791E-03    0.41       1.1  T
   7   -281.4420577 -0.760119E-05  0.351E-03    0.41       2.4  T
   8   -281.4420579 -0.242824E-06  0.239E-03    0.41       3.6  T
   9   -281.4420585 -0.582523E-06  0.751E-04    0.41      11.3  T
     SCC iter.                  ...        0 min,  0.141 sec
     gradient                   ...        0 min,  0.028 sec
 * total energy  :  -277.3753376 Eh     change       -0.1634276E-02 Eh
   gradient norm :     0.0576843 Eh/α   predicted    -0.4035413E-02 ( 146.92%)
   displ. norm   :     0.5132270 α      lambda       -0.5332027E-02
   maximum displ.:     0.1927809 α      in ANC's #7, #11, #15, ...

........................................................................
.............................. CYCLE   18 ..............................
........................................................................
   1   -281.4368260 -0.281437E+03  0.173E-01    0.39       0.0  T
   2   -281.4371208 -0.294797E-03  0.100E-01    0.42       1.0  T
   3   -281.4368716  0.249112E-03  0.618E-02    0.39       1.0  T
   4   -281.4370563 -0.184638E-03  0.353E-02    0.42       1.0  T
   5   -281.4372284 -0.172135E-03  0.983E-03    0.41       1.0  T
   6   -281.4372385 -0.100375E-04  0.479E-03    0.41       1.8  T
   7   -281.4372405 -0.208734E-05  0.221E-03    0.41       3.8  T
   8   -281.4372404  0.164132E-06  0.172E-03    0.41       4.9  T
     SCC iter.                  ...        0 min,  0.126 sec
     gradient                   ...        0 min,  0.028 sec
 * total energy  :  -277.3784697 Eh     change       -0.3132089E-02 Eh
   gradient norm :     0.0361074 Eh/α   predicted    -0.3368248E-02 (   7.54%)
   displ. norm   :     0.5950335 α      lambda       -0.4834146E-02
   maximum displ.:     0.2304984 α      in ANC's #7, #11, #8, ...

........................................................................
.............................. CYCLE   19 ..............................
........................................................................
   1   -281.4254043 -0.281425E+03  0.239E-01    0.41       0.0  T
   2   -281.4264691 -0.106478E-02  0.138E-01    0.40       1.0  T
   3   -281.4264013  0.677239E-04  0.919E-02    0.42       1.0  T
   4   -281.4263513  0.500246E-04  0.658E-02    0.39       1.0  T
   5   -281.4269680 -0.616669E-03  0.169E-02    0.41       1.0  T
   6   -281.4269994 -0.314341E-04  0.884E-03    0.41       1.0  T
   7   -281.4270093 -0.983285E-05  0.402E-03    0.41       2.1  T
   8   -281.4270087  0.574155E-06  0.322E-03    0.41       2.6  T
   9   -281.4270101 -0.138765E-05  0.113E-03    0.41       7.6  T
     SCC iter.                  ...        0 min,  0.140 sec
     gradient                   ...        0 min,  0.028 sec
 * total energy  :  -277.3775239 Eh     change        0.9457822E-03 Eh
   gradient norm :     0.0822744 Eh/α   predicted    -0.3272879E-02 (-446.05%)
   displ. norm   :     0.3671726 α      lambda       -0.7917537E-02
   maximum displ.:     0.1310809 α      in ANC's #7, #11, #8, ...

........................................................................
.............................. CYCLE   20 ..............................
........................................................................
   1   -281.4413504 -0.281441E+03  0.176E-01    0.40       0.0  T
   2   -281.4420825 -0.732021E-03  0.101E-01    0.39       1.0  T
   3   -281.4420847 -0.221002E-05  0.675E-02    0.39       1.0  T
   4   -281.4420733  0.113881E-04  0.497E-02    0.40       1.0  T
   5   -281.4423692 -0.295901E-03  0.126E-02    0.39       1.0  T
   6   -281.4423847 -0.155190E-04  0.686E-03    0.39       1.2  T
   7   -281.4423909 -0.617404E-05  0.293E-03    0.39       2.9  T
   8   -281.4423906  0.257561E-06  0.233E-03    0.39       3.7  T
   9   -281.4423912 -0.579406E-06  0.102E-03    0.39       8.4  T
     SCC iter.                  ...        0 min,  0.141 sec
     gradient                   ...        0 min,  0.028 sec
 * total energy  :  -277.3817073 Eh     change       -0.4183377E-02 Eh
   gradient norm :     0.0319080 Eh/α   predicted    -0.4492481E-02 (   7.39%)
   displ. norm   :     0.6028213 α      lambda       -0.4294981E-02
   maximum displ.:     0.2293965 α      in ANC's #7, #11, #8, ...
 * RMSD in coord.:     0.9373752 α      energy gain  -0.1338434E+00 Eh

generating ANC from model Hessian ...
Using Lindh-Hessian (1995)
 Shifting diagonal of input Hessian by   5.160655680501256E-003
 Lowest  eigenvalues of input Hessian
    0.005000    0.005144    0.005150   -0.000000   -0.000000   -0.000000
    0.000000    0.000000    0.000000    0.005172    0.005204    0.005231
    0.005266    0.005290    0.005323    0.005469    0.005518    0.005552
 Highest eigenvalues
    2.596769    2.599049    2.600112    2.611111    2.653304    2.726638
 

........................................................................
.............................. CYCLE   21 ..............................
........................................................................
   1   -281.4509988 -0.281451E+03  0.213E-01    0.39       0.0  T
   2   -281.4513347 -0.335942E-03  0.123E-01    0.40       1.0  T
   3   -281.4507162  0.618583E-03  0.770E-02    0.39       1.0  T
   4   -281.4512786 -0.562441E-03  0.337E-02    0.41       1.0  T
   5   -281.4514719 -0.193328E-03  0.133E-02    0.40       1.0  T
   6   -281.4515005 -0.285290E-04  0.552E-03    0.40       1.5  T
   7   -281.4515036 -0.316440E-05  0.289E-03    0.40       2.9  T
   8   -281.4515038 -0.174397E-06  0.193E-03    0.40       4.4  T
   9   -281.4515043 -0.495585E-06  0.625E-04    0.40      13.6  T
  10   -281.4515043 -0.483066E-07  0.270E-04    0.40      31.5  T
     SCC iter.                  ...        0 min,  0.156 sec
     gradient                   ...        0 min,  0.029 sec
 * total energy  :  -277.3817835 Eh     change       -0.7621846E-04 Eh
   gradient norm :     0.0825379 Eh/α   predicted     0.0000000E+00 (-100.00%)
   displ. norm   :     0.3379417 α      lambda       -0.6407559E-02
   maximum displ.:     0.0946163 α      in ANC's #41, #11, #8, ...

........................................................................
.............................. CYCLE   22 ..............................
........................................................................
   1   -281.4441331 -0.281444E+03  0.171E-01    0.40       0.0  T
   2   -281.4442622 -0.129066E-03  0.969E-02    0.40       1.0  T
   3   -281.4439613  0.300935E-03  0.515E-02    0.40       1.0  T
   4   -281.4443021 -0.340853E-03  0.127E-02    0.39       1.0  T
   5   -281.4443222 -0.201269E-04  0.655E-03    0.40       1.3  T
   6   -281.4443277 -0.542240E-05  0.355E-03    0.40       2.4  T
   7   -281.4443289 -0.123096E-05  0.178E-03    0.40       4.8  T
     SCC iter.                  ...        0 min,  0.110 sec
     gradient                   ...        0 min,  0.028 sec
 * total energy  :  -277.3849991 Eh     change       -0.3215582E-02 Eh
   gradient norm :     0.0268542 Eh/α   predicted    -0.3569671E-02 (  11.01%)
   displ. norm   :     0.4227158 α      lambda       -0.3198463E-02
   maximum displ.:     0.1128223 α      in ANC's #72, #29, #27, ...

........................................................................
.............................. CYCLE   23 ..............................
........................................................................
   1   -281.4430604 -0.281443E+03  0.256E-01    0.41       0.0  T
   2   -281.4431689 -0.108531E-03  0.144E-01    0.41       1.0  T
   3   -281.4421973  0.971631E-03  0.806E-02    0.42       1.0  T
   4   -281.4432611 -0.106380E-02  0.154E-02    0.41       1.0  T
   5   -281.4432919 -0.308119E-04  0.841E-03    0.41       1.0  T
   6   -281.4433010 -0.904197E-05  0.375E-03    0.41       2.3  T
   7   -281.4433015 -0.530002E-06  0.206E-03    0.41       4.1  T
   8   -281.4433016 -0.109122E-06  0.146E-03    0.41       5.8  T
     SCC iter.                  ...        0 min,  0.125 sec
     gradient                   ...        0 min,  0.028 sec
 * total energy  :  -277.3851581 Eh     change       -0.1590345E-03 Eh
   gradient norm :     0.0609046 Eh/α   predicted    -0.1885148E-02 (1085.37%)
   displ. norm   :     0.3706900 α      lambda       -0.4842395E-02
   maximum displ.:     0.1006838 α      in ANC's #16, #25, #8, ...

........................................................................
.............................. CYCLE   24 ..............................
........................................................................
   1   -281.4538405 -0.281454E+03  0.224E-01    0.41       0.0  T
   2   -281.4539185 -0.779549E-04  0.126E-01    0.42       1.0  T
   3   -281.4532537  0.664779E-03  0.672E-02    0.40       1.0  T
   4   -281.4539753 -0.721647E-03  0.130E-02    0.41       1.0  T
   5   -281.4539927 -0.173314E-04  0.616E-03    0.41       1.4  T
   6   -281.4539958 -0.314925E-05  0.308E-03    0.41       2.8  T
   7   -281.4539961 -0.337086E-06  0.174E-03    0.41       4.9  T
     SCC iter.                  ...        0 min,  0.110 sec
     gradient                   ...        0 min,  0.028 sec
 * total energy  :  -277.3871339 Eh     change       -0.1975756E-02 Eh
   gradient norm :     0.0321281 Eh/α   predicted    -0.2753909E-02 (  39.39%)
   displ. norm   :     0.3650433 α      lambda       -0.3474301E-02
   maximum displ.:     0.1163282 α      in ANC's #41, #12, #8, ...

........................................................................
.............................. CYCLE   25 ..............................
........................................................................
   1   -281.4516262 -0.281452E+03  0.195E-01    0.40       0.0  T
   2   -281.4516989 -0.726454E-04  0.109E-01    0.41       1.0  T
   3   -281.4512593  0.439573E-03  0.567E-02    0.39       1.0  T
   4   -281.4517506 -0.491256E-03  0.113E-02    0.41       1.0  T
   5   -281.4517661 -0.155056E-04  0.629E-03    0.40       1.4  T
   6   -281.4517707 -0.466174E-05  0.320E-03    0.40       2.7  T
   7   -281.4517716 -0.824927E-06  0.139E-03    0.40       6.1  T
     SCC iter.                  ...        0 min,  0.110 sec
     gradient                   ...        0 min,  0.028 sec
 * total energy  :  -277.3885794 Eh     change       -0.1445514E-02 Eh
   gradient norm :     0.0415897 Eh/α   predicted    -0.1968642E-02 (  36.19%)
   displ. norm   :     0.4276400 α      lambda       -0.2252484E-02
   maximum displ.:     0.1281130 α      in ANC's #12, #9, #8, ...

........................................................................
.............................. CYCLE   26 ..............................
........................................................................
   1   -281.4518423 -0.281452E+03  0.145E-01    0.40       0.0  T
   2   -281.4518722 -0.298397E-04  0.839E-02    0.41       1.0  T
   3   -281.4514345  0.437711E-03  0.538E-02    0.41       1.0  T
   4   -281.4518955 -0.461074E-03  0.128E-02    0.41       1.0  T
   5   -281.4519217 -0.261320E-04  0.447E-03    0.41       1.9  T
   6   -281.4519235 -0.183660E-05  0.260E-03    0.41       3.3  T
   7   -281.4519238 -0.269241E-06  0.144E-03    0.41       5.9  T
     SCC iter.                  ...        0 min,  0.110 sec
     gradient                   ...        0 min,  0.028 sec
 * total energy  :  -277.3904408 Eh     change       -0.1861449E-02 Eh
   gradient norm :     0.0249954 Eh/α   predicted    -0.1332208E-02 ( -28.43%)
   displ. norm   :     0.6913141 α      lambda       -0.3201359E-02
   maximum displ.:     0.2282593 α      in ANC's #12, #8, #9, ...

........................................................................
.............................. CYCLE   27 ..............................
........................................................................
   1   -281.4537707 -0.281454E+03  0.192E-01    0.41       0.0  T
   2   -281.4537956 -0.248860E-04  0.111E-01    0.40       1.0  T
   3   -281.4521818  0.161372E-02  0.952E-02    0.43       1.0  T
   4   -281.4538947 -0.171285E-02  0.174E-02    0.41       1.0  T
   5   -281.4539320 -0.373606E-04  0.883E-03    0.41       1.0  T
   6   -281.4539426 -0.105361E-04  0.360E-03    0.41       2.4  T
   7   -281.4539433 -0.691001E-06  0.233E-03    0.41       3.6  T
   8   -281.4539436 -0.315161E-06  0.135E-03    0.41       6.3  T
     SCC iter.                  ...        0 min,  0.130 sec
     gradient                   ...        0 min,  0.030 sec
 * total energy  :  -277.3925488 Eh     change       -0.2107925E-02 Eh
   gradient norm :     0.0251726 Eh/α   predicted    -0.2365681E-02 (  12.23%)
   displ. norm   :     0.7588602 α      lambda       -0.2825860E-02
   maximum displ.:     0.2385690 α      in ANC's #8, #9, #12, ...

........................................................................
.............................. CYCLE   28 ..............................
........................................................................
   1   -281.4470436 -0.281447E+03  0.246E-01    0.42       0.0  T
   2   -281.4472549 -0.211334E-03  0.142E-01    0.42       1.0  T
   3   -281.4461521  0.110288E-02  0.904E-02    0.42       1.0  T
   4   -281.4472784 -0.112635E-02  0.284E-02    0.42       1.0  T
   5   -281.4474018 -0.123353E-03  0.113E-02    0.41       1.0  T
   6   -281.4474210 -0.192845E-04  0.522E-03    0.42       1.6  T
   7   -281.4474236 -0.252326E-05  0.277E-03    0.42       3.1  T
   8   -281.4474234  0.119627E-06  0.222E-03    0.42       3.8  T
     SCC iter.                  ...        0 min,  0.124 sec
     gradient                   ...        0 min,  0.028 sec
 * total energy  :  -277.3945116 Eh     change       -0.1962866E-02 Eh
   gradient norm :     0.0341262 Eh/α   predicted    -0.2226593E-02 (  13.44%)
   displ. norm   :     0.6176711 α      lambda       -0.2610584E-02
   maximum displ.:     0.2186866 α      in ANC's #9, #12, #8, ...

........................................................................
.............................. CYCLE   29 ..............................
........................................................................
   1   -281.4518582 -0.281452E+03  0.162E-01    0.42       0.0  T
   2   -281.4519481 -0.899190E-04  0.929E-02    0.40       1.0  T
   3   -281.4511616  0.786490E-03  0.693E-02    0.44       1.0  T
   4   -281.4519795 -0.817826E-03  0.201E-02    0.41       1.0  T
   5   -281.4520349 -0.554718E-04  0.942E-03    0.41       1.0  T
   6   -281.4520475 -0.125859E-04  0.349E-03    0.41       2.4  T
   7   -281.4520485 -0.967822E-06  0.184E-03    0.41       4.6  T
   8   -281.4520484  0.626839E-07  0.138E-03    0.41       6.2  T
     SCC iter.                  ...        0 min,  0.125 sec
     gradient                   ...        0 min,  0.028 sec
 * total energy  :  -277.3958954 Eh     change       -0.1383729E-02 Eh
   gradient norm :     0.0255062 Eh/α   predicted    -0.1803289E-02 (  30.32%)
   displ. norm   :     0.6114042 α      lambda       -0.2937502E-02
   maximum displ.:     0.2139000 α      in ANC's #8, #9, #12, ...

........................................................................
.............................. CYCLE   30 ..............................
........................................................................
   1   -281.4577244 -0.281458E+03  0.190E-01    0.42       0.0  T
   2   -281.4580951 -0.370693E-03  0.111E-01    0.42       1.0  T
   3   -281.4578579  0.237236E-03  0.756E-02    0.41       1.0  T
   4   -281.4580311 -0.173219E-03  0.441E-02    0.41       1.0  T
   5   -281.4583882 -0.357127E-03  0.103E-02    0.41       1.0  T
   6   -281.4584044 -0.161601E-04  0.456E-03    0.41       1.9  T
   7   -281.4584053 -0.879175E-06  0.277E-03    0.41       3.1  T
   8   -281.4584056 -0.321212E-06  0.180E-03    0.41       4.7  T
     SCC iter.                  ...        0 min,  0.126 sec
     gradient                   ...        0 min,  0.028 sec
 * total energy  :  -277.3974580 Eh     change       -0.1562593E-02 Eh
   gradient norm :     0.0357543 Eh/α   predicted    -0.2017798E-02 (  29.13%)
   displ. norm   :     0.5473713 α      lambda       -0.3419805E-02
   maximum displ.:     0.1839746 α      in ANC's #8, #9, #7, ...

........................................................................
.............................. CYCLE   31 ..............................
........................................................................
   1   -281.4630087 -0.281463E+03  0.223E-01    0.41       0.0  T
   2   -281.4634173 -0.408581E-03  0.127E-01    0.39       1.0  T
   3   -281.4629220  0.495250E-03  0.814E-02    0.43       1.0  T
   4   -281.4632788 -0.356779E-03  0.463E-02    0.40       1.0  T
   5   -281.4637111 -0.432286E-03  0.102E-02    0.41       1.0  T
   6   -281.4637239 -0.128160E-04  0.480E-03    0.41       1.8  T
   7   -281.4637246 -0.699848E-06  0.263E-03    0.41       3.2  T
   8   -281.4637250 -0.438234E-06  0.151E-03    0.41       5.6  T
     SCC iter.                  ...        0 min,  0.125 sec
     gradient                   ...        0 min,  0.028 sec
 * total energy  :  -277.3982244 Eh     change       -0.7664477E-03 Eh
   gradient norm :     0.0300869 Eh/α   predicted    -0.2222218E-02 ( 189.94%)
   displ. norm   :     0.5334146 α      lambda       -0.2960720E-02
   maximum displ.:     0.1814994 α      in ANC's #9, #8, #12, ...

........................................................................
.............................. CYCLE   32 ..............................
........................................................................
   1   -281.4584695 -0.281458E+03  0.170E-01    0.41       0.0  T
   2   -281.4585831 -0.113558E-03  0.980E-02    0.41       1.0  T
   3   -281.4581265  0.456547E-03  0.614E-02    0.41       1.0  T
   4   -281.4585862 -0.459635E-03  0.233E-02    0.41       1.0  T
   5   -281.4586796 -0.934528E-04  0.675E-03    0.41       1.3  T
   6   -281.4586848 -0.520979E-05  0.382E-03    0.41       2.2  T
   7   -281.4586861 -0.125100E-05  0.193E-03    0.41       4.4  T
     SCC iter.                  ...        0 min,  0.110 sec
     gradient                   ...        0 min,  0.028 sec
 * total energy  :  -277.4000731 Eh     change       -0.1848726E-02 Eh
   gradient norm :     0.0202494 Eh/α   predicted    -0.1901568E-02 (   2.86%)
   displ. norm   :     0.5927201 α      lambda       -0.1931874E-02
   maximum displ.:     0.2260988 α      in ANC's #8, #9, #7, ...

........................................................................
.............................. CYCLE   33 ..............................
........................................................................
   1   -281.4619596 -0.281462E+03  0.137E-01    0.42       0.0  T
   2   -281.4622162 -0.256570E-03  0.819E-02    0.40       1.0  T
   3   -281.4621145  0.101634E-03  0.533E-02    0.42       1.0  T
   4   -281.4621094  0.516986E-05  0.360E-02    0.40       1.0  T
   5   -281.4623629 -0.253569E-03  0.685E-03    0.41       1.2  T
   6   -281.4623676 -0.470399E-05  0.389E-03    0.41       2.2  T
   7   -281.4623691 -0.142476E-05  0.193E-03    0.41       4.4  T
     SCC iter.                  ...        0 min,  0.111 sec
     gradient                   ...        0 min,  0.028 sec
 * total energy  :  -277.4008962 Eh     change       -0.8230560E-03 Eh
   gradient norm :     0.0312072 Eh/α   predicted    -0.1305290E-02 (  58.59%)
   displ. norm   :     0.6090868 α      lambda       -0.2288859E-02
   maximum displ.:     0.2244252 α      in ANC's #9, #8, #7, ...

........................................................................
.............................. CYCLE   34 ..............................
........................................................................
   1   -281.4620948 -0.281462E+03  0.155E-01    0.40       0.0  T
   2   -281.4623475 -0.252711E-03  0.928E-02    0.39       1.0  T
   3   -281.4621607  0.186828E-03  0.584E-02    0.40       1.0  T
   4   -281.4621923 -0.316160E-04  0.385E-02    0.39       1.0  T
   5   -281.4624972 -0.304969E-03  0.704E-03    0.39       1.2  T
   6   -281.4625014 -0.418469E-05  0.450E-03    0.40       1.9  T
   7   -281.4625036 -0.219313E-05  0.214E-03    0.39       4.0  T
     SCC iter.                  ...        0 min,  0.110 sec
     gradient                   ...        0 min,  0.028 sec
 * total energy  :  -277.4022548 Eh     change       -0.1358610E-02 Eh
   gradient norm :     0.0257726 Eh/α   predicted    -0.1568997E-02 (  15.49%)
   displ. norm   :     0.6591539 α      lambda       -0.2105735E-02
   maximum displ.:     0.2459863 α      in ANC's #8, #7, #9, ...

........................................................................
.............................. CYCLE   35 ..............................
........................................................................
   1   -281.4596258 -0.281460E+03  0.169E-01    0.41       0.0  T
   2   -281.4598599 -0.234150E-03  0.966E-02    0.40       1.0  T
   3   -281.4593505  0.509436E-03  0.697E-02    0.42       1.0  T
   4   -281.4598014 -0.450863E-03  0.333E-02    0.40       1.0  T
   5   -281.4599937 -0.192379E-03  0.936E-03    0.40       1.0  T
   6   -281.4600046 -0.108775E-04  0.516E-03    0.40       1.6  T
   7   -281.4600084 -0.377822E-05  0.217E-03    0.40       3.9  T
   8   -281.4600083  0.125620E-06  0.169E-03    0.40       5.0  T
     SCC iter.                  ...        0 min,  0.124 sec
     gradient                   ...        0 min,  0.028 sec
 * total energy  :  -277.4031347 Eh     change       -0.8799340E-03 Eh
   gradient norm :     0.0284623 Eh/α   predicted    -0.1510329E-02 (  71.64%)
   displ. norm   :     0.5608921 α      lambda       -0.1867949E-02
   maximum displ.:     0.2142362 α      in ANC's #7, #9, #8, ...

........................................................................
.............................. CYCLE   36 ..............................
........................................................................
   1   -281.4587622 -0.281459E+03  0.139E-01    0.39       0.0  T
   2   -281.4589332 -0.171063E-03  0.831E-02    0.37       1.0  T
   3   -281.4586518  0.281396E-03  0.560E-02    0.41       1.0  T
   4   -281.4588762 -0.224335E-03  0.314E-02    0.38       1.0  T
   5   -281.4590557 -0.179488E-03  0.745E-03    0.39       1.1  T
   6   -281.4590606 -0.495919E-05  0.406E-03    0.39       2.1  T
   7   -281.4590625 -0.182782E-05  0.187E-03    0.39       4.5  T
     SCC iter.                  ...        0 min,  0.109 sec
     gradient                   ...        0 min,  0.028 sec
 * total energy  :  -277.4041417 Eh     change       -0.1006953E-02 Eh
   gradient norm :     0.0253220 Eh/α   predicted    -0.1227806E-02 (  21.93%)
   displ. norm   :     0.4816750 α      lambda       -0.3032259E-02
   maximum displ.:     0.2021069 α      in ANC's #7, #8, #9, ...

........................................................................
.............................. CYCLE   37 ..............................
........................................................................
   1   -281.4920155 -0.281492E+03  0.165E-01    0.39       0.0  T
   2   -281.4926774 -0.661844E-03  0.906E-02    0.38       1.0  T
   3   -281.4924009  0.276429E-03  0.640E-02    0.40       1.0  T
   4   -281.4926530 -0.252096E-03  0.387E-02    0.38       1.0  T
   5   -281.4928217 -0.168635E-03  0.153E-02    0.39       1.0  T
   6   -281.4928525 -0.308632E-04  0.606E-03    0.39       1.4  T
   7   -281.4928569 -0.436975E-05  0.248E-03    0.38       3.4  T
   8   -281.4928568  0.836122E-07  0.180E-03    0.38       4.7  T
     SCC iter.                  ...        0 min,  0.126 sec
     gradient                   ...        0 min,  0.028 sec
 * total energy  :  -277.4029667 Eh     change        0.1174962E-02 Eh
   gradient norm :     0.0654253 Eh/α   predicted    -0.1867891E-02 (-258.97%)
   displ. norm   :     0.2909829 α      lambda       -0.4748396E-02
   maximum displ.:     0.0816476 α      in ANC's #8, #72, #7, ...

........................................................................
.............................. CYCLE   38 ..............................
........................................................................
   1   -281.4700370 -0.281470E+03  0.142E-01    0.38       0.0  T
   2   -281.4703764 -0.339456E-03  0.776E-02    0.39       1.0  T
   3   -281.4701485  0.227991E-03  0.519E-02    0.38       1.0  T
   4   -281.4703638 -0.215315E-03  0.275E-02    0.39       1.0  T
   5   -281.4704300 -0.662433E-04  0.141E-02    0.38       1.0  T
   6   -281.4704589 -0.289114E-04  0.382E-03    0.39       2.2  T
   7   -281.4704603 -0.137162E-05  0.197E-03    0.39       4.3  T
   8   -281.4704601  0.167029E-06  0.162E-03    0.39       5.3  T
     SCC iter.                  ...        0 min,  0.125 sec
     gradient                   ...        0 min,  0.028 sec
 * total energy  :  -277.4055831 Eh     change       -0.2616376E-02 Eh
   gradient norm :     0.0146003 Eh/α   predicted    -0.2575225E-02 (  -1.57%)
   displ. norm   :     0.7104073 α      lambda       -0.1318746E-02
   maximum displ.:     0.2980189 α      in ANC's #7, #8, #9, ...

........................................................................
.............................. CYCLE   39 ..............................
........................................................................
   1   -281.4673258 -0.281467E+03  0.140E-01    0.39       0.0  T
   2   -281.4673549 -0.291078E-04  0.825E-02    0.37       1.0  T
   3   -281.4666713  0.683586E-03  0.655E-02    0.41       1.0  T
   4   -281.4673627 -0.691381E-03  0.236E-02    0.38       1.0  T
   5   -281.4674612 -0.985542E-04  0.529E-03    0.38       1.6  T
   6   -281.4674648 -0.358405E-05  0.267E-03    0.38       3.2  T
   7   -281.4674652 -0.352462E-06  0.147E-03    0.38       5.8  T
   8   -281.4674653 -0.111433E-06  0.912E-04    0.38       9.3  T
     SCC iter.                  ...        0 min,  0.127 sec
     gradient                   ...        0 min,  0.028 sec
 * total energy  :  -277.4066382 Eh     change       -0.1055151E-02 Eh
   gradient norm :     0.0106444 Eh/α   predicted    -0.9921454E-03 (  -5.97%)
   displ. norm   :     0.8177310 α      lambda       -0.1306683E-02
   maximum displ.:     0.3557795 α      in ANC's #7, #8, #9, ...

........................................................................
.............................. CYCLE   40 ..............................
........................................................................
   1   -281.4653427 -0.281465E+03  0.149E-01    0.38       0.0  T
   2   -281.4653237  0.190022E-04  0.880E-02    0.37       1.0  T
   3   -281.4642407  0.108296E-02  0.755E-02    0.40       1.0  T
   4   -281.4653979 -0.115718E-02  0.136E-02    0.38       1.0  T
   5   -281.4654270 -0.290637E-04  0.469E-03    0.37       1.8  T
   6   -281.4654296 -0.260994E-05  0.253E-03    0.37       3.4  T
   7   -281.4654298 -0.180850E-06  0.158E-03    0.37       5.4  T
     SCC iter.                  ...        0 min,  0.110 sec
     gradient                   ...        0 min,  0.028 sec
 * total energy  :  -277.4078204 Eh     change       -0.1182115E-02 Eh
   gradient norm :     0.0110267 Eh/α   predicted    -0.1090227E-02 (  -7.77%)
   displ. norm   :     0.8037422 α      lambda       -0.1577351E-02
   maximum displ.:     0.3928137 α      in ANC's #7, #8, #9, ...

........................................................................
.............................. CYCLE   41 ..............................
........................................................................
   1   -281.4804741 -0.281480E+03  0.135E-01    0.38       0.0  T
   2   -281.4804728  0.132888E-05  0.801E-02    0.36       1.0  T
   3   -281.4795951  0.877707E-03  0.688E-02    0.40       1.0  T
   4   -281.4805333 -0.938194E-03  0.135E-02    0.37       1.0  T
   5   -281.4805592 -0.259362E-04  0.554E-03    0.37       1.5  T
   6   -281.4805638 -0.455551E-05  0.243E-03    0.37       3.5  T
   7   -281.4805642 -0.464558E-06  0.135E-03    0.37       6.3  T
   8   -281.4805643 -0.332307E-07  0.997E-04    0.37       8.5  T
     SCC iter.                  ...        0 min,  0.125 sec
     gradient                   ...        0 min,  0.028 sec
 * total energy  :  -277.4091726 Eh     change       -0.1352205E-02 Eh
   gradient norm :     0.0104797 Eh/α   predicted    -0.1298162E-02 (  -4.00%)
   displ. norm   :     0.8929162 α      lambda       -0.1505427E-02
   maximum displ.:     0.4377792 α      in ANC's #7, #8, #9, ...

........................................................................
.............................. CYCLE   42 ..............................
........................................................................
   1   -281.4782676 -0.281478E+03  0.157E-01    0.37       0.0  T
   2   -281.4782299  0.376815E-04  0.941E-02    0.35       1.0  T
   3   -281.4767815  0.144839E-02  0.874E-02    0.40       1.0  T
   4   -281.4783395 -0.155797E-02  0.152E-02    0.37       1.0  T
   5   -281.4783743 -0.348319E-04  0.523E-03    0.36       1.6  T
   6   -281.4783778 -0.347135E-05  0.264E-03    0.36       3.2  T
   7   -281.4783779 -0.129189E-06  0.168E-03    0.36       5.1  T
   8   -281.4783782 -0.324493E-06  0.845E-04    0.36      10.1  T
     SCC iter.                  ...        0 min,  0.126 sec
     gradient                   ...        0 min,  0.028 sec
 * total energy  :  -277.4105669 Eh     change       -0.1394303E-02 Eh
   gradient norm :     0.0113824 Eh/α   predicted    -0.1352856E-02 (  -2.97%)
   displ. norm   :     0.8949153 α      lambda       -0.1539508E-02
   maximum displ.:     0.4655819 α      in ANC's #7, #8, #9, ...
 * RMSD in coord.:     0.9945609 α      energy gain  -0.2885958E-01 Eh

generating ANC from model Hessian ...
Using Lindh-Hessian (1995)
 Shifting diagonal of input Hessian by   5.024350372581084E-003
 Lowest  eigenvalues of input Hessian
    0.005000    0.005010   -0.000000   -0.000000    0.000000    0.000000
    0.000000    0.000000    0.005049    0.005056    0.005082    0.005096
    0.005139    0.005179    0.005187    0.005277    0.005343    0.005404
 Highest eigenvalues
    2.632154    2.632383    2.635842    2.650616    2.650708    2.654937
 

........................................................................
.............................. CYCLE   43 ..............................
........................................................................
   1   -281.4802743 -0.281480E+03  0.156E-01    0.36       0.0  T
   2   -281.4802255  0.487995E-04  0.932E-02    0.34       1.0  T
   3   -281.4787021  0.152339E-02  0.882E-02    0.40       1.0  T
   4   -281.4803430 -0.164087E-02  0.139E-02    0.36       1.0  T
   5   -281.4803699 -0.269334E-04  0.488E-03    0.35       1.7  T
   6   -281.4803729 -0.297606E-05  0.255E-03    0.36       3.3  T
   7   -281.4803729 -0.862338E-07  0.161E-03    0.35       5.3  T
   8   -281.4803733 -0.336653E-06  0.679E-04    0.36      12.5  T
   9   -281.4803733 -0.567312E-07  0.318E-04    0.36      26.8  T
     SCC iter.                  ...        0 min,  0.140 sec
     gradient                   ...        0 min,  0.030 sec
 * total energy  :  -277.4119947 Eh     change       -0.1427856E-02 Eh
   gradient norm :     0.0115075 Eh/α   predicted     0.0000000E+00 (-100.00%)
   displ. norm   :     0.2944693 α      lambda       -0.7867380E-03
   maximum displ.:     0.1781036 α      in ANC's #9, #8, #6, ...

........................................................................
.............................. CYCLE   44 ..............................
........................................................................
   1   -281.4791885 -0.281479E+03  0.776E-02    0.36       0.0  T
   2   -281.4791963 -0.775090E-05  0.456E-02    0.36       1.0  T
   3   -281.4789912  0.205136E-03  0.341E-02    0.35       1.0  T
   4   -281.4792036 -0.212488E-03  0.827E-03    0.36       1.0  T
   5   -281.4792148 -0.111751E-04  0.310E-03    0.36       2.7  T
   6   -281.4792158 -0.999489E-06  0.157E-03    0.36       5.4  T
   7   -281.4792159 -0.111096E-06  0.942E-04    0.36       9.0  T
     SCC iter.                  ...        0 min,  0.110 sec
     gradient                   ...        0 min,  0.028 sec
 * total energy  :  -277.4125655 Eh     change       -0.5707384E-03 Eh
   gradient norm :     0.0071711 Eh/α   predicted    -0.4282488E-03 ( -24.97%)
   displ. norm   :     0.2927878 α      lambda       -0.7606675E-03
   maximum displ.:     0.1521512 α      in ANC's #9, #8, #6, ...

........................................................................
.............................. CYCLE   45 ..............................
........................................................................
   1   -281.4779118 -0.281478E+03  0.958E-02    0.36       0.0  T
   2   -281.4779291 -0.173270E-04  0.552E-02    0.36       1.0  T
   3   -281.4776656  0.263491E-03  0.392E-02    0.36       1.0  T
   4   -281.4779380 -0.272425E-03  0.100E-02    0.36       1.0  T
   5   -281.4779548 -0.168004E-04  0.402E-03    0.36       2.1  T
   6   -281.4779569 -0.205748E-05  0.182E-03    0.36       4.7  T
   7   -281.4779571 -0.176612E-06  0.102E-03    0.36       8.4  T
     SCC iter.                  ...        0 min,  0.110 sec
     gradient                   ...        0 min,  0.028 sec
 * total energy  :  -277.4130664 Eh     change       -0.5009710E-03 Eh
   gradient norm :     0.0102773 Eh/α   predicted    -0.4129589E-03 ( -17.57%)
   displ. norm   :     0.5139735 α      lambda       -0.1133359E-02
   maximum displ.:     0.2687846 α      in ANC's #9, #8, #6, ...

........................................................................
.............................. CYCLE   46 ..............................
........................................................................
   1   -281.4761064 -0.281476E+03  0.143E-01    0.36       0.0  T
   2   -281.4761253 -0.188867E-04  0.839E-02    0.36       1.0  T
   3   -281.4753013  0.823997E-03  0.677E-02    0.37       1.0  T
   4   -281.4761666 -0.865338E-03  0.148E-02    0.36       1.0  T
   5   -281.4762020 -0.353725E-04  0.569E-03    0.36       1.5  T
   6   -281.4762059 -0.391090E-05  0.293E-03    0.36       2.9  T
   7   -281.4762064 -0.569148E-06  0.171E-03    0.36       5.0  T
   8   -281.4762066 -0.177963E-06  0.105E-03    0.36       8.1  T
     SCC iter.                  ...        0 min,  0.125 sec
     gradient                   ...        0 min,  0.028 sec
 * total energy  :  -277.4136415 Eh     change       -0.5750177E-03 Eh
   gradient norm :     0.0215824 Eh/α   predicted    -0.7163811E-03 (  24.58%)
   displ. norm   :     0.4377586 α      lambda       -0.1084383E-02
   maximum displ.:     0.2410391 α      in ANC's #9, #8, #6, ...

........................................................................
.............................. CYCLE   47 ..............................
........................................................................
   1   -281.4765541 -0.281477E+03  0.106E-01    0.36       0.0  T
   2   -281.4765338  0.202953E-04  0.626E-02    0.35       1.0  T
   3   -281.4758095  0.724285E-03  0.605E-02    0.38       1.0  T
   4   -281.4765934 -0.783924E-03  0.847E-03    0.36       1.0  T
   5   -281.4766031 -0.964415E-05  0.357E-03    0.35       2.4  T
   6   -281.4766044 -0.137370E-05  0.200E-03    0.36       4.3  T
   7   -281.4766047 -0.229059E-06  0.125E-03    0.35       6.8  T
     SCC iter.                  ...        0 min,  0.110 sec
     gradient                   ...        0 min,  0.028 sec
 * total energy  :  -277.4145763 Eh     change       -0.9348062E-03 Eh
   gradient norm :     0.0164346 Eh/α   predicted    -0.6460943E-03 ( -30.88%)
   displ. norm   :     0.6475093 α      lambda       -0.1654555E-02
   maximum displ.:     0.3639342 α      in ANC's #9, #8, #6, ...

........................................................................
.............................. CYCLE   48 ..............................
........................................................................
   1   -281.4796107 -0.281480E+03  0.150E-01    0.35       0.0  T
   2   -281.4795902  0.205710E-04  0.885E-02    0.33       1.0  T
   3   -281.4782350  0.135514E-02  0.856E-02    0.40       1.0  T
   4   -281.4797284 -0.149340E-02  0.154E-02    0.35       1.0  T
   5   -281.4797494 -0.209428E-04  0.759E-03    0.34       1.1  T
   6   -281.4797589 -0.950820E-05  0.318E-03    0.35       2.7  T
   7   -281.4797598 -0.947951E-06  0.169E-03    0.34       5.0  T
   8   -281.4797599 -0.532459E-07  0.107E-03    0.34       8.0  T
     SCC iter.                  ...        0 min,  0.126 sec
     gradient                   ...        0 min,  0.028 sec
 * total energy  :  -277.4155459 Eh     change       -0.9696553E-03 Eh
   gradient norm :     0.0137382 Eh/α   predicted    -0.1174129E-02 (  21.09%)
   displ. norm   :     0.6409552 α      lambda       -0.1532260E-02
   maximum displ.:     0.3659024 α      in ANC's #9, #8, #6, ...

........................................................................
.............................. CYCLE   49 ..............................
........................................................................
   1   -281.4793622 -0.281479E+03  0.158E-01    0.33       0.0  T
   2   -281.4793426  0.195784E-04  0.907E-02    0.32       1.0  T
   3   -281.4781243  0.121825E-02  0.735E-02    0.38       1.0  T
   4   -281.4794329 -0.130859E-02  0.109E-02    0.34       1.0  T
   5   -281.4794493 -0.163952E-04  0.530E-03    0.33       1.6  T
   6   -281.4794524 -0.302909E-05  0.277E-03    0.33       3.1  T
   7   -281.4794527 -0.324916E-06  0.176E-03    0.33       4.8  T
   8   -281.4794530 -0.326793E-06  0.924E-04    0.33       9.2  T
     SCC iter.                  ...        0 min,  0.125 sec
     gradient                   ...        0 min,  0.028 sec
 * total energy  :  -277.4165255 Eh     change       -0.9796297E-03 Eh
   gradient norm :     0.0184145 Eh/α   predicted    -0.1080881E-02 (  10.34%)
   displ. norm   :     0.6480530 α      lambda       -0.1303209E-02
   maximum displ.:     0.3576197 α      in ANC's #9, #8, #6, ...

........................................................................
.............................. CYCLE   50 ..............................
........................................................................
   1   -281.4772868 -0.281477E+03  0.133E-01    0.33       0.0  T
   2   -281.4772681  0.187381E-04  0.792E-02    0.32       1.0  T
   3   -281.4761346  0.113353E-02  0.744E-02    0.36       1.0  T
   4   -281.4773600 -0.122549E-02  0.119E-02    0.33       1.0  T
   5   -281.4773777 -0.176437E-04  0.660E-03    0.32       1.3  T
   6   -281.4773858 -0.811565E-05  0.254E-03    0.33       3.4  T
   7   -281.4773863 -0.542063E-06  0.169E-03    0.32       5.0  T
   8   -281.4773866 -0.205611E-06  0.100E-03    0.32       8.5  T
     SCC iter.                  ...        0 min,  0.126 sec
     gradient                   ...        0 min,  0.028 sec
 * total energy  :  -277.4176344 Eh     change       -0.1108903E-02 Eh
   gradient norm :     0.0122492 Eh/α   predicted    -0.9252618E-03 ( -16.56%)
   displ. norm   :     0.7161202 α      lambda       -0.1461520E-02
   maximum displ.:     0.4254033 α      in ANC's #9, #8, #6, ...

........................................................................
.............................. CYCLE   51 ..............................
........................................................................
   1   -281.4828850 -0.281483E+03  0.115E-01    0.32       0.0  T
   2   -281.4828834  0.158946E-05  0.687E-02    0.31       1.0  T
   3   -281.4821798  0.703562E-03  0.604E-02    0.36       1.0  T
   4   -281.4829539 -0.774094E-03  0.140E-02    0.32       1.0  T
   5   -281.4829796 -0.257144E-04  0.594E-03    0.31       1.4  T
   6   -281.4829852 -0.561365E-05  0.248E-03    0.32       3.4  T
   7   -281.4829859 -0.625374E-06  0.125E-03    0.32       6.8  T
   8   -281.4829859 -0.244481E-07  0.902E-04    0.32       9.4  T
     SCC iter.                  ...        0 min,  0.126 sec
     gradient                   ...        0 min,  0.028 sec
 * total energy  :  -277.4187872 Eh     change       -0.1152713E-02 Eh
   gradient norm :     0.0115542 Eh/α   predicted    -0.1105514E-02 (  -4.09%)
   displ. norm   :     0.7928264 α      lambda       -0.1383788E-02
   maximum displ.:     0.4721830 α      in ANC's #9, #8, #6, ...

........................................................................
.............................. CYCLE   52 ..............................
........................................................................
   1   -281.4848556 -0.281485E+03  0.131E-01    0.31       0.0  T
   2   -281.4847812  0.744210E-04  0.784E-02    0.29       1.0  T
   3   -281.4835469  0.123435E-02  0.756E-02    0.37       1.0  T
   4   -281.4849161 -0.136927E-02  0.147E-02    0.31       1.0  T
   5   -281.4849539 -0.377294E-04  0.524E-03    0.30       1.6  T
   6   -281.4849572 -0.327756E-05  0.258E-03    0.31       3.3  T
   7   -281.4849574 -0.282046E-06  0.169E-03    0.30       5.1  T
   8   -281.4849576 -0.209396E-06  0.106E-03    0.30       8.1  T
     SCC iter.                  ...        0 min,  0.126 sec
     gradient                   ...        0 min,  0.028 sec
 * total energy  :  -277.4199718 Eh     change       -0.1184683E-02 Eh
   gradient norm :     0.0101177 Eh/α   predicted    -0.1126807E-02 (  -4.89%)
   displ. norm   :     0.8123058 α      lambda       -0.1327478E-02
   maximum displ.:     0.4797117 α      in ANC's #9, #8, #6, ...

........................................................................
.............................. CYCLE   53 ..............................
........................................................................
   1   -281.4827078 -0.281483E+03  0.137E-01    0.30       0.0  T
   2   -281.4826384  0.693550E-04  0.816E-02    0.27       1.0  T
   3   -281.4812408  0.139762E-02  0.797E-02    0.36       1.0  T
   4   -281.4827755 -0.153471E-02  0.147E-02    0.30       1.0  T
   5   -281.4828073 -0.318345E-04  0.652E-03    0.29       1.3  T
   6   -281.4828141 -0.675155E-05  0.295E-03    0.29       2.9  T
   7   -281.4828147 -0.619480E-06  0.185E-03    0.29       4.6  T
   8   -281.4828150 -0.250166E-06  0.120E-03    0.29       7.1  T
     SCC iter.                  ...        0 min,  0.125 sec
     gradient                   ...        0 min,  0.028 sec
 * total energy  :  -277.4211352 Eh     change       -0.1163344E-02 Eh
   gradient norm :     0.0101979 Eh/α   predicted    -0.1101703E-02 (  -5.30%)
   displ. norm   :     0.7835497 α      lambda       -0.1358346E-02
   maximum displ.:     0.4753675 α      in ANC's #9, #8, #6, ...

........................................................................
.............................. CYCLE   54 ..............................
........................................................................
   1   -281.4875501 -0.281488E+03  0.112E-01    0.29       0.0  T
   2   -281.4874924  0.576528E-04  0.666E-02    0.26       1.0  T
   3   -281.4864778  0.101459E-02  0.675E-02    0.34       1.0  T
   4   -281.4876037 -0.112591E-02  0.132E-02    0.29       1.0  T
   5   -281.4876291 -0.253721E-04  0.559E-03    0.28       1.5  T
   6   -281.4876338 -0.467545E-05  0.266E-03    0.28       3.2  T
   7   -281.4876344 -0.649076E-06  0.159E-03    0.28       5.3  T
   8   -281.4876347 -0.241969E-06  0.979E-04    0.28       8.7  T
     SCC iter.                  ...        0 min,  0.126 sec
     gradient                   ...        0 min,  0.028 sec
 * total energy  :  -277.4222903 Eh     change       -0.1155090E-02 Eh
   gradient norm :     0.0124966 Eh/α   predicted    -0.1096159E-02 (  -5.10%)
   displ. norm   :     0.8400374 α      lambda       -0.1245381E-02
   maximum displ.:     0.4991530 α      in ANC's #9, #8, #6, ...

........................................................................
.............................. CYCLE   55 ..............................
........................................................................
   1   -281.4900692 -0.281490E+03  0.114E-01    0.28       0.0  T
   2   -281.4899796  0.895874E-04  0.687E-02    0.25       1.0  T
   3   -281.4887692  0.121040E-02  0.729E-02    0.34       1.0  T
   4   -281.4900935 -0.132431E-02  0.142E-02    0.29       1.0  T
   5   -281.4901398 -0.462715E-04  0.494E-03    0.27       1.7  T
   6   -281.4901426 -0.286020E-05  0.261E-03    0.27       3.3  T
   7   -281.4901432 -0.552236E-06  0.177E-03    0.27       4.8  T
     SCC iter.                  ...        0 min,  0.111 sec
     gradient                   ...        0 min,  0.028 sec
 * total energy  :  -277.4234578 Eh     change       -0.1167484E-02 Eh
   gradient norm :     0.0088570 Eh/α   predicted    -0.1062102E-02 (  -9.03%)
   displ. norm   :     0.8755550 α      lambda       -0.1307654E-02
   maximum displ.:     0.5237615 α      in ANC's #9, #8, #6, ...

........................................................................
.............................. CYCLE   56 ..............................
........................................................................
   1   -281.4957836 -0.281496E+03  0.111E-01    0.27       0.0  T
   2   -281.4957089  0.746993E-04  0.676E-02    0.25       1.0  T
   3   -281.4945912  0.111773E-02  0.722E-02    0.32       1.0  T
   4   -281.4958304 -0.123922E-02  0.127E-02    0.27       1.0  T
   5   -281.4958558 -0.254034E-04  0.541E-03    0.26       1.6  T
   6   -281.4958608 -0.499330E-05  0.257E-03    0.27       3.3  T
   7   -281.4958615 -0.691696E-06  0.173E-03    0.26       4.9  T
   8   -281.4958618 -0.352933E-06  0.906E-04    0.26       9.4  T
     SCC iter.                  ...        0 min,  0.125 sec
     gradient                   ...        0 min,  0.028 sec
 * total energy  :  -277.4246229 Eh     change       -0.1165132E-02 Eh
   gradient norm :     0.0089830 Eh/α   predicted    -0.1155055E-02 (  -0.86%)
   displ. norm   :     0.8838852 α      lambda       -0.1300855E-02
   maximum displ.:     0.5216532 α      in ANC's #9, #6, #8, ...

........................................................................
.............................. CYCLE   57 ..............................
........................................................................
   1   -281.4930985 -0.281493E+03  0.131E-01    0.26       0.0  T
   2   -281.4930810  0.175094E-04  0.777E-02    0.24       1.0  T
   3   -281.4921604  0.920520E-03  0.670E-02    0.32       1.0  T
   4   -281.4931573 -0.996844E-03  0.180E-02    0.25       1.0  T
   5   -281.4932087 -0.514541E-04  0.574E-03    0.25       1.5  T
   6   -281.4932123 -0.355079E-05  0.318E-03    0.26       2.7  T
   7   -281.4932127 -0.391396E-06  0.223E-03    0.25       3.8  T
   8   -281.4932137 -0.104869E-05  0.106E-03    0.25       8.1  T
     SCC iter.                  ...        0 min,  0.126 sec
     gradient                   ...        0 min,  0.029 sec
 * total energy  :  -277.4256882 Eh     change       -0.1065344E-02 Eh
   gradient norm :     0.0130870 Eh/α   predicted    -0.1158582E-02 (   8.75%)
   displ. norm   :     0.8361164 α      lambda       -0.1190985E-02
   maximum displ.:     0.4982499 α      in ANC's #9, #6, #8, ...

........................................................................
.............................. CYCLE   58 ..............................
........................................................................
   1   -281.4961803 -0.281496E+03  0.106E-01    0.26       0.0  T
   2   -281.4961235  0.568122E-04  0.639E-02    0.23       1.0  T
   3   -281.4951468  0.976646E-03  0.652E-02    0.31       1.0  T
   4   -281.4962338 -0.108697E-02  0.134E-02    0.26       1.0  T
   5   -281.4962526 -0.187745E-04  0.630E-03    0.24       1.4  T
   6   -281.4962597 -0.709160E-05  0.316E-03    0.25       2.7  T
   7   -281.4962613 -0.163671E-05  0.173E-03    0.24       4.9  T
   8   -281.4962616 -0.323468E-06  0.102E-03    0.25       8.4  T
     SCC iter.                  ...        0 min,  0.125 sec
     gradient                   ...        0 min,  0.028 sec
 * total energy  :  -277.4266545 Eh     change       -0.9662145E-03 Eh
   gradient norm :     0.0107840 Eh/α   predicted    -0.1011803E-02 (   4.72%)
[...]
   132   1 H      0.925     0.110     1.697     2.037
   133   1 H      0.925     0.068     2.110     2.271
   134   1 H      0.925     0.072     2.069     2.249
   135   1 H      0.926     0.067     2.118     2.276
   136   1 H      0.926     0.086     1.918     2.166
   137   1 H      0.926     0.081     1.971     2.195
   138   1 H      0.926     0.068     2.104     2.268

 Mol. C6AA /au·bohr⁶  :     314194.928490
 Mol. C8AA /au·bohr⁸  :    7961679.564705
 Mol. α(0) /au        :        882.594655


Wiberg/Mayer (AO) data.
largest (>0.10) Wiberg bond orders for each atom
          total WBO             WBO to atom ...
     1  C   3.974        C    2 1.495    C    8 1.284    H  103 0.960    C    6 0.105
     2  C   3.889        C    1 1.495    C    4 1.239    F    3 0.992
     3  F   1.131        C    2 0.992
     4  C   3.885        C    6 1.494    C    2 1.239    F    5 0.990
     5  F   1.129        C    4 0.990
     6  C   3.976        C    4 1.494    C    7 1.286    H  104 0.961    C    1 0.105
     7  C   3.979        C    6 1.286    C   12 1.277    C    8 1.236
     8  C   3.984        C    1 1.284    C    9 1.280    C    7 1.236
     9  C   3.972        C   10 1.497    C    8 1.280    H  105 0.957
    10  C   3.981        C    9 1.497    C   11 1.199    C   16 1.092
    11  C   3.975        C   12 1.512    C   10 1.199    C   13 1.032
    12  C   3.979        C   11 1.512    C    7 1.277    H  106 0.962
    13  C   3.927        O   14 1.765    C   11 1.032    C   15 1.008
    14  O   2.070        C   13 1.765
    15  C   3.965        C   22 1.599    C   16 1.121    C   13 1.008
    16  C   3.978        C   17 1.504    C   15 1.121    C   10 1.092
    17  C   3.942        C   16 1.504    C   18 1.093    C   20 1.093
    18  C   3.948        N   19 2.772    C   17 1.093
    19  N   2.980        C   18 2.772
    20  C   3.948        N   21 2.777    C   17 1.093
    21  N   2.979        C   20 2.777
    22  C   3.955        C   15 1.599    C   23 1.178    H  107 0.920
    23  C   3.971        C   24 1.431    C   22 1.178    C   30 1.074
    24  C   3.911        C   23 1.431    C   28 1.147    N   25 1.038
    25  N   3.909        O   26 1.417    O   27 1.402    C   24 1.038
    26  O   1.904        N   25 1.417    O   27 0.333
    27  O   1.864        N   25 1.402    O   26 0.333
    28  C   3.938        C   29 1.658    C   24 1.147    H  108 0.946
    29  C   3.966        C   28 1.658    C   30 1.152    H  109 0.963
    30  C   3.963        C   31 1.456    C   29 1.152    C   23 1.074
    31  C   3.958        C   30 1.456    C   32 1.206    C   38 1.039
    32  C   3.968        C   33 1.616    C   31 1.206    H  110 0.967
    33  C   3.922        C   32 1.616    C   34 1.153    H  111 0.966
    34  C   3.926        C   38 1.421    C   33 1.153    N   35 1.049
    35  N   3.908        O   36 1.423    O   37 1.384    C   34 1.049
    36  O   1.886        N   35 1.423    O   37 0.326
    37  O   1.872        N   35 1.384    O   36 0.326
    38  C   3.972        C   34 1.421    C   39 1.252    C   31 1.039
    39  C   3.970        C   40 1.565    C   38 1.252    H  112 0.931
    40  C   3.931        C   39 1.565    N   41 1.182    H  113 0.940
    41  N   3.614        C   40 1.182    C   42 1.086    C   46 1.042    O   43 0.122
    42  C   3.923        O   43 1.765    N   41 1.086    C   44 0.959
    43  O   2.058        C   42 1.765    N   41 0.122
    44  C   3.989        C   45 1.006    C   42 0.959    H  114 0.935    C   52 0.919
    45  C   3.962        C   50 1.435    C   46 1.317    C   44 1.006
    46  C   3.944        C   47 1.392    C   45 1.317    N   41 1.042
    47  C   3.975        C   48 1.407    C   46 1.392    H  115 0.954
    48  C   3.982        C   47 1.407    C   49 1.400    C   51 1.032
    49  C   3.960        C   50 1.432    C   48 1.400    H  116 0.968
    50  C   3.989        C   45 1.435    C   49 1.432    H  117 0.967
    51  C   3.992        C   48 1.032    H  120 0.982    H  119 0.971    H  118 0.964
    52  C   3.987        C   57 1.005    C   53 0.948    H  121 0.934    C   44 0.919
    53  C   3.940        O   54 1.750    N   55 1.120    C   52 0.948
    54  O   2.068        C   53 1.750    N   55 0.144
    55  N   3.590        C   53 1.120    C   63 1.086    C   56 1.042    O   54 0.144
    56  C   3.950        C   62 1.393    C   57 1.313    N   55 1.042
    57  C   3.973        C   58 1.439    C   56 1.313    C   52 1.005
    58  C   3.988        C   57 1.439    C   59 1.424    H  122 0.967
    59  C   3.964        C   58 1.424    C   60 1.404    H  123 0.969
    60  C   3.984        C   59 1.404    C   62 1.403    C   61 1.031
    61  C   3.992        C   60 1.031    H  124 0.979    H  126 0.977    H  125 0.961
    62  C   3.981        C   60 1.403    C   56 1.393    H  127 0.954
    63  C   3.963        C   64 1.504    N   55 1.086    C   70 1.064
    64  C   3.931        C   63 1.504    C   68 1.110    N   65 1.023
    65  N   3.914        O   67 1.429    O   66 1.408    C   64 1.023
    66  O   1.896        N   65 1.408    O   67 0.345
    67  O   1.907        N   65 1.429    O   66 0.345
    68  C   3.946        C   69 1.705    C   64 1.110    H  128 0.966
    69  C   3.976        C   68 1.705    C   70 1.133    H  129 0.959
    70  C   3.964        C   71 1.498    C   69 1.133    C   63 1.064
    71  C   3.965        C   70 1.498    C   72 1.173    C   78 1.033
    72  C   3.953        C   73 1.646    C   71 1.173    H  130 0.958
    73  C   3.930        C   72 1.646    C   74 1.142    H  131 0.965
    74  C   3.896        C   78 1.448    C   73 1.142    N   75 1.024
    75  N   3.910        O   77 1.426    O   76 1.413    C   74 1.024
    76  O   1.902        N   75 1.413    O   77 0.344
    77  O   1.889        N   75 1.426    O   76 0.344
    78  C   3.976        C   74 1.448    C   79 1.234    C   71 1.033
    79  C   3.950        C   80 1.575    C   78 1.234    H  132 0.936
    80  C   3.963        C   79 1.575    C   81 1.233    H  133 0.954
    81  C   3.961        C   82 1.562    C   80 1.233    H  134 0.948
    82  C   3.929        C   81 1.562    C   97 1.120    C   83 1.012
    83  C   3.921        O   84 1.748    C   85 1.028    C   82 1.012
    84  O   2.032        C   83 1.748
    85  C   3.973        C   86 1.517    C   96 1.196    C   83 1.028
    86  C   3.980        C   85 1.517    C   87 1.274    H  135 0.963
    87  C   3.980        C   92 1.287    C   86 1.274    C   88 1.238
    88  C   3.983        C   89 1.285    C   95 1.276    C   87 1.238
    89  C   3.975        C   90 1.495    C   88 1.285    H  136 0.960    C   92 0.106
    90  C   3.888        C   89 1.495    C   91 1.241    F   94 0.989
    91  C   3.885        C   92 1.494    C   90 1.241    F   93 0.987
    92  C   3.977        C   91 1.494    C   87 1.287    H  137 0.961    C   89 0.106
    93  F   1.125        C   91 0.987
    94  F   1.128        C   90 0.989
    95  C   3.973        C   96 1.504    C   88 1.276    H  138 0.959
    96  C   3.977        C   95 1.504    C   85 1.196    C   97 1.081
    97  C   3.977        C   98 1.503    C   82 1.120    C   96 1.081
    98  C   3.953        C   97 1.503    C  101 1.093    C   99 1.093
    99  C   3.948        N  100 2.770    C   98 1.093
   100  N   2.984        C   99 2.770
   101  C   3.948        N  102 2.778    C   98 1.093
   102  N   2.979        C  101 2.778
   103  H   0.992        C    1 0.960
   104  H   0.993        C    6 0.961
   105  H   0.994        C    9 0.957
   106  H   0.994        C   12 0.962
   107  H   0.985        C   22 0.920
   108  H   0.988        C   28 0.946
   109  H   0.995        C   29 0.963
   110  H   0.997        C   32 0.967
   111  H   0.992        C   33 0.966
   112  H   0.987        C   39 0.931
   113  H   0.988        C   40 0.940
   114  H   0.990        C   44 0.935
   115  H   0.994        C   47 0.954
   116  H   0.997        C   49 0.968
   117  H   0.997        C   50 0.967
   118  H   0.995        C   51 0.964
   119  H   0.995        C   51 0.971
   120  H   0.996        C   51 0.982
   121  H   0.991        C   52 0.934
   122  H   0.997        C   58 0.967
   123  H   0.997        C   59 0.969
   124  H   0.997        C   61 0.979
   125  H   0.995        C   61 0.961
   126  H   0.995        C   61 0.977
   127  H   0.995        C   62 0.954
   128  H   0.992        C   68 0.966
   129  H   0.993        C   69 0.959
   130  H   0.992        C   72 0.958
   131  H   0.991        C   73 0.965
   132  H   0.985        C   79 0.936
   133  H   0.994        C   80 0.954
   134  H   0.994        C   81 0.948
   135  H   0.994        C   86 0.963
   136  H   0.992        C   89 0.960
   137  H   0.993        C   92 0.961
   138  H   0.994        C   95 0.959

molecular dipole:
                 x           y           z       tot (Debye)
 q only:        0.419      -3.509       1.432
   full:        0.613      -3.695       1.615      10.367
molecular quadrupole (traceless):
                xx          xy          yy          xz          yz          zz
 q only:      -84.204      81.303     158.332     -52.916     -32.715     -74.128
  q+dip:      -90.719      82.717     173.515     -64.754     -38.162     -82.796
   full:      -87.285      88.681     167.279     -64.758     -36.181     -79.995

           -------------------------------------------------
          |                Geometry Summary                 |
           -------------------------------------------------

      molecular mass/u    :     1357.1738000
   center of mass at/Å    :      -10.7065740      -7.1846065      -0.2152674
  moments of inertia/u·Å² :        0.2770447E+05   0.4156935E+05   0.4923914E+05
rotational constants/cm⁻¹ :        0.6084805E-03   0.4055303E-03   0.3423625E-03

 * 127 selected distances

     #   Z        #   Z                                     value/Å
     1   6 C      2   6 C                                 1.3669435
     2   6 C      3   9 F                                 1.3366641
     2   6 C      4   6 C                                 1.4106132
     4   6 C      5   9 F                                 1.3373646
     4   6 C      6   6 C                                 1.3668725
     6   6 C      7   6 C                                 1.4086601
     1   6 C      8   6 C                                 1.4093089
     7   6 C      8   6 C                                 1.4260493
     8   6 C      9   6 C                                 1.4130814
     9   6 C     10   6 C                                 1.3702797
    10   6 C     11   6 C                                 1.4249864
     7   6 C     12   6 C                                 1.4120011
    11   6 C     12   6 C                                 1.3665973
    13   6 C     14   8 O                                 1.2122111
    16   6 C     17   6 C                                 1.3678688
    18   6 C     19   7 N                                 1.1474656
    20   6 C     21   7 N                                 1.1470035
    15   6 C     22   6 C                                 1.3574371
    22   6 C     23   6 C                                 1.4243074
    23   6 C     24   6 C                                 1.3844403
    24   6 C     25   7 N                                 1.4034928
    25   7 N     26   8 O                                 1.2192431
    25   7 N     27   8 O                                 1.2228207
    24   6 C     28   6 C                                 1.4390118
    28   6 C     29   6 C                                 1.3546935
    29   6 C     30   6 C                                 1.4430023
    30   6 C     31   6 C                                 1.3765106
    31   6 C     32   6 C                                 1.4307907
    32   6 C     33   6 C                                 1.3597455
    33   6 C     34   6 C                                 1.4390731
    34   6 C     35   7 N                                 1.4023182
    35   7 N     36   8 O                                 1.2176555
    35   7 N     37   8 O                                 1.2251245
    34   6 C     38   6 C                                 1.3889957
    38   6 C     39   6 C                                 1.4122738
    39   6 C     40   6 C                                 1.3565531
    40   6 C     41   7 N                                 1.3638273
    41   7 N     42   6 C                                 1.3993002
    42   6 C     43   8 O                                 1.2028733
    44   6 C     45   6 C                                 1.4929675 (max)
    41   7 N     46   6 C                                 1.4053328
    45   6 C     46   6 C                                 1.3994065
    46   6 C     47   6 C                                 1.3847873
    47   6 C     48   6 C                                 1.3919552
    48   6 C     49   6 C                                 1.3927945
    45   6 C     50   6 C                                 1.3781659
    49   6 C     50   6 C                                 1.3860093
    53   6 C     54   8 O                                 1.2029088
    53   6 C     55   7 N                                 1.3850549
    55   7 N     56   6 C                                 1.4030687
    56   6 C     57   6 C                                 1.3956600
    57   6 C     58   6 C                                 1.3782632
    58   6 C     59   6 C                                 1.3878587
    59   6 C     60   6 C                                 1.3921457
    56   6 C     62   6 C                                 1.3795919
    60   6 C     62   6 C                                 1.3913198
    55   7 N     63   6 C                                 1.3838960
    63   6 C     64   6 C                                 1.3765972
    64   6 C     65   7 N                                 1.4112344
    65   7 N     66   8 O                                 1.2210385
    65   7 N     67   8 O                                 1.2156533
    68   6 C     69   6 C                                 1.3480774
    70   6 C     71   6 C                                 1.3722181
    71   6 C     72   6 C                                 1.4361367
    72   6 C     73   6 C                                 1.3538231
    73   6 C     74   6 C                                 1.4406401
    74   6 C     75   7 N                                 1.4125058
    75   7 N     76   8 O                                 1.2187662
    75   7 N     77   8 O                                 1.2172470
    74   6 C     78   6 C                                 1.3870553
    78   6 C     79   6 C                                 1.4188035
    79   6 C     80   6 C                                 1.3628146
    80   6 C     81   6 C                                 1.4170742
    81   6 C     82   6 C                                 1.3606487
    83   6 C     84   8 O                                 1.2120264
    85   6 C     86   6 C                                 1.3654101
    86   6 C     87   6 C                                 1.4126515
    87   6 C     88   6 C                                 1.4257261
    88   6 C     89   6 C                                 1.4091021
    89   6 C     90   6 C                                 1.3668968
    90   6 C     91   6 C                                 1.4098807
    87   6 C     92   6 C                                 1.4085544
    91   6 C     92   6 C                                 1.3667847
    91   6 C     93   9 F                                 1.3385419
    90   6 C     94   9 F                                 1.3378026
    88   6 C     95   6 C                                 1.4137958
    85   6 C     96   6 C                                 1.4255698
    95   6 C     96   6 C                                 1.3685755
    97   6 C     98   6 C                                 1.3677167
    99   6 C    100   7 N                                 1.1473449
   101   6 C    102   7 N                                 1.1469804
     1   6 C    103   1 H                                 1.0788227
     6   6 C    104   1 H                                 1.0786977
     9   6 C    105   1 H                                 1.0781410
    12   6 C    106   1 H                                 1.0794048
    22   6 C    107   1 H                                 1.0846836
    28   6 C    108   1 H                                 1.0726686
    29   6 C    109   1 H                                 1.0722586
    32   6 C    110   1 H                                 1.0727776
    33   6 C    111   1 H                                 1.0738628
    39   6 C    112   1 H                                 1.0784888
    40   6 C    113   1 H                                 1.0835860
    44   6 C    114   1 H                                 1.0943755
    47   6 C    115   1 H                                 1.0769504
    49   6 C    116   1 H                                 1.0792864
    50   6 C    117   1 H                                 1.0790155
    51   6 C    118   1 H                                 1.0896799
    51   6 C    119   1 H                                 1.0882511
    51   6 C    120   1 H                                 1.0864117
    52   6 C    121   1 H                                 1.0928801
    58   6 C    122   1 H                                 1.0797294
    59   6 C    123   1 H                                 1.0799473
    61   6 C    124   1 H                                 1.0878206
    61   6 C    125   1 H                                 1.0898687
    61   6 C    126   1 H                                 1.0860667
    62   6 C    127   1 H                                 1.0778156
    68   6 C    128   1 H                                 1.0727644
    69   6 C    129   1 H                                 1.0718432
    72   6 C    130   1 H                                 1.0661296 (min)
    73   6 C    131   1 H                                 1.0733914
    79   6 C    132   1 H                                 1.0841108
    80   6 C    133   1 H                                 1.0816254
    81   6 C    134   1 H                                 1.0827802
    86   6 C    135   1 H                                 1.0795180
    89   6 C    136   1 H                                 1.0787723
    92   6 C    137   1 H                                 1.0787729
    95   6 C    138   1 H                                 1.0784865

 * 6 distinct bonds (by element types)

   Z      Z             #   av. dist./Å        max./Å        min./Å
   1 H    6 C          36     1.0802691     1.0943755     1.0661296
   6 C    6 C          61     1.3946816     1.4929675     1.3480774
   6 C    7 N          14     1.3256304     1.4125058     1.1469804
   6 C    8 O           4     1.2075049     1.2122111     1.2028733
   7 N    8 O           8     1.2196936     1.2251245     1.2156533
   6 C    9 F           4     1.3375933     1.3385419     1.3366641


optimized geometry written to: xtbopt.xyz


           -------------------------------------------------
          | TOTAL ENERGY             -277.454670820454 Eh   |
          | GRADIENT NORM               0.000570473876 Eh/α |
          | HOMO-LUMO GAP               0.527774249418 eV   |
           -------------------------------------------------

------------------------------------------------------------------------
 * finished run on 2021/09/17 at 21:04:15.461     
------------------------------------------------------------------------
 total:
 * wall-time:     0 d,  0 h,  0 min, 43.904 sec
 *  cpu-time:     0 d,  0 h,  8 min, 46.629 sec
 * ratio c/w:    11.995 speedup
 SCF:
 * wall-time:     0 d,  0 h,  0 min,  0.303 sec
 *  cpu-time:     0 d,  0 h,  0 min,  3.624 sec
 * ratio c/w:    11.962 speedup
 ANC optimizer:
 * wall-time:     0 d,  0 h,  0 min, 43.531 sec
 *  cpu-time:     0 d,  0 h,  8 min, 42.276 sec
 * ratio c/w:    11.998 speedup

