      -----------------------------------------------------------      
     |                   =====================                   |     
     |                           x T B                           |     
     |                   =====================                   |     
     |                         S. Grimme                         |     
     |          Mulliken Center for Theoretical Chemistry        |     
     |                    University of Bonn                     |     
     |                Version 6.2 RC2 (SAW190805)                |     
      -----------------------------------------------------------      

   This program is distributed in the hope that it will be useful,
   but WITHOUT ANY WARRANTY; without even the implied warranty of
   MERCHANTABILITY or FITNESS FOR A PARTICULAR PURPOSE.
   
   FOR NON-COMMERCIAL, ACADEMIA USE ONLY.
   
   Cite this work as:
   * S. Grimme, C. Bannwarth, P. Shushkov, J. Chem. Theory Comput., 2017,
     13, 1989-2009. DOI: 10.1021/acs.jctc.7b00118
   * C. Bannwarth, S. Ehlert and S. Grimme., J. Chem. Theory Comput., 2019,
     15, 1652-1671. DOI: 10.1021/acs.jctc.8b01176
   * P. Pracht, E. Caldeweyher, S. Ehlert, S. Grimme, ChemRxiv, 2019, preprint.
     DOI: 10.26434/chemrxiv.8326202.v1
   
   for DFT-D4:
   * E. Caldeweyher, C. Bannwarth and S. Grimme, J. Chem. Phys., 2017,
     147, 034112. DOI: 10.1063/1.4993215
   * E. Caldeweyher, S. Ehlert, A. Hansen, H. Neugebauer, S. Spicher,
     C. Bannwarth and S. Grimme, J. Chem. Phys., 2019, 150, 154122.
     DOI: 10.1063/1.5090222
   
   for sTDA-xTB:
   * S. Grimme and C. Bannwarth, J. Chem. Phys., 2016, 145, 054103.
     DOI: 10.1063/1.4959605
   
   in the mass-spec context:
   * V. Asgeirsson, C. Bauer and S. Grimme, Chem. Sci., 2017, 8, 4879.
     DOI: 10.1039/c7sc00601b
   
   for metadynamics refer to:
   * S. Grimme, J. Chem. Theory Comput., 2019, 155, 2847-2862
     DOI: 10.1021/acs.jctc.9b00143
   
   with help from (in alphabetical order)
   C. Bannwarth, F. Bohle, G. Brandenburg, E. Caldeweyher, M. Checinski,
   S. Dohm, S. Ehlert, S. Ehrlich, F. März, H. Neugebauer, J. Pisarek,
   P. Pracht, P. Shushkov, and S. Spicher.
   
 * started run on 2021/09/15 at 21:16:11.618     

           -------------------------------------------------
          |                Calculation Setup                |
           -------------------------------------------------

          program call               : /ihome/ghutchison/geoffh/xtb/xtb /ihome/ghutchison/blp62/GA/running_GA/v5/generations/83/281_34_580_211_281_13051.xyz -opt
          hostname                   : smp-n27
          coordinate file            : /ihome/ghutchison/blp62/GA/running_GA/v5/generations/83/281_34_580_211_281_13051.xyz
          omp threads                :                    12
          number of atoms            :                   115
          number of electrons        :                   416
          charge                     :                     0
          spin                       :                   0.0
          first test random number   :      0.79722830362823


########################################################################
# WARNING! Please study the warnings concerning your input carefully
#  - XTBPATH is not set, using XTBHOME instead
#  - the use of '-opt' is discouraged, please use '--opt' next time
########################################################################

           ------------------------------------------------- 
          |                 G F N 2 - x T B                 |
          | Geometry, Frequencies, Noncovalent interactions |
          |            JCTC 2019 parametrisation            |
           ------------------------------------------------- 
             KAB for C  - Si     :                1.0500
             KAB for H  - Pd     :                0.9500
             k(s)              :                1.8500
             k(p)              :                2.2300
             k(d)              :                2.2300
             k(f)              :                2.0000
             kEN (H0ij)        :               -2.0000
             D4 a1             :                0.5200
             D4 a2             :                5.0000
             D4 s6             :                1.0000
             D4 s8             :                2.7000
             D4 s9             :                5.0000
             alphaj            :                2.0000

  Z AO/shell   Hii/eV     exponent
  1     Wed Apr 25 08:07:45 CEST 2018   EN: 2.200 GM2: 0.406  GM3: 0.0800  RAES: 1.40
     1s    -10.707211    1.230000
  6     Wed Apr 25 08:07:45 CEST 2018   EN: 2.550 GM2: 0.538  GM3: 0.1500  RAES: 3.00
     2s    -13.970922    2.096432
     2p    -10.063292    1.800000
  7     Wed Apr 25 08:07:45 CEST 2018   EN: 3.040 GM2: 0.461  GM3:-0.0640  RAES: 1.90
     2s    -16.686243    2.339881
     2p    -12.523956    2.014332
  8     Wed Apr 25 08:07:45 CEST 2018   EN: 3.440 GM2: 0.452  GM3:-0.0517  RAES: 1.80
     2s    -20.229985    2.439742
     2p    -15.503117    2.137023
  9     Mon Apr 23 13:58:50 CEST 2018   EN: 3.980 GM2: 0.532  GM3: 0.1426  RAES: 2.40
     2s    -23.458179    2.416361
     2p    -15.746583    2.308399
 16     Tue Apr 24 11:44:34 CEST 2018   EN: 2.580 GM2: 0.340  GM3:-0.0502  RAES: 3.10
     3s    -20.029654    1.981333
     3p    -11.377694    2.025643
     3d     -0.420282    1.702555

           ------------------------------------------------- 
          |        Self-Consistent Charge Iterations        |
           ------------------------------------------------- 

          ...................................................
          :                      SETUP                      :
          :.................................................:
          :  # basis functions                 382          :
          :  # atomic orbitals                 381          :
          :  # shells                          203          :
          :  # electrons                       416          :
          :  max. iterations                   250          :
          :  Hamiltonian                  GFN2-xTB          :
          :  restarted?                      false          :
          :  GBSA solvation                  false          :
          :  PC potential                    false          :
          :  electronic temp.          300.0000000     K    :
          :  accuracy                    1.0000000          :
          :  -> integral cutoff          0.2500000E+02      :
          :  -> integral neglect         0.1000000E-07      :
          :  -> SCF convergence          0.1000000E-05 Eh   :
          :  -> wf. convergence          0.1000000E-03 e    :
          :  Broyden damping             0.4000000          :
          ...................................................

 iter      E             dE          RMSdq      gap      omega  full diag
   1   -237.4706397 -0.237471E+03  0.578E+00    0.81       0.0  T
   2   -237.7544943 -0.283855E+00  0.358E+00    0.29       1.0  T
   3   -237.5805863  0.173908E+00  0.256E+00    0.97       1.0  T
   4   -238.0261780 -0.445592E+00  0.106E+00    0.64       1.0  T
   5   -238.0946920 -0.685140E-01  0.406E-01    0.33       1.0  T
   6   -238.1123158 -0.176238E-01  0.171E-01    0.56       1.0  T
   7   -238.1145324 -0.221660E-02  0.104E-01    0.45       1.0  T
   8   -238.1151761 -0.643750E-03  0.439E-02    0.46       1.0  T
   9   -238.1152920 -0.115888E-03  0.187E-02    0.46       1.0  T
  10   -238.1153193 -0.272831E-04  0.889E-03    0.47       1.0  T
  11   -238.1153228 -0.350739E-05  0.523E-03    0.46       1.8  T
  12   -238.1153255 -0.270091E-05  0.267E-03    0.46       3.5  T
  13   -238.1153263 -0.764527E-06  0.107E-03    0.46       8.7  T
  14   -238.1153263 -0.681283E-07  0.597E-04    0.46      15.6  T
  15   -238.1153264 -0.224915E-07  0.277E-04    0.46      33.7  T

   *** convergence criteria satisfied after 15 iterations ***

         #    Occupation            Energy/Eh            Energy/eV
      -------------------------------------------------------------
         1        2.0000           -0.8597949             -23.3962
       ...           ...                  ...                  ...
       202        2.0000           -0.4343720             -11.8199
       203        2.0000           -0.4306470             -11.7185
       204        2.0000           -0.4264263             -11.6037
       205        2.0000           -0.4232676             -11.5177
       206        2.0000           -0.4216686             -11.4742
       207        2.0000           -0.4167661             -11.3408
       208        1.9997           -0.4003242             -10.8934 (HOMO)
       209        0.0003           -0.3832907             -10.4299 (LUMO)
       210                         -0.3606922              -9.8149
       211                         -0.3505564              -9.5391
       212                         -0.3463168              -9.4238
       213                         -0.3457116              -9.4073
       ...                                ...                  ...
       381                          1.0654765              28.9931
      -------------------------------------------------------------
                  HL-Gap            0.0170335 Eh            0.4635 eV
             Fermi-level           -0.3918074 Eh          -10.6616 eV

 SCC (total)                   0 d,  0 h,  0 min,  0.291 sec
 SCC setup                      ...        0 min,  0.003 sec (  0.918%)
 Dispersion                     ...        0 min,  0.007 sec (  2.438%)
 integral evaluation            ...        0 min,  0.027 sec (  9.263%)
 zeroth order Hamiltonian       ...        0 min,  0.002 sec (  0.538%)
 iterations                     ...        0 min,  0.225 sec ( 77.507%)
 molecular gradient             ...        0 min,  0.026 sec (  8.876%)
 printout                       ...        0 min,  0.001 sec (  0.427%)

         :::::::::::::::::::::::::::::::::::::::::::::::::::::
         ::                     SUMMARY                     ::
         :::::::::::::::::::::::::::::::::::::::::::::::::::::
         :: total energy            -234.680816813428 Eh    ::
         :: gradient norm              0.213495643445 Eh/a0 ::
         :: HOMO-LUMO gap              0.463504267797 eV    ::
         ::.................................................::
         :: SCC energy              -238.115326358736 Eh    ::
         :: -> isotropic ES            0.304481439001 Eh    ::
         :: -> anisotropic ES          0.017330116567 Eh    ::
         :: -> anisotropic XC          0.137300445610 Eh    ::
         :: -> dispersion             -0.172091367320 Eh    ::
         :: repulsion energy           3.433542778046 Eh    ::
         :: add. restraining           0.000000000000 Eh    ::
         :::::::::::::::::::::::::::::::::::::::::::::::::::::

      ----------------------------------------------------------- 
     |                   =====================                   |
     |                        A N C O P T                        |
     |                   =====================                   |
     |               Approximate Normal Coordinate               |
     |                Rational Function Optimizer                |
      ----------------------------------------------------------- 

          ...................................................
          :                      SETUP                      :
          :.................................................:
          :   optimization level            normal          :
          :   max. optcycles                   345          :
          :   ANC micro-cycles                  20          :
          :   degrees of freedom               339          :
          :.................................................:
          :   RF solver                   davidson          :
          :   input Hessian                  false          :
          :   write xtbopt.log                true          :
          :   linear?                        false          :
          :   energy convergence         0.5000000E-05 Eh   :
          :   grad. convergence          0.1000000E-02 Eh/α :
          :   maximium RF displ.         2.0000000          :
          :   Hlow (freq-cutoff)         0.5000000E-02      :
          :   Hmax (freq-cutoff)         5.0000000          :
          :   S6 in model hess.         20.0000000          :
          ...................................................

generating ANC from model Hessian ...
Using Lindh-Hessian (1995)
 Shifting diagonal of input Hessian by   5.003633266601202E-003
 Lowest  eigenvalues of input Hessian
    0.005000   -0.000000   -0.000000   -0.000000    0.000000    0.000000
    0.000000    0.005009    0.005036    0.005055    0.005065    0.005079
    0.005140    0.005160    0.005251    0.005278    0.005362    0.005453
 Highest eigenvalues
    2.497339    2.516520    2.519445    2.525600    2.570646    2.581188
 

........................................................................
.............................. CYCLE    1 ..............................
........................................................................
   1   -238.1153264 -0.238115E+03  0.116E-04    0.46       0.0  T
   2   -238.1153264  0.120724E-08  0.121E-04    0.46      76.9  T
   3   -238.1153264 -0.258726E-08  0.489E-05    0.46     190.7  T
     SCC iter.                  ...        0 min,  0.046 sec
     gradient                   ...        0 min,  0.026 sec
 * total energy  :  -234.6808167 Eh     change        0.1096313E-06 Eh
   gradient norm :     0.2134933 Eh/α   predicted     0.0000000E+00 (-100.00%)
   displ. norm   :     0.4133848 α      lambda       -0.4459198E-01
   maximum displ.:     0.0899833 α      in ANC's #84, #47, #37, ...

........................................................................
.............................. CYCLE    2 ..............................
........................................................................
   1   -238.2423043 -0.238242E+03  0.242E-01    0.37       0.0  T
   2   -238.2391144  0.318996E-02  0.199E-01    0.59       1.0  T
   3   -238.2404775 -0.136314E-02  0.168E-01    0.38       1.0  T
   4   -238.2446412 -0.416370E-02  0.497E-02    0.45       1.0  T
   5   -238.2448083 -0.167062E-03  0.249E-02    0.43       1.0  T
   6   -238.2448694 -0.611465E-04  0.941E-03    0.44       1.0  T
   7   -238.2448723 -0.285039E-05  0.538E-03    0.43       1.7  T
   8   -238.2448751 -0.283372E-05  0.320E-03    0.44       2.9  T
     SCC iter.                  ...        0 min,  0.117 sec
     gradient                   ...        0 min,  0.025 sec
 * total energy  :  -234.7111639 Eh     change       -0.3034724E-01 Eh
   gradient norm :     0.0909606 Eh/α   predicted    -0.2610619E-01 ( -13.98%)
   displ. norm   :     0.4977145 α      lambda       -0.1801130E-01
   maximum displ.:     0.1399966 α      in ANC's #62, #44, #47, ...

........................................................................
.............................. CYCLE    3 ..............................
........................................................................
   1   -238.2800731 -0.238280E+03  0.234E-01    0.35       0.0  T
   2   -238.2708958  0.917736E-02  0.257E-01    0.60       1.0  T
   3   -238.2804476 -0.955182E-02  0.151E-01    0.39       1.0  T
   4   -238.2828751 -0.242747E-02  0.563E-02    0.39       1.0  T
   5   -238.2831485 -0.273439E-03  0.268E-02    0.42       1.0  T
   6   -238.2832242 -0.756801E-04  0.129E-02    0.41       1.0  T
   7   -238.2832380 -0.138003E-04  0.607E-03    0.41       1.5  T
   8   -238.2832423 -0.433857E-05  0.328E-03    0.41       2.8  T
   9   -238.2832434 -0.104091E-05  0.138E-03    0.41       6.8  T
     SCC iter.                  ...        0 min,  0.128 sec
     gradient                   ...        0 min,  0.025 sec
 * total energy  :  -234.7228215 Eh     change       -0.1165760E-01 Eh
   gradient norm :     0.0376132 Eh/α   predicted    -0.1123654E-01 (  -3.61%)
   displ. norm   :     0.6677075 α      lambda       -0.1021964E-01
   maximum displ.:     0.2382213 α      in ANC's #37, #44, #32, ...

........................................................................
.............................. CYCLE    4 ..............................
........................................................................
   1   -238.2643825 -0.238264E+03  0.354E-01    0.35       0.0  T
   2   -238.2528470  0.115355E-01  0.307E-01    0.54       1.0  T
   3   -238.2271771  0.256698E-01  0.410E-01    0.34       1.0  T
   4   -238.2622075 -0.350304E-01  0.137E-01    0.51       1.0  T
   5   -238.2658772 -0.366971E-02  0.683E-02    0.44       1.0  T
   6   -238.2664181 -0.540854E-03  0.462E-02    0.42       1.0  T
   7   -238.2667493 -0.331276E-03  0.288E-02    0.41       1.0  T
   8   -238.2668606 -0.111258E-03  0.128E-02    0.40       1.0  T
   9   -238.2668765 -0.159181E-04  0.431E-03    0.39       2.2  T
  10   -238.2668783 -0.175156E-05  0.130E-03    0.39       7.2  T
  11   -238.2668784 -0.125815E-06  0.630E-04    0.39      14.8  T
     SCC iter.                  ...        0 min,  0.165 sec
     gradient                   ...        0 min,  0.026 sec
 * total energy  :  -234.7254030 Eh     change       -0.2581434E-02 Eh
   gradient norm :     0.0738915 Eh/α   predicted    -0.7387954E-02 ( 186.20%)
   displ. norm   :     0.5287511 α      lambda       -0.1220570E-01
   maximum displ.:     0.1436834 α      in ANC's #10, #22, #19, ...

........................................................................
.............................. CYCLE    5 ..............................
........................................................................
   1   -238.2898583 -0.238290E+03  0.287E-01    0.36       0.0  T
   2   -238.2841730  0.568528E-02  0.226E-01    0.46       1.0  T
   3   -238.2408045  0.433685E-01  0.433E-01    0.34       1.0  T
   4   -238.2875173 -0.467128E-01  0.117E-01    0.47       1.0  T
   5   -238.2901336 -0.261629E-02  0.531E-02    0.42       1.0  T
   6   -238.2905290 -0.395496E-03  0.343E-02    0.40       1.0  T
   7   -238.2907051 -0.176009E-03  0.209E-02    0.39       1.0  T
   8   -238.2907667 -0.616512E-04  0.110E-02    0.39       1.0  T
   9   -238.2907811 -0.143452E-04  0.383E-03    0.38       2.4  T
  10   -238.2907830 -0.198510E-05  0.109E-03    0.38       8.5  T
  11   -238.2907831 -0.844488E-07  0.533E-04    0.38      17.5  T
     SCC iter.                  ...        0 min,  0.157 sec
     gradient                   ...        0 min,  0.025 sec
 * total energy  :  -234.7318486 Eh     change       -0.6445599E-02 Eh
   gradient norm :     0.0341477 Eh/α   predicted    -0.7809069E-02 (  21.15%)
   displ. norm   :     0.5264402 α      lambda       -0.5122778E-02
   maximum displ.:     0.1843132 α      in ANC's #22, #19, #37, ...

........................................................................
.............................. CYCLE    6 ..............................
........................................................................
   1   -238.2875240 -0.238288E+03  0.224E-01    0.37       0.0  T
   2   -238.2868134  0.710631E-03  0.141E-01    0.40       1.0  T
   3   -238.2483415  0.384719E-01  0.373E-01    0.33       1.0  T
   4   -238.2866054 -0.382639E-01  0.701E-02    0.42       1.0  T
   5   -238.2876219 -0.101646E-02  0.249E-02    0.40       1.0  T
   6   -238.2877375 -0.115574E-03  0.127E-02    0.39       1.0  T
   7   -238.2877577 -0.202501E-04  0.716E-03    0.38       1.3  T
   8   -238.2877642 -0.644715E-05  0.346E-03    0.38       2.7  T
   9   -238.2877648 -0.599832E-06  0.151E-03    0.38       6.2  T
  10   -238.2877651 -0.290530E-06  0.555E-04    0.38      16.8  T
     SCC iter.                  ...        0 min,  0.140 sec
     gradient                   ...        0 min,  0.025 sec
 * total energy  :  -234.7347103 Eh     change       -0.2861729E-02 Eh
   gradient norm :     0.0308284 Eh/α   predicted    -0.3271253E-02 (  14.31%)
   displ. norm   :     0.6091907 α      lambda       -0.5147834E-02
   maximum displ.:     0.1945556 α      in ANC's #22, #19, #11, ...

........................................................................
.............................. CYCLE    7 ..............................
........................................................................
   1   -238.2818918 -0.238282E+03  0.192E-01    0.38       0.0  T
   2   -238.2803004  0.159142E-02  0.138E-01    0.41       1.0  T
   3   -238.2550337  0.252667E-01  0.318E-01    0.34       1.0  T
   4   -238.2811065 -0.260728E-01  0.685E-02    0.42       1.0  T
   5   -238.2820611 -0.954579E-03  0.223E-02    0.40       1.0  T
   6   -238.2821500 -0.888699E-04  0.115E-02    0.39       1.0  T
   7   -238.2821632 -0.132315E-04  0.708E-03    0.39       1.3  T
   8   -238.2821694 -0.619746E-05  0.308E-03    0.39       3.0  T
   9   -238.2821699 -0.500916E-06  0.124E-03    0.38       7.5  T
  10   -238.2821701 -0.158145E-06  0.462E-04    0.38      20.2  T
     SCC iter.                  ...        0 min,  0.137 sec
     gradient                   ...        0 min,  0.025 sec
 * total energy  :  -234.7380979 Eh     change       -0.3387582E-02 Eh
   gradient norm :     0.0267254 Eh/α   predicted    -0.3529135E-02 (   4.18%)
   displ. norm   :     0.6443467 α      lambda       -0.4163388E-02
   maximum displ.:     0.2606223 α      in ANC's #19, #22, #11, ...

........................................................................
.............................. CYCLE    8 ..............................
........................................................................
   1   -238.2865093 -0.238287E+03  0.254E-01    0.38       0.0  T
   2   -238.2857881  0.721250E-03  0.153E-01    0.40       1.0  T
   3   -238.2384922  0.472959E-01  0.412E-01    0.35       1.0  T
   4   -238.2859502 -0.474580E-01  0.598E-02    0.42       1.0  T
   5   -238.2866484 -0.698201E-03  0.192E-02    0.39       1.0  T
   6   -238.2867005 -0.521668E-04  0.104E-02    0.39       1.0  T
   7   -238.2867090 -0.850587E-05  0.634E-03    0.39       1.5  T
   8   -238.2867129 -0.388397E-05  0.307E-03    0.39       3.0  T
   9   -238.2867137 -0.800043E-06  0.120E-03    0.38       7.8  T
     SCC iter.                  ...        0 min,  0.124 sec
     gradient                   ...        0 min,  0.025 sec
 * total energy  :  -234.7393331 Eh     change       -0.1235256E-02 Eh
   gradient norm :     0.0306860 Eh/α   predicted    -0.2945978E-02 ( 138.49%)
   displ. norm   :     0.4919413 α      lambda       -0.4914535E-02
   maximum displ.:     0.1950704 α      in ANC's #11, #19, #22, ...

........................................................................
.............................. CYCLE    9 ..............................
........................................................................
   1   -238.2965473 -0.238297E+03  0.233E-01    0.38       0.0  T
   2   -238.2965351  0.122035E-04  0.131E-01    0.39       1.0  T
   3   -238.2907986  0.573649E-02  0.157E-01    0.36       1.0  T
   4   -238.2947692 -0.397064E-02  0.905E-02    0.41       1.0  T
   5   -238.2966891 -0.191984E-02  0.115E-02    0.39       1.0  T
   6   -238.2967021 -0.130102E-04  0.623E-03    0.38       1.5  T
   7   -238.2967059 -0.383634E-05  0.281E-03    0.38       3.3  T
   8   -238.2967064 -0.457127E-06  0.169E-03    0.38       5.5  T
     SCC iter.                  ...        0 min,  0.111 sec
     gradient                   ...        0 min,  0.025 sec
 * total energy  :  -234.7420994 Eh     change       -0.2766243E-02 Eh
   gradient norm :     0.0343045 Eh/α   predicted    -0.3051941E-02 (  10.33%)
   displ. norm   :     0.5026177 α      lambda       -0.2792105E-02
   maximum displ.:     0.2185592 α      in ANC's #11, #19, #22, ...

........................................................................
.............................. CYCLE   10 ..............................
........................................................................
   1   -238.3059620 -0.238306E+03  0.149E-01    0.38       0.0  T
   2   -238.3058764  0.856040E-04  0.858E-02    0.39       1.0  T
   3   -238.2991972  0.667920E-02  0.163E-01    0.36       1.0  T
   4   -238.3055016 -0.630438E-02  0.498E-02    0.40       1.0  T
   5   -238.3060217 -0.520138E-03  0.833E-03    0.39       1.1  T
   6   -238.3060244 -0.270188E-05  0.464E-03    0.38       2.0  T
   7   -238.3060263 -0.187861E-05  0.140E-03    0.38       6.7  T
     SCC iter.                  ...        0 min,  0.097 sec
     gradient                   ...        0 min,  0.025 sec
 * total energy  :  -234.7438164 Eh     change       -0.1717059E-02 Eh
   gradient norm :     0.0268093 Eh/α   predicted    -0.1748731E-02 (   1.84%)
   displ. norm   :     0.6600830 α      lambda       -0.3299325E-02
   maximum displ.:     0.3022046 α      in ANC's #19, #11, #22, ...

........................................................................
.............................. CYCLE   11 ..............................
........................................................................
   1   -238.2936973 -0.238294E+03  0.249E-01    0.38       0.0  T
   2   -238.2932941  0.403164E-03  0.145E-01    0.40       1.0  T
   3   -238.2599296  0.333645E-01  0.350E-01    0.35       1.0  T
   4   -238.2932723 -0.333427E-01  0.537E-02    0.41       1.0  T
   5   -238.2938808 -0.608550E-03  0.135E-02    0.39       1.0  T
   6   -238.2938911 -0.102652E-04  0.736E-03    0.39       1.3  T
   7   -238.2938949 -0.378873E-05  0.369E-03    0.39       2.5  T
   8   -238.2938954 -0.547355E-06  0.174E-03    0.39       5.4  T
     SCC iter.                  ...        0 min,  0.111 sec
     gradient                   ...        0 min,  0.025 sec
 * total energy  :  -234.7449805 Eh     change       -0.1164105E-02 Eh
   gradient norm :     0.0643534 Eh/α   predicted    -0.2368438E-02 ( 103.46%)
   displ. norm   :     0.4516917 α      lambda       -0.3778588E-02
   maximum displ.:     0.1902402 α      in ANC's #11, #19, #34, ...

........................................................................
.............................. CYCLE   12 ..............................
........................................................................
   1   -238.3041428 -0.238304E+03  0.185E-01    0.38       0.0  T
   2   -238.3041315  0.112429E-04  0.104E-01    0.39       1.0  T
   3   -238.2998129  0.431861E-02  0.137E-01    0.36       1.0  T
   4   -238.3034726 -0.365973E-02  0.567E-02    0.40       1.0  T
   5   -238.3042349 -0.762256E-03  0.922E-03    0.39       1.0  T
   6   -238.3042392 -0.429549E-05  0.468E-03    0.38       2.0  T
   7   -238.3042404 -0.116281E-05  0.217E-03    0.39       4.3  T
     SCC iter.                  ...        0 min,  0.099 sec
     gradient                   ...        0 min,  0.025 sec
 * total energy  :  -234.7468489 Eh     change       -0.1868364E-02 Eh
   gradient norm :     0.0282508 Eh/α   predicted    -0.2274766E-02 (  21.75%)
   displ. norm   :     0.5129934 α      lambda       -0.2522775E-02
   maximum displ.:     0.2373387 α      in ANC's #11, #19, #6, ...

........................................................................
.............................. CYCLE   13 ..............................
........................................................................
   1   -238.3057422 -0.238306E+03  0.184E-01    0.39       0.0  T
   2   -238.3056415  0.100765E-03  0.104E-01    0.39       1.0  T
   3   -238.2974199  0.822155E-02  0.186E-01    0.37       1.0  T
   4   -238.3050239 -0.760394E-02  0.598E-02    0.41       1.0  T
   5   -238.3058490 -0.825168E-03  0.103E-02    0.39       1.0  T
   6   -238.3058499 -0.842045E-06  0.615E-03    0.39       1.5  T
   7   -238.3058536 -0.370859E-05  0.203E-03    0.39       4.6  T
   8   -238.3058539 -0.343955E-06  0.924E-04    0.39      10.1  T
     SCC iter.                  ...        0 min,  0.113 sec
     gradient                   ...        0 min,  0.025 sec
 * total energy  :  -234.7481384 Eh     change       -0.1289461E-02 Eh
   gradient norm :     0.0289218 Eh/α   predicted    -0.1593341E-02 (  23.57%)
   displ. norm   :     0.5941511 α      lambda       -0.2186139E-02
   maximum displ.:     0.2860222 α      in ANC's #11, #19, #6, ...

........................................................................
.............................. CYCLE   14 ..............................
........................................................................
   1   -238.3092575 -0.238309E+03  0.180E-01    0.39       0.0  T
   2   -238.3092807 -0.232339E-04  0.995E-02    0.39       1.0  T
   3   -238.3082242  0.105649E-02  0.790E-02    0.38       1.0  T
   4   -238.3084673 -0.243039E-03  0.606E-02    0.41       1.0  T
   5   -238.3093264 -0.859127E-03  0.118E-02    0.39       1.0  T
   6   -238.3093409 -0.145075E-04  0.524E-03    0.39       1.8  T
   7   -238.3093435 -0.259852E-05  0.139E-03    0.39       6.7  T
   8   -238.3093436 -0.105134E-06  0.710E-04    0.39      13.1  T
     SCC iter.                  ...        0 min,  0.116 sec
     gradient                   ...        0 min,  0.025 sec
 * total energy  :  -234.7497464 Eh     change       -0.1608000E-02 Eh
   gradient norm :     0.0191993 Eh/α   predicted    -0.1478943E-02 (  -8.03%)
   displ. norm   :     0.6854237 α      lambda       -0.2117882E-02
   maximum displ.:     0.3244132 α      in ANC's #11, #19, #6, ...

........................................................................
.............................. CYCLE   15 ..............................
........................................................................
   1   -238.2958865 -0.238296E+03  0.199E-01    0.39       0.0  T
   2   -238.2950594  0.827070E-03  0.126E-01    0.40       1.0  T
   3   -238.2690076  0.260518E-01  0.321E-01    0.37       1.0  T
   4   -238.2953115 -0.263039E-01  0.561E-02    0.42       1.0  T
   5   -238.2960273 -0.715791E-03  0.132E-02    0.40       1.0  T
   6   -238.2960344 -0.710775E-05  0.769E-03    0.39       1.2  T
   7   -238.2960377 -0.330068E-05  0.409E-03    0.39       2.3  T
   8   -238.2960387 -0.977305E-06  0.202E-03    0.39       4.6  T
   9   -238.2960392 -0.477012E-06  0.113E-03    0.39       8.3  T
     SCC iter.                  ...        0 min,  0.130 sec
     gradient                   ...        0 min,  0.025 sec
 * total energy  :  -234.7508861 Eh     change       -0.1139710E-02 Eh
   gradient norm :     0.0393888 Eh/α   predicted    -0.1556439E-02 (  36.56%)
   displ. norm   :     0.5518645 α      lambda       -0.2023371E-02
   maximum displ.:     0.2444101 α      in ANC's #11, #19, #18, ...

........................................................................
.............................. CYCLE   16 ..............................
........................................................................
   1   -238.3111588 -0.238311E+03  0.151E-01    0.40       0.0  T
   2   -238.3111736 -0.147891E-04  0.825E-02    0.39       1.0  T
   3   -238.3108320  0.341566E-03  0.538E-02    0.39       1.0  T
   4   -238.3110998 -0.267781E-03  0.235E-02    0.40       1.0  T
   5   -238.3111189 -0.190358E-04  0.209E-02    0.39       1.0  T
   6   -238.3112119 -0.930929E-04  0.709E-03    0.40       1.3  T
   7   -238.3112184 -0.648819E-05  0.227E-03    0.40       4.1  T
   8   -238.3112193 -0.880566E-06  0.789E-04    0.40      11.8  T
   9   -238.3112194 -0.526397E-07  0.419E-04    0.40      22.3  T
     SCC iter.                  ...        0 min,  0.126 sec
     gradient                   ...        0 min,  0.025 sec
 * total energy  :  -234.7521983 Eh     change       -0.1312248E-02 Eh
   gradient norm :     0.0218062 Eh/α   predicted    -0.1319805E-02 (   0.58%)
   displ. norm   :     0.6507870 α      lambda       -0.1862188E-02
   maximum displ.:     0.3115568 α      in ANC's #11, #19, #18, ...

........................................................................
.............................. CYCLE   17 ..............................
........................................................................
   1   -238.3094499 -0.238309E+03  0.195E-01    0.39       0.0  T
   2   -238.3085289  0.920949E-03  0.123E-01    0.41       1.0  T
   3   -238.2831073  0.254216E-01  0.317E-01    0.37       1.0  T
   4   -238.3090059 -0.258986E-01  0.530E-02    0.42       1.0  T
   5   -238.3095999 -0.593985E-03  0.133E-02    0.40       1.0  T
   6   -238.3096088 -0.893252E-05  0.774E-03    0.40       1.2  T
   7   -238.3096122 -0.342797E-05  0.376E-03    0.40       2.5  T
   8   -238.3096130 -0.707634E-06  0.203E-03    0.40       4.6  T
     SCC iter.                  ...        0 min,  0.112 sec
     gradient                   ...        0 min,  0.025 sec
 * total energy  :  -234.7531113 Eh     change       -0.9129520E-03 Eh
   gradient norm :     0.0257809 Eh/α   predicted    -0.1325439E-02 (  45.18%)
   displ. norm   :     0.5839539 α      lambda       -0.1597146E-02
   maximum displ.:     0.2806171 α      in ANC's #11, #19, #6, ...

........................................................................
.............................. CYCLE   18 ..............................
........................................................................
   1   -238.3015254 -0.238302E+03  0.163E-01    0.40       0.0  T
   2   -238.3014771  0.483437E-04  0.914E-02    0.40       1.0  T
   3   -238.2966986  0.477855E-02  0.139E-01    0.38       1.0  T
   4   -238.3011158 -0.441728E-02  0.465E-02    0.41       1.0  T
   5   -238.3015876 -0.471772E-03  0.920E-03    0.40       1.0  T
   6   -238.3015896 -0.203883E-05  0.545E-03    0.40       1.7  T
   7   -238.3015923 -0.263794E-05  0.267E-03    0.40       3.5  T
     SCC iter.                  ...        0 min,  0.105 sec
     gradient                   ...        0 min,  0.026 sec
 * total energy  :  -234.7540045 Eh     change       -0.8931893E-03 Eh
   gradient norm :     0.0233682 Eh/α   predicted    -0.1070891E-02 (  19.90%)
   displ. norm   :     0.4921352 α      lambda       -0.1541378E-02
   maximum displ.:     0.2033929 α      in ANC's #11, #8, #18, ...

........................................................................
.............................. CYCLE   19 ..............................
........................................................................
   1   -238.3085909 -0.238309E+03  0.149E-01    0.40       0.0  T
   2   -238.3085923 -0.141959E-05  0.851E-02    0.40       1.0  T
   3   -238.3066951  0.189714E-02  0.959E-02    0.39       1.0  T
   4   -238.3079776 -0.128250E-02  0.518E-02    0.41       1.0  T
   5   -238.3086538 -0.676123E-03  0.644E-03    0.40       1.4  T
   6   -238.3086549 -0.117578E-05  0.364E-03    0.40       2.6  T
   7   -238.3086559 -0.100867E-05  0.182E-03    0.40       5.1  T
     SCC iter.                  ...        0 min,  0.099 sec
     gradient                   ...        0 min,  0.025 sec
 * total energy  :  -234.7546706 Eh     change       -0.6661725E-03 Eh
   gradient norm :     0.0239606 Eh/α   predicted    -0.9573519E-03 (  43.71%)
   displ. norm   :     0.4938427 α      lambda       -0.1090043E-02
   maximum displ.:     0.2286869 α      in ANC's #11, #6, #8, ...

........................................................................
.............................. CYCLE   20 ..............................
........................................................................
   1   -238.3114577 -0.238311E+03  0.140E-01    0.39       0.0  T
   2   -238.3108397  0.617995E-03  0.907E-02    0.41       1.0  T
   3   -238.2965363  0.143034E-01  0.239E-01    0.37       1.0  T
   4   -238.3113785 -0.148422E-01  0.292E-02    0.41       1.0  T
   5   -238.3115413 -0.162786E-03  0.858E-03    0.40       1.1  T
   6   -238.3115431 -0.182007E-05  0.536E-03    0.40       1.7  T
   7   -238.3115451 -0.196174E-05  0.277E-03    0.40       3.4  T
     SCC iter.                  ...        0 min,  0.100 sec
     gradient                   ...        0 min,  0.025 sec
 * total energy  :  -234.7553905 Eh     change       -0.7198363E-03 Eh
   gradient norm :     0.0128709 Eh/α   predicted    -0.6779459E-03 (  -5.82%)
   displ. norm   :     0.5417031 α      lambda       -0.1002273E-02
   maximum displ.:     0.2436667 α      in ANC's #11, #6, #8, ...
 * RMSD in coord.:     0.8050121 α      energy gain  -0.7457367E-01 Eh

generating ANC from model Hessian ...
Using Lindh-Hessian (1995)
 Shifting diagonal of input Hessian by   5.049161698911284E-003
 Lowest  eigenvalues of input Hessian
    0.005000    0.005044    0.000000    0.000000    0.000000    0.000000
    0.000000    0.000000    0.005053    0.005068    0.005097    0.005103
    0.005132    0.005215    0.005270    0.005405    0.005473    0.005498
 Highest eigenvalues
    2.617957    2.618308    2.621662    2.639437    2.652071    2.656368
 

........................................................................
.............................. CYCLE   21 ..............................
........................................................................
   1   -238.3153492 -0.238315E+03  0.137E-01    0.40       0.0  T
   2   -238.3153697 -0.204710E-04  0.776E-02    0.40       1.0  T
   3   -238.3151757  0.193938E-03  0.343E-02    0.39       1.0  T
   4   -238.3152379 -0.622152E-04  0.248E-02    0.40       1.0  T
   5   -238.3153781 -0.140159E-03  0.682E-03    0.40       1.4  T
   6   -238.3153841 -0.598593E-05  0.331E-03    0.40       2.8  T
   7   -238.3153848 -0.758325E-06  0.175E-03    0.40       5.3  T
   8   -238.3153853 -0.429922E-06  0.671E-04    0.40      13.9  T
   9   -238.3153853 -0.263130E-07  0.407E-04    0.40      22.9  T
     SCC iter.                  ...        0 min,  0.128 sec
     gradient                   ...        0 min,  0.026 sec
 * total energy  :  -234.7557245 Eh     change       -0.3340551E-03 Eh
   gradient norm :     0.0264475 Eh/α   predicted     0.0000000E+00 (-100.00%)
   displ. norm   :     0.2184119 α      lambda       -0.9981480E-03
   maximum displ.:     0.0778725 α      in ANC's #10, #23, #8, ...

........................................................................
.............................. CYCLE   22 ..............................
........................................................................
   1   -238.3143168 -0.238314E+03  0.110E-01    0.39       0.0  T
   2   -238.3142698  0.469797E-04  0.634E-02    0.40       1.0  T
   3   -238.3099444  0.432542E-02  0.131E-01    0.37       1.0  T
   4   -238.3142666 -0.432223E-02  0.201E-02    0.40       1.0  T
   5   -238.3143530 -0.864133E-04  0.352E-03    0.40       2.7  T
   6   -238.3143535 -0.433977E-06  0.216E-03    0.39       4.3  T
   7   -238.3143537 -0.260661E-06  0.131E-03    0.40       7.1  T
     SCC iter.                  ...        0 min,  0.100 sec
     gradient                   ...        0 min,  0.025 sec
 * total energy  :  -234.7560469 Eh     change       -0.3223188E-03 Eh
   gradient norm :     0.0122606 Eh/α   predicted    -0.5228819E-03 (  62.23%)
   displ. norm   :     0.2867253 α      lambda       -0.1342116E-02
   maximum displ.:     0.1664393 α      in ANC's #14, #8, #23, ...

........................................................................
.............................. CYCLE   23 ..............................
........................................................................
   1   -238.3159197 -0.238316E+03  0.171E-01    0.39       0.0  T
   2   -238.3159558 -0.360791E-04  0.949E-02    0.39       1.0  T
   3   -238.3155524  0.403437E-03  0.460E-02    0.40       1.0  T
   4   -238.3157820 -0.229610E-03  0.288E-02    0.39       1.0  T
   5   -238.3159804 -0.198457E-03  0.488E-03    0.39       1.9  T
   6   -238.3159825 -0.202795E-05  0.306E-03    0.39       3.1  T
   7   -238.3159834 -0.893903E-06  0.137E-03    0.39       6.8  T
   8   -238.3159836 -0.195242E-06  0.580E-04    0.39      16.1  T
     SCC iter.                  ...        0 min,  0.117 sec
     gradient                   ...        0 min,  0.025 sec
 * total energy  :  -234.7555039 Eh     change        0.5430073E-03 Eh
   gradient norm :     0.0371344 Eh/α   predicted    -0.7262266E-03 (-233.74%)
   displ. norm   :     0.1582631 α      lambda       -0.2030484E-02
   maximum displ.:     0.0670785 α      in ANC's #23, #14, #28, ...

........................................................................
.............................. CYCLE   24 ..............................
........................................................................
   1   -238.3169389 -0.238317E+03  0.125E-01    0.39       0.0  T
   2   -238.3169632 -0.242497E-04  0.686E-02    0.39       1.0  T
   3   -238.3169145  0.486868E-04  0.193E-02    0.40       1.0  T
   4   -238.3169238 -0.925959E-05  0.143E-02    0.39       1.0  T
   5   -238.3169703 -0.464994E-04  0.530E-03    0.40       1.8  T
   6   -238.3169752 -0.490331E-05  0.200E-03    0.39       4.7  T
   7   -238.3169755 -0.316702E-06  0.944E-04    0.39       9.9  T
     SCC iter.                  ...        0 min,  0.105 sec
     gradient                   ...        0 min,  0.025 sec
 * total energy  :  -234.7564262 Eh     change       -0.9223543E-03 Eh
   gradient norm :     0.0090047 Eh/α   predicted    -0.1040675E-02 (  12.83%)
   displ. norm   :     0.1819163 α      lambda       -0.7614100E-03
   maximum displ.:     0.0509422 α      in ANC's #60, #32, #27, ...

........................................................................
.............................. CYCLE   25 ..............................
........................................................................
   1   -238.3129755 -0.238313E+03  0.141E-01    0.39       0.0  T
   2   -238.3129743  0.115077E-05  0.780E-02    0.39       1.0  T
   3   -238.3111090  0.186531E-02  0.882E-02    0.42       1.0  T
   4   -238.3129700 -0.186099E-02  0.166E-02    0.39       1.0  T
   5   -238.3130169 -0.468256E-04  0.351E-03    0.39       2.7  T
   6   -238.3130168  0.854002E-07  0.267E-03    0.39       3.5  T
   7   -238.3130177 -0.969268E-06  0.895E-04    0.39      10.4  T
     SCC iter.                  ...        0 min,  0.116 sec
     gradient                   ...        0 min,  0.025 sec
 * total energy  :  -234.7562111 Eh     change        0.2150701E-03 Eh
   gradient norm :     0.0174541 Eh/α   predicted    -0.3933044E-03 (-282.87%)
   displ. norm   :     0.1661408 α      lambda       -0.1019445E-02
   maximum displ.:     0.0577070 α      in ANC's #8, #27, #30, ...

........................................................................
.............................. CYCLE   26 ..............................
........................................................................
   1   -238.3145595 -0.238315E+03  0.122E-01    0.39       0.0  T
   2   -238.3145636 -0.409299E-05  0.675E-02    0.39       1.0  T
   3   -238.3134136  0.115005E-02  0.679E-02    0.38       1.0  T
   4   -238.3145681 -0.115456E-02  0.928E-03    0.40       1.0  T
   5   -238.3145854 -0.172439E-04  0.227E-03    0.39       4.1  T
   6   -238.3145855 -0.897737E-07  0.136E-03    0.39       6.8  T
   7   -238.3145856 -0.105345E-06  0.645E-04    0.39      14.5  T
     SCC iter.                  ...        0 min,  0.102 sec
     gradient                   ...        0 min,  0.025 sec
 * total energy  :  -234.7566234 Eh     change       -0.4123080E-03 Eh
   gradient norm :     0.0079551 Eh/α   predicted    -0.5237969E-03 (  27.04%)
   displ. norm   :     0.2771887 α      lambda       -0.1011129E-02
   maximum displ.:     0.0980915 α      in ANC's #14, #10, #60, ...

........................................................................
.............................. CYCLE   27 ..............................
........................................................................
   1   -238.3137402 -0.238314E+03  0.186E-01    0.39       0.0  T
   2   -238.3137808 -0.406401E-04  0.103E-01    0.39       1.0  T
   3   -238.3136308  0.149995E-03  0.315E-02    0.39       1.0  T
   4   -238.3136955 -0.646241E-04  0.210E-02    0.40       1.0  T
   5   -238.3138027 -0.107225E-03  0.531E-03    0.39       1.8  T
   6   -238.3138052 -0.253452E-05  0.324E-03    0.39       2.9  T
   7   -238.3138063 -0.107718E-05  0.121E-03    0.39       7.7  T
   8   -238.3138065 -0.162307E-06  0.455E-04    0.39      20.5  T
     SCC iter.                  ...        0 min,  0.120 sec
     gradient                   ...        0 min,  0.025 sec
 * total energy  :  -234.7559675 Eh     change        0.6559792E-03 Eh
   gradient norm :     0.0230129 Eh/α   predicted    -0.5444123E-03 (-182.99%)
   displ. norm   :     0.1673706 α      lambda       -0.1883381E-02
   maximum displ.:     0.0497490 α      in ANC's #28, #18, #31, ...

........................................................................
.............................. CYCLE   28 ..............................
........................................................................
   1   -238.3179343 -0.238318E+03  0.144E-01    0.39       0.0  T
   2   -238.3179277  0.659921E-05  0.800E-02    0.39       1.0  T
   3   -238.3157397  0.218797E-02  0.944E-02    0.42       1.0  T
   4   -238.3179564 -0.221665E-02  0.118E-02    0.39       1.0  T
   5   -238.3179739 -0.175109E-04  0.302E-03    0.39       3.1  T
   6   -238.3179736  0.289234E-06  0.256E-03    0.39       3.6  T
   7   -238.3179744 -0.835452E-06  0.704E-04    0.39      13.2  T
     SCC iter.                  ...        0 min,  0.099 sec
     gradient                   ...        0 min,  0.025 sec
 * total energy  :  -234.7568713 Eh     change       -0.9038651E-03 Eh
   gradient norm :     0.0090600 Eh/α   predicted    -0.9680710E-03 (   7.10%)
   displ. norm   :     0.2095900 α      lambda       -0.7233910E-03
   maximum displ.:     0.0671390 α      in ANC's #60, #14, #10, ...

........................................................................
.............................. CYCLE   29 ..............................
........................................................................
   1   -238.3113668 -0.238311E+03  0.136E-01    0.39       0.0  T
   2   -238.3113884 -0.216022E-04  0.754E-02    0.39       1.0  T
   3   -238.3110051  0.383325E-03  0.438E-02    0.38       1.0  T
   4   -238.3112274 -0.222376E-03  0.272E-02    0.40       1.0  T
   5   -238.3114088 -0.181375E-03  0.276E-03    0.39       3.4  T
   6   -238.3114088 -0.336051E-07  0.182E-03    0.39       5.1  T
   7   -238.3114091 -0.273234E-06  0.783E-04    0.39      11.9  T
     SCC iter.                  ...        0 min,  0.101 sec
     gradient                   ...        0 min,  0.025 sec
 * total energy  :  -234.7566523 Eh     change        0.2189853E-03 Eh
   gradient norm :     0.0162042 Eh/α   predicted    -0.3775861E-03 (-272.43%)
   displ. norm   :     0.1547836 α      lambda       -0.9550722E-03
   maximum displ.:     0.0520821 α      in ANC's #8, #60, #10, ...

........................................................................
.............................. CYCLE   30 ..............................
........................................................................
   1   -238.3163561 -0.238316E+03  0.865E-02    0.39       0.0  T
   2   -238.3163580 -0.195959E-05  0.483E-02    0.39       1.0  T
   3   -238.3157277  0.630300E-03  0.512E-02    0.41       1.0  T
   4   -238.3163381 -0.610361E-03  0.133E-02    0.39       1.0  T
   5   -238.3163733 -0.352059E-04  0.179E-03    0.39       5.2  T
   6   -238.3163733 -0.109345E-07  0.126E-03    0.39       7.4  T
   7   -238.3163734 -0.931965E-07  0.673E-04    0.39      13.9  T
     SCC iter.                  ...        0 min,  0.103 sec
     gradient                   ...        0 min,  0.025 sec
 * total energy  :  -234.7571808 Eh     change       -0.5284752E-03 Eh
   gradient norm :     0.0035273 Eh/α   predicted    -0.4889803E-03 (  -7.47%)
   displ. norm   :     0.2494946 α      lambda       -0.2675968E-03
   maximum displ.:     0.1091637 α      in ANC's #10, #8, #14, ...

........................................................................
.............................. CYCLE   31 ..............................
........................................................................
   1   -238.3150581 -0.238315E+03  0.702E-02    0.39       0.0  T
   2   -238.3150577  0.351688E-06  0.400E-02    0.39       1.0  T
   3   -238.3145930  0.464740E-03  0.434E-02    0.40       1.0  T
   4   -238.3150432 -0.450219E-03  0.114E-02    0.39       1.0  T
   5   -238.3150680 -0.247677E-04  0.202E-03    0.39       4.6  T
   6   -238.3150681 -0.687324E-07  0.126E-03    0.39       7.4  T
   7   -238.3150681 -0.618623E-07  0.635E-04    0.39      14.7  T
   8   -238.3150682 -0.494306E-07  0.261E-04    0.39      35.7  T
     SCC iter.                  ...        0 min,  0.118 sec
     gradient                   ...        0 min,  0.026 sec
 * total energy  :  -234.7573415 Eh     change       -0.1607313E-03 Eh
   gradient norm :     0.0051637 Eh/α   predicted    -0.1421272E-03 ( -11.57%)
   displ. norm   :     0.4553947 α      lambda       -0.3856459E-03
   maximum displ.:     0.2041516 α      in ANC's #8, #10, #14, ...

........................................................................
.............................. CYCLE   32 ..............................
........................................................................
   1   -238.3140563 -0.238314E+03  0.853E-02    0.39       0.0  T
   2   -238.3140450  0.113193E-04  0.504E-02    0.39       1.0  T
   3   -238.3128230  0.122197E-02  0.701E-02    0.41       1.0  T
   4   -238.3140499 -0.122690E-02  0.105E-02    0.39       1.0  T
   5   -238.3140655 -0.155829E-04  0.297E-03    0.39       3.1  T
   6   -238.3140657 -0.230738E-06  0.185E-03    0.39       5.0  T
   7   -238.3140659 -0.243654E-06  0.824E-04    0.39      11.3  T
     SCC iter.                  ...        0 min,  0.102 sec
     gradient                   ...        0 min,  0.025 sec
 * total energy  :  -234.7576742 Eh     change       -0.3326316E-03 Eh
   gradient norm :     0.0059461 Eh/α   predicted    -0.2328146E-03 ( -30.01%)
   displ. norm   :     0.6638229 α      lambda       -0.5222780E-03
   maximum displ.:     0.3044822 α      in ANC's #8, #10, #14, ...

........................................................................
.............................. CYCLE   33 ..............................
........................................................................
   1   -238.3143187 -0.238314E+03  0.121E-01    0.39       0.0  T
   2   -238.3143066  0.121188E-04  0.716E-02    0.39       1.0  T
   3   -238.3125804  0.172616E-02  0.828E-02    0.42       1.0  T
   4   -238.3142908 -0.171034E-02  0.172E-02    0.39       1.0  T
   5   -238.3143366 -0.457875E-04  0.439E-03    0.39       2.1  T
   6   -238.3143370 -0.470952E-06  0.310E-03    0.39       3.0  T
   7   -238.3143378 -0.817962E-06  0.155E-03    0.39       6.0  T
   8   -238.3143381 -0.280415E-06  0.592E-04    0.39      15.8  T
     SCC iter.                  ...        0 min,  0.117 sec
     gradient                   ...        0 min,  0.025 sec
 * total energy  :  -234.7581085 Eh     change       -0.4343629E-03 Eh
   gradient norm :     0.0053360 Eh/α   predicted    -0.3762129E-03 ( -13.39%)
   displ. norm   :     0.6832381 α      lambda       -0.4660742E-03
   maximum displ.:     0.3256343 α      in ANC's #8, #10, #7, ...

........................................................................
.............................. CYCLE   34 ..............................
........................................................................
   1   -238.3141011 -0.238314E+03  0.122E-01    0.39       0.0  T
   2   -238.3140329  0.682449E-04  0.730E-02    0.39       1.0  T
   3   -238.3096447  0.438816E-02  0.134E-01    0.44       1.0  T
   4   -238.3141007 -0.445602E-02  0.129E-02    0.40       1.0  T
   5   -238.3141230 -0.222570E-04  0.364E-03    0.39       2.6  T
   6   -238.3141229  0.552469E-07  0.263E-03    0.39       3.5  T
   7   -238.3141233 -0.389275E-06  0.152E-03    0.39       6.1  T
     SCC iter.                  ...        0 min,  0.105 sec
     gradient                   ...        0 min,  0.025 sec
 * total energy  :  -234.7584712 Eh     change       -0.3626205E-03 Eh
   gradient norm :     0.0060002 Eh/α   predicted    -0.3418247E-03 (  -5.73%)
   displ. norm   :     0.6577396 α      lambda       -0.4424744E-03
   maximum displ.:     0.3243868 α      in ANC's #8, #10, #7, ...

........................................................................
.............................. CYCLE   35 ..............................
........................................................................
   1   -238.3148197 -0.238315E+03  0.116E-01    0.39       0.0  T
   2   -238.3148298 -0.101350E-04  0.679E-02    0.39       1.0  T
   3   -238.3147488  0.809494E-04  0.246E-02    0.39       1.0  T
   4   -238.3148150 -0.661918E-04  0.101E-02    0.39       1.0  T
   5   -238.3148218 -0.674264E-05  0.864E-03    0.39       1.1  T
   6   -238.3148376 -0.157782E-04  0.315E-03    0.39       3.0  T
   7   -238.3148384 -0.852072E-06  0.162E-03    0.39       5.8  T
   8   -238.3148387 -0.291653E-06  0.471E-04    0.39      19.8  T
     SCC iter.                  ...        0 min,  0.119 sec
     gradient                   ...        0 min,  0.025 sec
 * total energy  :  -234.7588027 Eh     change       -0.3314908E-03 Eh
   gradient norm :     0.0054460 Eh/α   predicted    -0.3169510E-03 (  -4.39%)
   displ. norm   :     0.6218715 α      lambda       -0.3759659E-03
   maximum displ.:     0.3145067 α      in ANC's #8, #10, #7, ...

........................................................................
.............................. CYCLE   36 ..............................
........................................................................
   1   -238.3180381 -0.238318E+03  0.104E-01    0.40       0.0  T
   2   -238.3180043  0.337812E-04  0.620E-02    0.39       1.0  T
   3   -238.3154639  0.254044E-02  0.101E-01    0.43       1.0  T
   4   -238.3180341 -0.257025E-02  0.129E-02    0.40       1.0  T
   5   -238.3180540 -0.198740E-04  0.338E-03    0.39       2.8  T
   6   -238.3180542 -0.269089E-06  0.233E-03    0.39       4.0  T
   7   -238.3180545 -0.275497E-06  0.135E-03    0.39       6.9  T
     SCC iter.                  ...        0 min,  0.102 sec
     gradient                   ...        0 min,  0.025 sec
 * total energy  :  -234.7591132 Eh     change       -0.3105583E-03 Eh
   gradient norm :     0.0050230 Eh/α   predicted    -0.2606811E-03 ( -16.06%)
   displ. norm   :     0.6841885 α      lambda       -0.4337160E-03
   maximum displ.:     0.3493379 α      in ANC's #8, #10, #7, ...

........................................................................
.............................. CYCLE   37 ..............................
........................................................................
   1   -238.3219947 -0.238322E+03  0.114E-01    0.40       0.0  T
   2   -238.3219860  0.872598E-05  0.671E-02    0.39       1.0  T
   3   -238.3207568  0.122916E-02  0.719E-02    0.42       1.0  T
   4   -238.3218984 -0.114162E-02  0.237E-02    0.39       1.0  T
   5   -238.3220124 -0.113950E-03  0.496E-03    0.40       1.9  T
   6   -238.3220140 -0.156525E-05  0.296E-03    0.39       3.1  T
   7   -238.3220146 -0.607853E-06  0.148E-03    0.40       6.3  T
     SCC iter.                  ...        0 min,  0.110 sec
     gradient                   ...        0 min,  0.026 sec
 * total energy  :  -234.7594312 Eh     change       -0.3179645E-03 Eh
   gradient norm :     0.0070676 Eh/α   predicted    -0.3183787E-03 (   0.13%)
   displ. norm   :     0.6941603 α      lambda       -0.4078562E-03
   maximum displ.:     0.3492720 α      in ANC's #8, #10, #7, ...

........................................................................
.............................. CYCLE   38 ..............................
........................................................................
   1   -238.3181139 -0.238318E+03  0.123E-01    0.40       0.0  T
   2   -238.3181085  0.533335E-05  0.713E-02    0.39       1.0  T
   3   -238.3169011  0.120740E-02  0.695E-02    0.42       1.0  T
   4   -238.3180554 -0.115423E-02  0.209E-02    0.39       1.0  T
   5   -238.3181328 -0.774092E-04  0.563E-03    0.40       1.7  T
   6   -238.3181342 -0.140889E-05  0.341E-03    0.40       2.7  T
   7   -238.3181352 -0.999741E-06  0.159E-03    0.40       5.9  T
   8   -238.3181355 -0.319015E-06  0.587E-04    0.40      15.9  T
     SCC iter.                  ...        0 min,  0.118 sec
     gradient                   ...        0 min,  0.025 sec
 * total energy  :  -234.7597671 Eh     change       -0.3358803E-03 Eh
   gradient norm :     0.0071224 Eh/α   predicted    -0.3021961E-03 ( -10.03%)
   displ. norm   :     0.6440527 α      lambda       -0.5045125E-03
   maximum displ.:     0.2964132 α      in ANC's #8, #7, #2, ...

........................................................................
.............................. CYCLE   39 ..............................
........................................................................
   1   -238.3272254 -0.238327E+03  0.141E-01    0.40       0.0  T
   2   -238.3272422 -0.168111E-04  0.791E-02    0.40       1.0  T
   3   -238.3270312  0.211019E-03  0.392E-02    0.39       1.0  T
   4   -238.3271681 -0.136888E-03  0.208E-02    0.40       1.0  T
   5   -238.3272160 -0.479866E-04  0.150E-02    0.39       1.0  T
   6   -238.3272629 -0.468267E-04  0.417E-03    0.40       2.2  T
   7   -238.3272648 -0.191497E-05  0.139E-03    0.40       6.7  T
   8   -238.3272650 -0.173092E-06  0.639E-04    0.40      14.6  T
     SCC iter.                  ...        0 min,  0.118 sec
     gradient                   ...        0 min,  0.025 sec
 * total energy  :  -234.7599923 Eh     change       -0.2252900E-03 Eh
   gradient norm :     0.0098744 Eh/α   predicted    -0.3568952E-03 (  58.42%)
   displ. norm   :     0.6271432 α      lambda       -0.5502966E-03
   maximum displ.:     0.3029384 α      in ANC's #8, #10, #7, ...

........................................................................
.............................. CYCLE   40 ..............................
........................................................................
   1   -238.3187716 -0.238319E+03  0.109E-01    0.40       0.0  T
   2   -238.3187761 -0.457689E-05  0.638E-02    0.40       1.0  T
   3   -238.3185554  0.220775E-03  0.328E-02    0.40       1.0  T
   4   -238.3186769 -0.121503E-03  0.213E-02    0.39       1.0  T
   5   -238.3187800 -0.103120E-03  0.614E-03    0.40       1.5  T
   6   -238.3187849 -0.487655E-05  0.276E-03    0.40       3.4  T
   7   -238.3187855 -0.646697E-06  0.123E-03    0.40       7.6  T
   8   -238.3187857 -0.159100E-06  0.581E-04    0.40      16.0  T
     SCC iter.                  ...        0 min,  0.118 sec
     gradient                   ...        0 min,  0.025 sec
 * total energy  :  -234.7603324 Eh     change       -0.3400892E-03 Eh
   gradient norm :     0.0106990 Eh/α   predicted    -0.3833718E-03 (  12.73%)
   displ. norm   :     0.5071524 α      lambda       -0.3298987E-03
   maximum displ.:     0.2461876 α      in ANC's #8, #2, #7, ...

........................................................................
.............................. CYCLE   41 ..............................
........................................................................
   1   -238.3120808 -0.238312E+03  0.102E-01    0.40       0.0  T
   2   -238.3120880 -0.721829E-05  0.583E-02    0.40       1.0  T
   3   -238.3119848  0.103189E-03  0.260E-02    0.40       1.0  T
   4   -238.3120551 -0.702947E-04  0.135E-02    0.39       1.0  T
   5   -238.3120844 -0.292840E-04  0.781E-03    0.40       1.2  T
   6   -238.3120963 -0.118862E-04  0.258E-03    0.40       3.6  T
   7   -238.3120970 -0.706000E-06  0.807E-04    0.40      11.6  T
   8   -238.3120970 -0.312423E-07  0.488E-04    0.40      19.1  T
     SCC iter.                  ...        0 min,  0.119 sec
     gradient                   ...        0 min,  0.025 sec
 * total energy  :  -234.7605488 Eh     change       -0.2163320E-03 Eh
   gradient norm :     0.0119939 Eh/α   predicted    -0.2073810E-03 (  -4.14%)
   displ. norm   :     0.4135212 α      lambda       -0.3585023E-03
   maximum displ.:     0.1783212 α      in ANC's #8, #2, #7, ...

........................................................................
.............................. CYCLE   42 ..............................
........................................................................
   1   -238.3145741 -0.238315E+03  0.981E-02    0.40       0.0  T
   2   -238.3145768 -0.268799E-05  0.553E-02    0.40       1.0  T
   3   -238.3141692  0.407574E-03  0.416E-02    0.39       1.0  T
   4   -238.3144895 -0.320296E-03  0.209E-02    0.40       1.0  T
   5   -238.3145866 -0.971112E-04  0.503E-03    0.40       1.9  T
   6   -238.3145884 -0.180926E-05  0.234E-03    0.40       4.0  T
   7   -238.3145890 -0.555138E-06  0.745E-04    0.40      12.5  T
     SCC iter.                  ...        0 min,  0.103 sec
     gradient                   ...        0 min,  0.025 sec
 * total energy  :  -234.7608164 Eh     change       -0.2676777E-03 Eh
   gradient norm :     0.0075965 Eh/α   predicted    -0.2099047E-03 ( -21.58%)
   displ. norm   :     0.6447157 α      lambda       -0.3652645E-03
   maximum displ.:     0.2889731 α      in ANC's #8, #2, #7, ...
 * RMSD in coord.:     0.7328719 α      energy gain  -0.5425964E-02 Eh

generating ANC from model Hessian ...
Using Lindh-Hessian (1995)
 Shifting diagonal of input Hessian by   5.011686588733568E-003
 Lowest  eigenvalues of input Hessian
    0.005000   -0.000000   -0.000000   -0.000000    0.000000    0.000000
    0.000000    0.005014    0.005017    0.005052    0.005066    0.005082
    0.005166    0.005182    0.005237    0.005355    0.005429    0.005588
 Highest eigenvalues
    2.621601    2.628238    2.633375    2.639691    2.649746    2.650595
 

........................................................................
.............................. CYCLE   43 ..............................
........................................................................
   1   -238.3166699 -0.238317E+03  0.142E-01    0.40       0.0  T
   2   -238.3166799 -0.996862E-05  0.793E-02    0.40       1.0  T
   3   -238.3163381  0.341840E-03  0.425E-02    0.39       1.0  T
   4   -238.3165198 -0.181748E-03  0.275E-02    0.40       1.0  T
   5   -238.3166836 -0.163816E-03  0.946E-03    0.40       1.0  T
   6   -238.3166956 -0.119907E-04  0.382E-03    0.40       2.4  T
   7   -238.3166974 -0.176246E-05  0.103E-03    0.40       9.0  T
   8   -238.3166974 -0.600591E-07  0.639E-04    0.40      14.6  T
   9   -238.3166975 -0.137946E-07  0.402E-04    0.40      23.2  T
     SCC iter.                  ...        0 min,  0.132 sec
     gradient                   ...        0 min,  0.026 sec
 * total energy  :  -234.7611161 Eh     change       -0.2996699E-03 Eh
   gradient norm :     0.0065474 Eh/α   predicted     0.0000000E+00 (-100.00%)
   displ. norm   :     0.1733746 α      lambda       -0.3392795E-03
   maximum displ.:     0.0658148 α      in ANC's #26, #8, #7, ...

........................................................................
.............................. CYCLE   44 ..............................
........................................................................
   1   -238.3181709 -0.238318E+03  0.117E-01    0.40       0.0  T
   2   -238.3181639  0.702230E-05  0.651E-02    0.39       1.0  T
   3   -238.3166871  0.147677E-02  0.776E-02    0.42       1.0  T
   4   -238.3181753 -0.148817E-02  0.126E-02    0.40       1.0  T
   5   -238.3181980 -0.227298E-04  0.270E-03    0.40       3.5  T
   6   -238.3181980  0.337645E-07  0.180E-03    0.40       5.2  T
   7   -238.3181983 -0.313545E-06  0.832E-04    0.40      11.2  T
     SCC iter.                  ...        0 min,  0.102 sec
     gradient                   ...        0 min,  0.025 sec
 * total energy  :  -234.7610093 Eh     change        0.1067882E-03 Eh
   gradient norm :     0.0102285 Eh/α   predicted    -0.1748230E-03 (-263.71%)
   displ. norm   :     0.1556231 α      lambda       -0.6735466E-03
   maximum displ.:     0.0978688 α      in ANC's #7, #32, #26, ...

........................................................................
.............................. CYCLE   45 ..............................
........................................................................
   1   -238.3240536 -0.238324E+03  0.110E-01    0.40       0.0  T
   2   -238.3240617 -0.806751E-05  0.609E-02    0.40       1.0  T
   3   -238.3236167  0.444963E-03  0.417E-02    0.41       1.0  T
   4   -238.3240643 -0.447639E-03  0.829E-03    0.40       1.1  T
   5   -238.3240749 -0.105288E-04  0.179E-03    0.40       5.2  T
   6   -238.3240749 -0.562561E-07  0.117E-03    0.40       7.9  T
   7   -238.3240750 -0.962672E-07  0.537E-04    0.40      17.4  T
     SCC iter.                  ...        0 min,  0.100 sec
     gradient                   ...        0 min,  0.025 sec
 * total energy  :  -234.7612469 Eh     change       -0.2375273E-03 Eh
   gradient norm :     0.0094992 Eh/α   predicted    -0.3449310E-03 (  45.22%)
   displ. norm   :     0.1843550 α      lambda       -0.6063994E-03
   maximum displ.:     0.0756276 α      in ANC's #30, #26, #57, ...

........................................................................
.............................. CYCLE   46 ..............................
........................................................................
   1   -238.3236061 -0.238324E+03  0.132E-01    0.40       0.0  T
   2   -238.3236178 -0.116418E-04  0.730E-02    0.40       1.0  T
   3   -238.3227422  0.875535E-03  0.596E-02    0.38       1.0  T
   4   -238.3235624 -0.820130E-03  0.191E-02    0.40       1.0  T
   5   -238.3236417 -0.793197E-04  0.280E-03    0.40       3.3  T
   6   -238.3236418 -0.719470E-07  0.187E-03    0.40       5.0  T
   7   -238.3236421 -0.293930E-06  0.101E-03    0.40       9.2  T
     SCC iter.                  ...        0 min,  0.101 sec
     gradient                   ...        0 min,  0.025 sec
 * total energy  :  -234.7612148 Eh     change        0.3204327E-04 Eh
   gradient norm :     0.0095048 Eh/α   predicted    -0.3135049E-03 (*******%)
   displ. norm   :     0.1093867 α      lambda       -0.4949710E-03
   maximum displ.:     0.0382729 α      in ANC's #26, #34, #55, ...

........................................................................
.............................. CYCLE   47 ..............................
........................................................................
   1   -238.3230319 -0.238323E+03  0.697E-02    0.40       0.0  T
   2   -238.3230059  0.259853E-04  0.401E-02    0.39       1.0  T
   3   -238.3214537  0.155220E-02  0.802E-02    0.42       1.0  T
   4   -238.3230392 -0.158549E-02  0.700E-03    0.40       1.3  T
   5   -238.3230451 -0.590347E-05  0.126E-03    0.40       7.4  T
   6   -238.3230451  0.410267E-09  0.819E-04    0.40      11.4  T
   7   -238.3230451 -0.340888E-07  0.438E-04    0.40      21.3  T
     SCC iter.                  ...        0 min,  0.104 sec
     gradient                   ...        0 min,  0.025 sec
 * total energy  :  -234.7615003 Eh     change       -0.2854392E-03 Eh
   gradient norm :     0.0047349 Eh/α   predicted    -0.2504493E-03 ( -12.26%)
   displ. norm   :     0.2326135 α      lambda       -0.4203811E-03
   maximum displ.:     0.0894021 α      in ANC's #26, #12, #22, ...

........................................................................
.............................. CYCLE   48 ..............................
........................................................................
   1   -238.3176057 -0.238318E+03  0.126E-01    0.40       0.0  T
   2   -238.3175134  0.922998E-04  0.731E-02    0.39       1.0  T
   3   -238.3127662  0.474719E-02  0.142E-01    0.45       1.0  T
   4   -238.3176236 -0.485738E-02  0.133E-02    0.40       1.0  T
   5   -238.3176495 -0.259080E-04  0.281E-03    0.40       3.3  T
   6   -238.3176495  0.960219E-08  0.181E-03    0.40       5.1  T
   7   -238.3176496 -0.138513E-06  0.102E-03    0.40       9.2  T
     SCC iter.                  ...        0 min,  0.102 sec
     gradient                   ...        0 min,  0.025 sec
 * total energy  :  -234.7612342 Eh     change        0.2660099E-03 Eh
   gradient norm :     0.0148779 Eh/α   predicted    -0.2215642E-03 (-183.29%)
   displ. norm   :     0.1363772 α      lambda       -0.8816865E-03
   maximum displ.:     0.0527785 α      in ANC's #24, #7, #26, ...

........................................................................
.............................. CYCLE   49 ..............................
........................................................................
   1   -238.3211717 -0.238321E+03  0.918E-02    0.40       0.0  T
   2   -238.3211770 -0.529132E-05  0.509E-02    0.40       1.0  T
   3   -238.3206914  0.485559E-03  0.450E-02    0.39       1.0  T
   4   -238.3211547 -0.463284E-03  0.126E-02    0.40       1.0  T
   5   -238.3211903 -0.355467E-04  0.200E-03    0.40       4.7  T
   6   -238.3211902  0.858921E-07  0.151E-03    0.40       6.2  T
   7   -238.3211904 -0.240071E-06  0.689E-04    0.40      13.5  T
     SCC iter.                  ...        0 min,  0.105 sec
     gradient                   ...        0 min,  0.025 sec
 * total energy  :  -234.7617255 Eh     change       -0.4912248E-03 Eh
   gradient norm :     0.0040821 Eh/α   predicted    -0.4490430E-03 (  -8.59%)
   displ. norm   :     0.2183751 α      lambda       -0.2277507E-03
   maximum displ.:     0.1012117 α      in ANC's #26, #22, #7, ...

........................................................................
.............................. CYCLE   50 ..............................
........................................................................
   1   -238.3216395 -0.238322E+03  0.588E-02    0.40       0.0  T
   2   -238.3216199  0.196497E-04  0.344E-02    0.39       1.0  T
   3   -238.3205256  0.109430E-02  0.679E-02    0.42       1.0  T
   4   -238.3216415 -0.111598E-02  0.633E-03    0.40       1.5  T
   5   -238.3216459 -0.438584E-05  0.243E-03    0.40       3.8  T
   6   -238.3216459  0.395576E-07  0.169E-03    0.40       5.5  T
   7   -238.3216463 -0.418562E-06  0.580E-04    0.40      16.1  T
     SCC iter.                  ...        0 min,  0.104 sec
     gradient                   ...        0 min,  0.025 sec
 * total energy  :  -234.7618632 Eh     change       -0.1377316E-03 Eh
   gradient norm :     0.0052263 Eh/α   predicted    -0.1193063E-03 ( -13.38%)
   displ. norm   :     0.4835235 α      lambda       -0.3848966E-03
   maximum displ.:     0.2156682 α      in ANC's #26, #22, #7, ...

........................................................................
.............................. CYCLE   51 ..............................
........................................................................
   1   -238.3183821 -0.238318E+03  0.115E-01    0.40       0.0  T
   2   -238.3182866  0.955171E-04  0.679E-02    0.39       1.0  T
   3   -238.3140908  0.419574E-02  0.135E-01    0.44       1.0  T
   4   -238.3183818 -0.429096E-02  0.134E-02    0.40       1.0  T
   5   -238.3184063 -0.245149E-04  0.463E-03    0.40       2.0  T
   6   -238.3184055  0.834273E-06  0.346E-03    0.40       2.7  T
   7   -238.3184071 -0.168533E-05  0.137E-03    0.40       6.8  T
   8   -238.3184074 -0.232992E-06  0.584E-04    0.40      16.0  T
     SCC iter.                  ...        0 min,  0.116 sec
     gradient                   ...        0 min,  0.025 sec
 * total energy  :  -234.7621434 Eh     change       -0.2801541E-03 Eh
   gradient norm :     0.0094409 Eh/α   predicted    -0.2374423E-03 ( -15.25%)
   displ. norm   :     0.5282051 α      lambda       -0.4981676E-03
   maximum displ.:     0.2319907 α      in ANC's #26, #22, #12, ...

........................................................................
.............................. CYCLE   52 ..............................
........................................................................
   1   -238.3167756 -0.238317E+03  0.128E-01    0.40       0.0  T
   2   -238.3166191  0.156471E-03  0.760E-02    0.39       1.0  T
   3   -238.3109974  0.562166E-02  0.157E-01    0.45       1.0  T
   4   -238.3167669 -0.576944E-02  0.156E-02    0.40       1.0  T
   5   -238.3168083 -0.414039E-04  0.509E-03    0.40       1.8  T
   6   -238.3168070  0.131365E-05  0.378E-03    0.40       2.5  T
   7   -238.3168090 -0.207552E-05  0.161E-03    0.40       5.8  T
   8   -238.3168093 -0.291251E-06  0.680E-04    0.40      13.7  T
     SCC iter.                  ...        0 min,  0.114 sec
     gradient                   ...        0 min,  0.025 sec
 * total energy  :  -234.7624391 Eh     change       -0.2957063E-03 Eh
   gradient norm :     0.0119171 Eh/α   predicted    -0.3185842E-03 (   7.74%)
   displ. norm   :     0.4878158 α      lambda       -0.8752980E-03
   maximum displ.:     0.1714445 α      in ANC's #26, #12, #2, ...

........................................................................
.............................. CYCLE   53 ..............................
........................................................................
   1   -238.3242073 -0.238324E+03  0.119E-01    0.40       0.0  T
   2   -238.3241661  0.411510E-04  0.681E-02    0.39       1.0  T
   3   -238.3215035  0.266262E-02  0.109E-01    0.43       1.0  T
   4   -238.3242057 -0.270217E-02  0.131E-02    0.39       1.0  T
   5   -238.3242282 -0.225762E-04  0.636E-03    0.40       1.5  T
   6   -238.3242314 -0.315441E-05  0.329E-03    0.39       2.8  T
   7   -238.3242328 -0.141645E-05  0.142E-03    0.39       6.6  T
   8   -238.3242331 -0.287373E-06  0.564E-04    0.39      16.5  T
     SCC iter.                  ...        0 min,  0.116 sec
     gradient                   ...        0 min,  0.025 sec
 * total energy  :  -234.7628185 Eh     change       -0.3794586E-03 Eh
   gradient norm :     0.0110906 Eh/α   predicted    -0.5418020E-03 (  42.78%)
   displ. norm   :     0.5607056 α      lambda       -0.6720394E-03
   maximum displ.:     0.2304022 α      in ANC's #26, #12, #7, ...

........................................................................
.............................. CYCLE   54 ..............................
........................................................................
   1   -238.3187848 -0.238319E+03  0.115E-01    0.40       0.0  T
   2   -238.3186018  0.182990E-03  0.708E-02    0.39       1.0  T
   3   -238.3136185  0.498327E-02  0.150E-01    0.45       1.0  T
   4   -238.3187859 -0.516739E-02  0.145E-02    0.40       1.0  T
   5   -238.3188160 -0.300318E-04  0.508E-03    0.39       1.8  T
   6   -238.3188162 -0.231074E-06  0.341E-03    0.39       2.7  T
   7   -238.3188173 -0.111421E-05  0.176E-03    0.39       5.3  T
   8   -238.3188177 -0.403406E-06  0.703E-04    0.39      13.3  T
     SCC iter.                  ...        0 min,  0.117 sec
     gradient                   ...        0 min,  0.025 sec
 * total energy  :  -234.7632163 Eh     change       -0.3977807E-03 Eh
   gradient norm :     0.0135296 Eh/α   predicted    -0.4416657E-03 (  11.03%)
   displ. norm   :     0.2815308 α      lambda       -0.7643952E-03
   maximum displ.:     0.0915409 α      in ANC's #1, #20, #2, ...

........................................................................
.............................. CYCLE   55 ..............................
........................................................................
   1   -238.3232455 -0.238323E+03  0.962E-02    0.40       0.0  T
   2   -238.3231819  0.636488E-04  0.566E-02    0.39       1.0  T
   3   -238.3204233  0.275854E-02  0.111E-01    0.43       1.0  T
   4   -238.3232575 -0.283422E-02  0.107E-02    0.40       1.0  T
   5   -238.3232725 -0.149258E-04  0.457E-03    0.39       2.0  T
   6   -238.3232748 -0.228501E-05  0.226E-03    0.39       4.1  T
   7   -238.3232750 -0.208942E-06  0.136E-03    0.39       6.8  T
     SCC iter.                  ...        0 min,  0.104 sec
     gradient                   ...        0 min,  0.025 sec
 * total energy  :  -234.7633508 Eh     change       -0.1344667E-03 Eh
   gradient norm :     0.0181235 Eh/α   predicted    -0.4124908E-03 ( 206.76%)
   displ. norm   :     0.4556856 α      lambda       -0.9086946E-03
   maximum displ.:     0.1580817 α      in ANC's #26, #12, #2, ...

........................................................................
.............................. CYCLE   56 ..............................
........................................................................
   1   -238.3217414 -0.238322E+03  0.104E-01    0.39       0.0  T
   2   -238.3217508 -0.937728E-05  0.595E-02    0.39       1.0  T
   3   -238.3216233  0.127492E-03  0.258E-02    0.39       1.0  T
   4   -238.3216544 -0.311635E-04  0.204E-02    0.40       1.0  T
   5   -238.3217516 -0.971694E-04  0.694E-03    0.39       1.3  T
   6   -238.3217583 -0.665733E-05  0.296E-03    0.39       3.1  T
   7   -238.3217589 -0.606116E-06  0.152E-03    0.39       6.1  T
   8   -238.3217592 -0.328433E-06  0.476E-04    0.39      19.6  T
     SCC iter.                  ...        0 min,  0.116 sec
     gradient                   ...        0 min,  0.025 sec
 * total energy  :  -234.7638687 Eh     change       -0.5179300E-03 Eh
   gradient norm :     0.0101308 Eh/α   predicted    -0.5486936E-03 (   5.94%)
   displ. norm   :     0.4676321 α      lambda       -0.5425440E-03
   maximum displ.:     0.1501197 α      in ANC's #12, #1, #2, ...

........................................................................
.............................. CYCLE   57 ..............................
........................................................................
   1   -238.3204888 -0.238320E+03  0.956E-02    0.39       0.0  T
   2   -238.3204468  0.420094E-04  0.561E-02    0.39       1.0  T
   3   -238.3182097  0.223712E-02  0.993E-02    0.43       1.0  T
   4   -238.3204934 -0.228369E-02  0.931E-03    0.39       1.0  T
   5   -238.3205025 -0.913648E-05  0.454E-03    0.39       2.1  T
   6   -238.3205037 -0.117261E-05  0.273E-03    0.39       3.4  T
   7   -238.3205047 -0.100682E-05  0.113E-03    0.39       8.3  T
     SCC iter.                  ...        0 min,  0.101 sec
     gradient                   ...        0 min,  0.025 sec
 * total energy  :  -234.7641972 Eh     change       -0.3285174E-03 Eh
   gradient norm :     0.0106791 Eh/α   predicted    -0.3305961E-03 (   0.63%)
   displ. norm   :     0.3728598 α      lambda       -0.5096535E-03
   maximum displ.:     0.1379715 α      in ANC's #20, #1, #2, ...

........................................................................
.............................. CYCLE   58 ..............................
........................................................................
   1   -238.3263880 -0.238326E+03  0.723E-02    0.39       0.0  T
   2   -238.3263909 -0.298075E-05  0.414E-02    0.39       1.0  T
   3   -238.3263232  0.677375E-04  0.191E-02    0.39       1.0  T
   4   -238.3263850 -0.617892E-04  0.690E-03    0.40       1.4  T
   5   -238.3263896 -0.457936E-05  0.543E-03    0.39       1.7  T
   6   -238.3263951 -0.548736E-05  0.204E-03    0.39       4.6  T
   7   -238.3263956 -0.504672E-06  0.625E-04    0.39      14.9  T
   8   -238.3263956 -0.292158E-07  0.318E-04    0.39      29.3  T
     SCC iter.                  ...        0 min,  0.115 sec
     gradient                   ...        0 min,  0.025 sec
 * total energy  :  -234.7645274 Eh     change       -0.3301485E-03 Eh
[...]
    59   6 C      1.958     0.113    28.287     8.589
    60   7 N      0.911    -0.195    25.242     7.266
    61  16 S      2.333     0.059   138.653    19.818
    62   6 C      2.980     0.035    27.216     8.557
    63   6 C      3.153     0.008    27.540     8.582
    64   6 C      1.903     0.118    28.196     8.576
    65   7 N      0.911    -0.204    25.431     7.293
    66   6 C      2.926    -0.012    28.316     8.727
    67   6 C      3.006    -0.018    28.442     8.748
    68   6 C      2.863     0.231    23.168     7.890
    69   8 O      0.856    -0.334    20.410     6.057
    70   6 C      3.031    -0.016    28.373     8.737
    71   6 C      2.913    -0.013    28.334     8.729
    72   6 C      2.989     0.018    27.590     8.616
    73   6 C      2.988     0.020    27.549     8.610
    74   6 C      2.919    -0.053    29.321     8.880
    75   6 C      2.775     0.166    24.416     8.093
    76   6 C      2.775     0.165    24.430     8.095
    77   6 C      2.918    -0.053    29.311     8.878
    78   9 F      0.787    -0.184    11.068     3.930
    79   9 F      0.787    -0.183    11.060     3.928
    80   6 C      2.915    -0.026    28.659     8.778
    81   6 C      3.027     0.009    27.794     8.648
    82   6 C      3.011     0.034    27.214     8.557
    83   6 C      2.947     0.014    27.707     8.633
    84   6 C      1.931     0.125    28.031     8.550
    85   7 N      0.911    -0.233    26.113     7.391
    86   6 C      1.930     0.123    28.074     8.557
    87   7 N      0.911    -0.210    25.583     7.315
    88   1 H      0.926     0.084     1.938     2.177
    89   1 H      0.926     0.083     1.947     2.182
    90   1 H      0.926     0.067     2.118     2.276
    91   1 H      0.926     0.075     2.032     2.229
    92   1 H      0.925     0.079     1.990     2.206
    93   1 H      0.926     0.079     1.993     2.207
    94   1 H      0.926     0.052     2.299     2.371
    95   1 H      0.926     0.059     2.216     2.328
    96   1 H      0.926     0.085     1.925     2.170
    97   1 H      0.926     0.110     1.700     2.039
    98   1 H      0.925     0.086     1.920     2.167
    99   1 H      0.924     0.063     2.161     2.299
   100   1 H      0.924     0.084     1.941     2.179
   101   1 H      0.925     0.044     2.403     2.424
   102   1 H      0.925     0.061     2.187     2.312
   103   1 H      0.925     0.055     2.254     2.348
   104   1 H      0.924     0.084     1.940     2.178
   105   1 H      0.924     0.057     2.229     2.335
   106   1 H      0.925     0.060     2.200     2.320
   107   1 H      0.925     0.061     2.185     2.312
   108   1 H      0.925     0.045     2.384     2.415
   109   1 H      0.925     0.085     1.924     2.169
   110   1 H      0.926     0.077     2.010     2.217
   111   1 H      0.925     0.095     1.831     2.116
   112   1 H      0.926     0.076     2.018     2.221
   113   1 H      0.926     0.087     1.906     2.159
   114   1 H      0.926     0.085     1.923     2.169
   115   1 H      0.926     0.068     2.103     2.268

 Mol. C6AA /au·bohr⁶  :     231584.142034
 Mol. C8AA /au·bohr⁸  :    6003873.284408
 Mol. α(0) /au        :        758.114726


Wiberg/Mayer (AO) data.
largest (>0.10) Wiberg bond orders for each atom
          total WBO             WBO to atom ...
     1  C   3.975        C    2 1.498    C    8 1.282    H   88 0.961    C    6 0.106
     2  C   3.888        C    1 1.498    C    4 1.240    F    3 0.986
     3  F   1.124        C    2 0.986
     4  C   3.884        C    6 1.496    C    2 1.240    F    5 0.986
     5  F   1.123        C    4 0.986
     6  C   3.978        C    4 1.496    C    7 1.286    H   89 0.961    C    1 0.106
     7  C   3.967        C    6 1.286    C   12 1.275    C    8 1.237
     8  C   3.984        C    9 1.283    C    1 1.282    C    7 1.237
     9  C   3.972        C   10 1.492    C    8 1.283    H   90 0.958
    10  C   3.981        C    9 1.492    C   11 1.200    C   16 1.091
    11  C   3.976        C   12 1.519    C   10 1.200    C   13 1.020
    12  C   3.982        C   11 1.519    C    7 1.275    H   91 0.962
    13  C   3.925        O   14 1.797    C   11 1.020    C   15 0.983
    14  O   2.062        C   13 1.797
    15  C   3.968        C   22 1.648    C   16 1.110    C   13 0.983
    16  C   3.977        C   17 1.506    C   15 1.110    C   10 1.091
    17  C   3.936        C   16 1.506    C   18 1.094    C   20 1.093
    18  C   3.947        N   19 2.770    C   17 1.094
    19  N   2.978        C   18 2.770
    20  C   3.948        N   21 2.775    C   17 1.093
    21  N   2.979        C   20 2.775
    22  C   3.962        C   15 1.648    C   23 1.148    H   92 0.935
    23  C   3.964        C   24 1.464    C   22 1.148    C   30 1.081
    24  C   3.906        C   23 1.464    C   28 1.126    N   25 1.028
    25  N   3.911        O   27 1.435    O   26 1.400    C   24 1.028
    26  O   1.897        N   25 1.400    O   27 0.333
    27  O   1.908        N   25 1.435    O   26 0.333
    28  C   3.942        C   29 1.684    C   24 1.126    H   93 0.966
    29  C   3.968        C   28 1.684    C   30 1.136    H   94 0.966
    30  C   3.940        C   31 1.457    C   29 1.136    C   23 1.081
    31  C   3.954        C   30 1.457    C   32 1.212    C   38 1.044
    32  C   3.939        C   33 1.589    C   31 1.212    H   95 0.964
    33  C   3.911        C   32 1.589    C   34 1.183    H   96 0.965
    34  C   3.871        C   38 1.385    C   33 1.183    N   35 1.037
    35  N   3.906        O   37 1.427    O   36 1.395    C   34 1.037
    36  O   1.872        N   35 1.395    O   37 0.335
    37  O   1.885        N   35 1.427    O   36 0.335
    38  C   3.956        C   34 1.385    C   39 1.287    C   31 1.044
    39  C   3.943        C   40 1.511    C   38 1.287    H   97 0.932
    40  C   3.966        C   39 1.511    C   41 1.257    H   98 0.945
    41  C   3.934        C   48 1.271    C   40 1.257    N   42 1.202
    42  N   3.571        C   41 1.202    C   45 1.061    C   43 0.979    O   46 0.121
    43  C   3.955        C   44 1.005    N   42 0.979    H  100 0.963    H   99 0.963
    44  C   3.987        C   43 1.005    H  103 0.986    H  101 0.984    H  102 0.982
    45  C   3.941        O   46 1.706    C   47 1.063    N   42 1.061
    46  O   2.028        C   45 1.706    N   42 0.121
    47  C   3.923        C   54 1.295    C   48 1.287    C   45 1.063
    48  C   3.924        C   47 1.287    C   41 1.271    C   49 1.074
    49  C   3.935        O   50 1.690    C   48 1.074    N   51 1.055
    50  O   2.012        C   49 1.690    N   51 0.110
    51  N   3.567        C   54 1.216    C   49 1.055    C   52 0.981    O   50 0.110
    52  C   3.955        C   53 1.003    N   51 0.981    H  105 0.964    H  104 0.962
    53  C   3.985        C   52 1.003    H  106 0.985    H  107 0.982    H  108 0.982
    54  C   3.896        C   47 1.295    N   51 1.216    C   55 1.192
    55  C   3.983        C   56 1.656    C   54 1.192    H  109 0.945
    56  C   3.917        C   55 1.656    C   57 1.156    H  110 0.946
    57  C   3.979        C   58 1.387    C   63 1.193    C   56 1.156
    58  C   3.900        C   57 1.387    C   59 1.146    S   61 1.143
    59  C   3.954        N   60 2.761    C   58 1.146
    60  N   2.991        C   59 2.761
    61  S   2.666        C   62 1.154    C   58 1.143
    62  C   3.956        C   63 1.418    C   66 1.154    S   61 1.154
    63  C   3.959        C   62 1.418    C   57 1.193    C   64 1.105
    64  C   3.951        N   65 2.795    C   63 1.105
    65  N   3.005        C   64 2.795
    66  C   3.958        C   67 1.653    C   62 1.154    H  111 0.937
    67  C   3.974        C   66 1.653    C   82 1.106    C   68 0.982
    68  C   3.928        O   69 1.810    C   70 1.025    C   67 0.982
    69  O   2.075        C   68 1.810
    70  C   3.975        C   71 1.514    C   81 1.198    C   68 1.025
    71  C   3.981        C   70 1.514    C   72 1.277    H  112 0.961
    72  C   3.980        C   77 1.286    C   71 1.277    C   73 1.236
    73  C   3.984        C   74 1.283    C   80 1.282    C   72 1.236
    74  C   3.975        C   75 1.496    C   73 1.283    H  113 0.960    C   77 0.105
    75  C   3.890        C   74 1.496    C   76 1.238    F   79 0.992
    76  C   3.886        C   77 1.495    C   75 1.238    F   78 0.991
    77  C   3.977        C   76 1.495    C   72 1.286    H  114 0.961    C   74 0.105
    78  F   1.131        C   76 0.991
    79  F   1.133        C   75 0.992
    80  C   3.973        C   81 1.495    C   73 1.282    H  115 0.958
    81  C   3.981        C   80 1.495    C   70 1.198    C   82 1.089
    82  C   3.979        C   83 1.510    C   67 1.106    C   81 1.089
    83  C   3.968        C   82 1.510    C   84 1.095    C   86 1.090
    84  C   3.947        N   85 2.771    C   83 1.095
    85  N   2.982        C   84 2.771
    86  C   3.949        N   87 2.782    C   83 1.090
    87  N   2.987        C   86 2.782
    88  H   0.992        C    1 0.961
    89  H   0.993        C    6 0.961
    90  H   0.994        C    9 0.958
    91  H   0.993        C   12 0.962
    92  H   0.992        C   22 0.935
    93  H   0.992        C   28 0.966
    94  H   0.996        C   29 0.966
    95  H   0.996        C   32 0.964
    96  H   0.991        C   33 0.965
    97  H   0.985        C   39 0.932
    98  H   0.992        C   40 0.945
    99  H   0.994        C   43 0.963
   100  H   0.992        C   43 0.963
   101  H   0.998        C   44 0.984
   102  H   0.995        C   44 0.982
   103  H   0.997        C   44 0.986
   104  H   0.992        C   52 0.962
   105  H   0.995        C   52 0.964
   106  H   0.996        C   53 0.985
   107  H   0.995        C   53 0.982
   108  H   0.998        C   53 0.982
   109  H   0.991        C   55 0.945
   110  H   0.994        C   56 0.946
   111  H   0.989        C   66 0.937
   112  H   0.993        C   71 0.961
   113  H   0.992        C   74 0.960
   114  H   0.992        C   77 0.961
   115  H   0.994        C   80 0.958

molecular dipole:
                 x           y           z       tot (Debye)
 q only:       -0.034      -4.029      -0.108
   full:       -0.283      -4.671      -0.424      11.942
molecular quadrupole (traceless):
                xx          xy          yy          xz          yz          zz
 q only:     -107.690     104.657     185.904     -28.987      81.747     -78.214
  q+dip:     -118.734     123.276     219.206     -14.236     110.663    -100.472
   full:     -117.924     118.471     216.306     -13.734     115.760     -98.382

           -------------------------------------------------
          |                Geometry Summary                 |
           -------------------------------------------------

      molecular mass/u    :     1173.0410000
   center of mass at/Å    :      -11.6215817     -11.2411873      -4.8573946
  moments of inertia/u·Å² :        0.1732583E+05   0.8449689E+05   0.9644017E+05
rotational constants/cm⁻¹ :        0.9729772E-03   0.1995059E-03   0.1747989E-03

 * 107 selected distances

     #   Z        #   Z                                     value/Å
     1   6 C      2   6 C                                 1.3663543
     2   6 C      3   9 F                                 1.3390914
     2   6 C      4   6 C                                 1.4100648
     4   6 C      5   9 F                                 1.3392531
     4   6 C      6   6 C                                 1.3665718
     6   6 C      7   6 C                                 1.4086854
     1   6 C      8   6 C                                 1.4100088
     7   6 C      8   6 C                                 1.4259785
     8   6 C      9   6 C                                 1.4126528
     9   6 C     10   6 C                                 1.3710670
    10   6 C     11   6 C                                 1.4246683
     7   6 C     12   6 C                                 1.4121658
    11   6 C     12   6 C                                 1.3647292
    13   6 C     14   8 O                                 1.2077409
    16   6 C     17   6 C                                 1.3674861
    18   6 C     19   7 N                                 1.1478042
    20   6 C     21   7 N                                 1.1472616
    15   6 C     22   6 C                                 1.3504059
    22   6 C     23   6 C                                 1.4339079
    23   6 C     24   6 C                                 1.3823498
    24   6 C     25   7 N                                 1.4089196
    25   7 N     26   8 O                                 1.2228780
    25   7 N     27   8 O                                 1.2157253
    24   6 C     28   6 C                                 1.4455797
    28   6 C     29   6 C                                 1.3499424
    30   6 C     31   6 C                                 1.3779352
    31   6 C     32   6 C                                 1.4285788
    32   6 C     33   6 C                                 1.3637707
    33   6 C     34   6 C                                 1.4322472
    34   6 C     35   7 N                                 1.4059724
    35   7 N     36   8 O                                 1.2229693
    35   7 N     37   8 O                                 1.2165790
    34   6 C     38   6 C                                 1.3941181
    38   6 C     39   6 C                                 1.4064777
    39   6 C     40   6 C                                 1.3696763
    40   6 C     41   6 C                                 1.4066530
    41   6 C     42   7 N                                 1.3699442
    42   7 N     43   6 C                                 1.4455430
    43   6 C     44   6 C                                 1.5263993
    42   7 N     45   6 C                                 1.4169562
    45   6 C     46   8 O                                 1.2074985
    41   6 C     48   6 C                                 1.4033727
    47   6 C     48   6 C                                 1.4016506
    48   6 C     49   6 C                                 1.4458726
    49   6 C     50   8 O                                 1.2108733
    49   6 C     51   7 N                                 1.4168946
    51   7 N     52   6 C                                 1.4448024
    52   6 C     53   6 C                                 1.5273370
    47   6 C     54   6 C                                 1.4006890
    51   7 N     54   6 C                                 1.3699280
    54   6 C     55   6 C                                 1.4222797
    55   6 C     56   6 C                                 1.3517456
    56   6 C     57   6 C                                 1.4334244
    57   6 C     58   6 C                                 1.3891253
    59   6 C     60   7 N                                 1.1479473
    58   6 C     61  16 S                                 1.7338361
    61  16 S     62   6 C                                 1.7366701 (max)
    57   6 C     63   6 C                                 1.4272180
    62   6 C     63   6 C                                 1.3814972
    64   6 C     65   7 N                                 1.1460357
    62   6 C     66   6 C                                 1.4313852
    66   6 C     67   6 C                                 1.3500068
    68   6 C     69   8 O                                 1.2047571
    70   6 C     71   6 C                                 1.3663079
    71   6 C     72   6 C                                 1.4122786
    72   6 C     73   6 C                                 1.4264761
    73   6 C     74   6 C                                 1.4095837
    74   6 C     75   6 C                                 1.3667351
    75   6 C     76   6 C                                 1.4109759
    72   6 C     77   6 C                                 1.4087516
    76   6 C     77   6 C                                 1.3669543
    76   6 C     78   9 F                                 1.3368043
    75   6 C     79   9 F                                 1.3364242
    73   6 C     80   6 C                                 1.4126939
    70   6 C     81   6 C                                 1.4256318
    80   6 C     81   6 C                                 1.3701142
    82   6 C     83   6 C                                 1.3675575
    84   6 C     85   7 N                                 1.1476245
    86   6 C     87   7 N                                 1.1465781
     1   6 C     88   1 H                                 1.0788363
     6   6 C     89   1 H                                 1.0787141
     9   6 C     90   1 H                                 1.0784159
    12   6 C     91   1 H                                 1.0791162
    22   6 C     92   1 H                                 1.0829314
    28   6 C     93   1 H                                 1.0727254
    29   6 C     94   1 H                                 1.0720061 (min)
    32   6 C     95   1 H                                 1.0722683
    33   6 C     96   1 H                                 1.0737791
    39   6 C     97   1 H                                 1.0803062
    40   6 C     98   1 H                                 1.0830923
    43   6 C     99   1 H                                 1.0918190
    43   6 C    100   1 H                                 1.0937801
    44   6 C    101   1 H                                 1.0875954
    44   6 C    102   1 H                                 1.0858959
    44   6 C    103   1 H                                 1.0872530
    52   6 C    104   1 H                                 1.0943158
    52   6 C    105   1 H                                 1.0917750
    53   6 C    106   1 H                                 1.0869960
    53   6 C    107   1 H                                 1.0860613
    53   6 C    108   1 H                                 1.0880774
    55   6 C    109   1 H                                 1.0829791
    56   6 C    110   1 H                                 1.0799465
    66   6 C    111   1 H                                 1.0868522
    71   6 C    112   1 H                                 1.0792995
    74   6 C    113   1 H                                 1.0788182
    77   6 C    114   1 H                                 1.0787236
    80   6 C    115   1 H                                 1.0784137

 * 7 distinct bonds (by element types)

   Z      Z             #   av. dist./Å        max./Å        min./Å
   1 H    6 C          28     1.0825283     1.0943158     1.0720061
   6 C    6 C          51     1.4023165     1.5273370     1.3499424
   6 C    7 N          14     1.2973008     1.4455430     1.1460357
   6 C    8 O           4     1.2077174     1.2108733     1.2047571
   7 N    8 O           4     1.2195379     1.2229693     1.2157253
   6 C    9 F           4     1.3378933     1.3392531     1.3364242
   6 C   16 S           2     1.7352531     1.7366701     1.7338361


optimized geometry written to: xtbopt.xyz


           -------------------------------------------------
          | TOTAL ENERGY             -234.767790429254 Eh   |
          | GRADIENT NORM               0.000339152162 Eh/α |
          | HOMO-LUMO GAP               0.386018347663 eV   |
           -------------------------------------------------

------------------------------------------------------------------------
 * finished run on 2021/09/15 at 21:17:00.689     
------------------------------------------------------------------------
 total:
 * wall-time:     0 d,  0 h,  0 min, 49.070 sec
 *  cpu-time:     0 d,  0 h,  8 min, 38.740 sec
 * ratio c/w:    10.571 speedup
 SCF:
 * wall-time:     0 d,  0 h,  0 min,  0.292 sec
 *  cpu-time:     0 d,  0 h,  0 min,  3.484 sec
 * ratio c/w:    11.945 speedup
 ANC optimizer:
 * wall-time:     0 d,  0 h,  0 min, 48.716 sec
 *  cpu-time:     0 d,  0 h,  8 min, 34.734 sec
 * ratio c/w:    10.566 speedup

