      -----------------------------------------------------------      
     |                   =====================                   |     
     |                           x T B                           |     
     |                   =====================                   |     
     |                         S. Grimme                         |     
     |          Mulliken Center for Theoretical Chemistry        |     
     |                    University of Bonn                     |     
     |                Version 6.2 RC2 (SAW190805)                |     
      -----------------------------------------------------------      

   This program is distributed in the hope that it will be useful,
   but WITHOUT ANY WARRANTY; without even the implied warranty of
   MERCHANTABILITY or FITNESS FOR A PARTICULAR PURPOSE.
   
   FOR NON-COMMERCIAL, ACADEMIA USE ONLY.
   
   Cite this work as:
   * S. Grimme, C. Bannwarth, P. Shushkov, J. Chem. Theory Comput., 2017,
     13, 1989-2009. DOI: 10.1021/acs.jctc.7b00118
   * C. Bannwarth, S. Ehlert and S. Grimme., J. Chem. Theory Comput., 2019,
     15, 1652-1671. DOI: 10.1021/acs.jctc.8b01176
   * P. Pracht, E. Caldeweyher, S. Ehlert, S. Grimme, ChemRxiv, 2019, preprint.
     DOI: 10.26434/chemrxiv.8326202.v1
   
   for DFT-D4:
   * E. Caldeweyher, C. Bannwarth and S. Grimme, J. Chem. Phys., 2017,
     147, 034112. DOI: 10.1063/1.4993215
   * E. Caldeweyher, S. Ehlert, A. Hansen, H. Neugebauer, S. Spicher,
     C. Bannwarth and S. Grimme, J. Chem. Phys., 2019, 150, 154122.
     DOI: 10.1063/1.5090222
   
   for sTDA-xTB:
   * S. Grimme and C. Bannwarth, J. Chem. Phys., 2016, 145, 054103.
     DOI: 10.1063/1.4959605
   
   in the mass-spec context:
   * V. Asgeirsson, C. Bauer and S. Grimme, Chem. Sci., 2017, 8, 4879.
     DOI: 10.1039/c7sc00601b
   
   for metadynamics refer to:
   * S. Grimme, J. Chem. Theory Comput., 2019, 155, 2847-2862
     DOI: 10.1021/acs.jctc.9b00143
   
   with help from (in alphabetical order)
   C. Bannwarth, F. Bohle, G. Brandenburg, E. Caldeweyher, M. Checinski,
   S. Dohm, S. Ehlert, S. Ehrlich, F. März, H. Neugebauer, J. Pisarek,
   P. Pracht, P. Shushkov, and S. Spicher.
   
 * started run on 2021/09/14 at 00:31:55.696     

           -------------------------------------------------
          |                Calculation Setup                |
           -------------------------------------------------

          program call               : /ihome/ghutchison/geoffh/xtb/xtb /ihome/ghutchison/blp62/GA/running_GA/v5/generations/13/580_777_664_86_516_02416.xyz -opt
          hostname                   : smp-n55
          coordinate file            : /ihome/ghutchison/blp62/GA/running_GA/v5/generations/13/580_777_664_86_516_02416.xyz
          omp threads                :                    12
          number of atoms            :                    92
          number of electrons        :                   288
          charge                     :                     0
          spin                       :                   0.0
          first test random number   :      0.96254373333241


########################################################################
# WARNING! Please study the warnings concerning your input carefully
#  - XTBPATH is not set, using XTBHOME instead
#  - the use of '-opt' is discouraged, please use '--opt' next time
########################################################################

           ------------------------------------------------- 
          |                 G F N 2 - x T B                 |
          | Geometry, Frequencies, Noncovalent interactions |
          |            JCTC 2019 parametrisation            |
           ------------------------------------------------- 
             KAB for C  - Si     :                1.0500
             KAB for H  - Pd     :                0.9500
             k(s)              :                1.8500
             k(p)              :                2.2300
             k(d)              :                2.2300
             k(f)              :                2.0000
             kEN (H0ij)        :               -2.0000
             D4 a1             :                0.5200
             D4 a2             :                5.0000
             D4 s6             :                1.0000
             D4 s8             :                2.7000
             D4 s9             :                5.0000
             alphaj            :                2.0000

  Z AO/shell   Hii/eV     exponent
  1     Wed Apr 25 08:07:45 CEST 2018   EN: 2.200 GM2: 0.406  GM3: 0.0800  RAES: 1.40
     1s    -10.707211    1.230000
  6     Wed Apr 25 08:07:45 CEST 2018   EN: 2.550 GM2: 0.538  GM3: 0.1500  RAES: 3.00
     2s    -13.970922    2.096432
     2p    -10.063292    1.800000
  7     Wed Apr 25 08:07:45 CEST 2018   EN: 3.040 GM2: 0.461  GM3:-0.0640  RAES: 1.90
     2s    -16.686243    2.339881
     2p    -12.523956    2.014332
  8     Wed Apr 25 08:07:45 CEST 2018   EN: 3.440 GM2: 0.452  GM3:-0.0517  RAES: 1.80
     2s    -20.229985    2.439742
     2p    -15.503117    2.137023
 16     Tue Apr 24 11:44:34 CEST 2018   EN: 2.580 GM2: 0.340  GM3:-0.0502  RAES: 3.10
     3s    -20.029654    1.981333
     3p    -11.377694    2.025643
     3d     -0.420282    1.702555

           ------------------------------------------------- 
          |        Self-Consistent Charge Iterations        |
           ------------------------------------------------- 

          ...................................................
          :                      SETUP                      :
          :.................................................:
          :  # basis functions                 293          :
          :  # atomic orbitals                 288          :
          :  # shells                          154          :
          :  # electrons                       288          :
          :  max. iterations                   250          :
          :  Hamiltonian                  GFN2-xTB          :
          :  restarted?                      false          :
          :  GBSA solvation                  false          :
          :  PC potential                    false          :
          :  electronic temp.          300.0000000     K    :
          :  accuracy                    1.0000000          :
          :  -> integral cutoff          0.2500000E+02      :
          :  -> integral neglect         0.1000000E-07      :
          :  -> SCF convergence          0.1000000E-05 Eh   :
          :  -> wf. convergence          0.1000000E-03 e    :
          :  Broyden damping             0.4000000          :
          ...................................................

 iter      E             dE          RMSdq      gap      omega  full diag
   1   -160.3526803 -0.160353E+03  0.417E+00    1.08       0.0  T
   2   -160.5402957 -0.187615E+00  0.243E+00    1.15       1.0  T
   3   -160.5268944  0.134013E-01  0.138E+00    1.25       1.0  T
   4   -160.5812565 -0.543621E-01  0.541E-01    1.21       1.0  T
   5   -160.5992044 -0.179479E-01  0.189E-01    1.20       1.0  T
   6   -160.6007480 -0.154355E-02  0.990E-02    1.22       1.0  T
   7   -160.6012001 -0.452094E-03  0.392E-02    1.23       1.0  T
   8   -160.6012829 -0.828423E-04  0.197E-02    1.22       1.0  T
   9   -160.6012990 -0.161289E-04  0.962E-03    1.22       1.1  T
  10   -160.6013022 -0.310892E-05  0.494E-03    1.22       2.1  T
  11   -160.6013031 -0.926977E-06  0.210E-03    1.22       5.0  T
  12   -160.6013033 -0.221042E-06  0.969E-04    1.22      10.8  T
  13   -160.6013033 -0.994396E-08  0.481E-04    1.22      21.7  T

   *** convergence criteria satisfied after 13 iterations ***

         #    Occupation            Energy/Eh            Energy/eV
      -------------------------------------------------------------
         1        2.0000           -0.7564155             -20.5831
       ...           ...                  ...                  ...
       138        2.0000           -0.3938790             -10.7180
       139        2.0000           -0.3933626             -10.7039
       140        2.0000           -0.3920356             -10.6678
       141        2.0000           -0.3730139             -10.1502
       142        2.0000           -0.3719518             -10.1213
       143        2.0000           -0.3676411             -10.0040
       144        2.0000           -0.3550504              -9.6614 (HOMO)
       145                         -0.3101671              -8.4401 (LUMO)
       146                         -0.3078984              -8.3783
       147                         -0.2886957              -7.8558
       148                         -0.2691871              -7.3250
       149                         -0.2666889              -7.2570
       ...                                ...                  ...
       288                          0.7809872              21.2517
      -------------------------------------------------------------
                  HL-Gap            0.0448832 Eh            1.2213 eV
             Fermi-level           -0.3326505 Eh           -9.0519 eV

 SCC (total)                   0 d,  0 h,  0 min,  0.444 sec
 SCC setup                      ...        0 min,  0.002 sec (  0.472%)
 Dispersion                     ...        0 min,  0.004 sec (  0.992%)
 integral evaluation            ...        0 min,  0.028 sec (  6.318%)
 zeroth order Hamiltonian       ...        0 min,  0.001 sec (  0.256%)
 iterations                     ...        0 min,  0.374 sec ( 84.211%)
 molecular gradient             ...        0 min,  0.033 sec (  7.418%)
 printout                       ...        0 min,  0.001 sec (  0.303%)

         :::::::::::::::::::::::::::::::::::::::::::::::::::::
         ::                     SUMMARY                     ::
         :::::::::::::::::::::::::::::::::::::::::::::::::::::
         :: total energy            -158.528044088539 Eh    ::
         :: gradient norm              0.168067817575 Eh/a0 ::
         :: HOMO-LUMO gap              1.221334897508 eV    ::
         ::.................................................::
         :: SCC energy              -160.601303313116 Eh    ::
         :: -> isotropic ES            0.146252665020 Eh    ::
         :: -> anisotropic ES          0.014027287114 Eh    ::
         :: -> anisotropic XC          0.070291618806 Eh    ::
         :: -> dispersion             -0.128886360750 Eh    ::
         :: repulsion energy           2.071483446373 Eh    ::
         :: add. restraining           0.000000000000 Eh    ::
         :::::::::::::::::::::::::::::::::::::::::::::::::::::

      ----------------------------------------------------------- 
     |                   =====================                   |
     |                        A N C O P T                        |
     |                   =====================                   |
     |               Approximate Normal Coordinate               |
     |                Rational Function Optimizer                |
      ----------------------------------------------------------- 

          ...................................................
          :                      SETUP                      :
          :.................................................:
          :   optimization level            normal          :
          :   max. optcycles                   276          :
          :   ANC micro-cycles                  20          :
          :   degrees of freedom               270          :
          :.................................................:
          :   RF solver                   davidson          :
          :   input Hessian                  false          :
          :   write xtbopt.log                true          :
          :   linear?                        false          :
          :   energy convergence         0.5000000E-05 Eh   :
          :   grad. convergence          0.1000000E-02 Eh/α :
          :   maximium RF displ.         2.0000000          :
          :   Hlow (freq-cutoff)         0.5000000E-02      :
          :   Hmax (freq-cutoff)         5.0000000          :
          :   S6 in model hess.         20.0000000          :
          ...................................................

generating ANC from model Hessian ...
Using Lindh-Hessian (1995)
 Shifting diagonal of input Hessian by   4.989342975236772E-003
 Lowest  eigenvalues of input Hessian
   -0.000000   -0.000000    0.000000    0.000000    0.000000    0.000000
    0.005000    0.005022    0.005046    0.005093    0.005167    0.005254
    0.005324    0.005421    0.005475    0.005633    0.005978    0.006127
 Highest eigenvalues
    2.082749    2.132713    2.160977    2.183838    2.352913    2.396319
 

........................................................................
.............................. CYCLE    1 ..............................
........................................................................
   1   -160.6013033 -0.160601E+03  0.223E-04    1.22       0.0  T
   2   -160.6013033 -0.271456E-09  0.175E-04    1.22      59.6  T
   3   -160.6013033 -0.213251E-08  0.957E-05    1.22     108.9  T
     SCC iter.                  ...        0 min,  0.078 sec
     gradient                   ...        0 min,  0.041 sec
 * total energy  :  -158.5280440 Eh     change        0.9602522E-07 Eh
   gradient norm :     0.1680685 Eh/α   predicted     0.0000000E+00 (-100.00%)
   displ. norm   :     0.4935079 α      lambda       -0.4313284E-01
   maximum displ.:     0.2554322 α      in ANC's #93, #26, #35, ...

........................................................................
.............................. CYCLE    2 ..............................
........................................................................
   1   -160.6672845 -0.160667E+03  0.277E-01    1.22       0.0  T
   2   -160.6677939 -0.509418E-03  0.160E-01    1.22       1.0  T
   3   -160.6676657  0.128186E-03  0.963E-02    1.22       1.0  T
   4   -160.6682303 -0.564630E-03  0.325E-02    1.22       1.0  T
   5   -160.6682698 -0.395162E-04  0.152E-02    1.22       1.0  T
   6   -160.6682754 -0.560904E-05  0.800E-03    1.22       1.3  T
   7   -160.6682797 -0.422825E-05  0.312E-03    1.22       3.3  T
   8   -160.6682805 -0.785351E-06  0.115E-03    1.22       9.1  T
     SCC iter.                  ...        0 min,  0.446 sec
     gradient                   ...        0 min,  0.040 sec
 * total energy  :  -158.5603813 Eh     change       -0.3233729E-01 Eh
   gradient norm :     0.0837287 Eh/α   predicted    -0.2681897E-01 ( -17.06%)
   displ. norm   :     0.5278148 α      lambda       -0.2167176E-01
   maximum displ.:     0.1857273 α      in ANC's #93, #26, #39, ...

........................................................................
.............................. CYCLE    3 ..............................
........................................................................
   1   -160.7170579 -0.160717E+03  0.269E-01    1.19       0.0  T
   2   -160.7175236 -0.465620E-03  0.159E-01    1.18       1.0  T
   3   -160.7174383  0.852215E-04  0.105E-01    1.18       1.0  T
   4   -160.7180436 -0.605314E-03  0.336E-02    1.18       1.0  T
   5   -160.7180768 -0.332003E-04  0.200E-02    1.18       1.0  T
   6   -160.7181039 -0.270197E-04  0.868E-03    1.18       1.2  T
   7   -160.7181078 -0.397607E-05  0.342E-03    1.17       3.0  T
   8   -160.7181087 -0.890382E-06  0.118E-03    1.17       8.8  T
     SCC iter.                  ...        0 min,  0.292 sec
     gradient                   ...        0 min,  0.039 sec
 * total energy  :  -158.5746159 Eh     change       -0.1423460E-01 Eh
   gradient norm :     0.0285879 Eh/α   predicted    -0.1385465E-01 (  -2.67%)
   displ. norm   :     0.5621751 α      lambda       -0.7300106E-02
   maximum displ.:     0.2354763 α      in ANC's #26, #39, #31, ...

........................................................................
.............................. CYCLE    4 ..............................
........................................................................
   1   -160.7341953 -0.160734E+03  0.199E-01    1.15       0.0  T
   2   -160.7343241 -0.128768E-03  0.115E-01    1.14       1.0  T
   3   -160.7340695  0.254563E-03  0.875E-02    1.14       1.0  T
   4   -160.7345602 -0.490623E-03  0.214E-02    1.13       1.0  T
   5   -160.7345765 -0.163789E-04  0.137E-02    1.13       1.0  T
   6   -160.7345913 -0.147616E-04  0.523E-03    1.13       2.0  T
   7   -160.7345925 -0.119214E-05  0.216E-03    1.13       4.8  T
   8   -160.7345928 -0.363897E-06  0.817E-04    1.13      12.8  T
     SCC iter.                  ...        0 min,  0.617 sec
     gradient                   ...        0 min,  0.042 sec
 * total energy  :  -158.5800712 Eh     change       -0.5455320E-02 Eh
   gradient norm :     0.0245192 Eh/α   predicted    -0.4803617E-02 ( -11.95%)
   displ. norm   :     0.6522106 α      lambda       -0.5851303E-02
   maximum displ.:     0.2547636 α      in ANC's #26, #10, #31, ...

........................................................................
.............................. CYCLE    5 ..............................
........................................................................
   1   -160.7447633 -0.160745E+03  0.224E-01    1.12       0.0  T
   2   -160.7448894 -0.126148E-03  0.132E-01    1.10       1.0  T
   3   -160.7444410  0.448445E-03  0.101E-01    1.10       1.0  T
   4   -160.7451486 -0.707579E-03  0.226E-02    1.09       1.0  T
   5   -160.7451682 -0.196367E-04  0.144E-02    1.09       1.0  T
   6   -160.7451841 -0.159360E-04  0.597E-03    1.09       1.7  T
   7   -160.7451857 -0.156301E-05  0.263E-03    1.09       4.0  T
   8   -160.7451862 -0.515325E-06  0.108E-03    1.09       9.6  T
     SCC iter.                  ...        0 min,  0.623 sec
     gradient                   ...        0 min,  0.038 sec
 * total energy  :  -158.5839593 Eh     change       -0.3888114E-02 Eh
   gradient norm :     0.0254882 Eh/α   predicted    -0.4170164E-02 (   7.25%)
   displ. norm   :     0.6057867 α      lambda       -0.4379083E-02
   maximum displ.:     0.2360687 α      in ANC's #10, #26, #22, ...

........................................................................
.............................. CYCLE    6 ..............................
........................................................................
   1   -160.7522760 -0.160752E+03  0.179E-01    1.09       0.0  T
   2   -160.7523285 -0.524521E-04  0.105E-01    1.07       1.0  T
   3   -160.7519537  0.374792E-03  0.768E-02    1.08       1.0  T
   4   -160.7524456 -0.491923E-03  0.144E-02    1.07       1.0  T
   5   -160.7524552 -0.954538E-05  0.866E-03    1.07       1.2  T
   6   -160.7524602 -0.503315E-05  0.419E-03    1.07       2.5  T
   7   -160.7524612 -0.985911E-06  0.169E-03    1.07       6.2  T
     SCC iter.                  ...        0 min,  0.585 sec
     gradient                   ...        0 min,  0.045 sec
 * total energy  :  -158.5871485 Eh     change       -0.3189196E-02 Eh
   gradient norm :     0.0202364 Eh/α   predicted    -0.2993058E-02 (  -6.15%)
   displ. norm   :     0.6040867 α      lambda       -0.3052464E-02
   maximum displ.:     0.2768742 α      in ANC's #10, #22, #14, ...

........................................................................
.............................. CYCLE    7 ..............................
........................................................................
   1   -160.7579916 -0.160758E+03  0.175E-01    1.08       0.0  T
   2   -160.7580229 -0.313208E-04  0.989E-02    1.06       1.0  T
   3   -160.7577518  0.271065E-03  0.575E-02    1.07       1.0  T
   4   -160.7580654 -0.313590E-03  0.121E-02    1.06       1.0  T
   5   -160.7580668 -0.139828E-05  0.814E-03    1.06       1.3  T
   6   -160.7580709 -0.412913E-05  0.387E-03    1.06       2.7  T
   7   -160.7580722 -0.123384E-05  0.134E-03    1.06       7.8  T
     SCC iter.                  ...        0 min,  0.526 sec
     gradient                   ...        0 min,  0.037 sec
 * total energy  :  -158.5897073 Eh     change       -0.2558804E-02 Eh
   gradient norm :     0.0169309 Eh/α   predicted    -0.2083190E-02 ( -18.59%)
   displ. norm   :     0.6952658 α      lambda       -0.2996325E-02
   maximum displ.:     0.3388684 α      in ANC's #10, #14, #22, ...

........................................................................
.............................. CYCLE    8 ..............................
........................................................................
   1   -160.7612436 -0.160761E+03  0.201E-01    1.06       0.0  T
   2   -160.7612755 -0.319628E-04  0.114E-01    1.05       1.0  T
   3   -160.7610819  0.193615E-03  0.490E-02    1.06       1.0  T
   4   -160.7613034 -0.221443E-03  0.123E-02    1.05       1.0  T
   5   -160.7613005  0.290793E-05  0.879E-03    1.05       1.2  T
   6   -160.7613071 -0.662354E-05  0.334E-03    1.05       3.1  T
   7   -160.7613079 -0.790943E-06  0.142E-03    1.05       7.3  T
   8   -160.7613079 -0.473461E-07  0.845E-04    1.05      12.3  T
     SCC iter.                  ...        0 min,  0.604 sec
     gradient                   ...        0 min,  0.037 sec
 * total energy  :  -158.5921607 Eh     change       -0.2453360E-02 Eh
   gradient norm :     0.0159379 Eh/α   predicted    -0.2222367E-02 (  -9.42%)
   displ. norm   :     0.7060996 α      lambda       -0.2513377E-02
   maximum displ.:     0.3722470 α      in ANC's #10, #14, #22, ...

........................................................................
.............................. CYCLE    9 ..............................
........................................................................
   1   -160.7663570 -0.160766E+03  0.198E-01    1.06       0.0  T
   2   -160.7663944 -0.374417E-04  0.110E-01    1.05       1.0  T
   3   -160.7662921  0.102315E-03  0.382E-02    1.05       1.0  T
   4   -160.7664105 -0.118386E-03  0.132E-02    1.05       1.0  T
   5   -160.7664098  0.716907E-06  0.915E-03    1.05       1.1  T
   6   -160.7664174 -0.761697E-05  0.288E-03    1.05       3.6  T
   7   -160.7664179 -0.542096E-06  0.127E-03    1.05       8.2  T
   8   -160.7664180 -0.363590E-07  0.741E-04    1.05      14.1  T
     SCC iter.                  ...        0 min,  0.654 sec
     gradient                   ...        0 min,  0.040 sec
 * total energy  :  -158.5940045 Eh     change       -0.1843843E-02 Eh
   gradient norm :     0.0169153 Eh/α   predicted    -0.1883248E-02 (   2.14%)
   displ. norm   :     0.6983525 α      lambda       -0.2154629E-02
   maximum displ.:     0.3914752 α      in ANC's #10, #26, #14, ...

........................................................................
.............................. CYCLE   10 ..............................
........................................................................
   1   -160.7649349 -0.160765E+03  0.202E-01    1.02       0.0  T
   2   -160.7649875 -0.526343E-04  0.115E-01    1.04       1.0  T
   3   -160.7647431  0.244404E-03  0.576E-02    1.03       1.0  T
   4   -160.7650295 -0.286380E-03  0.140E-02    1.04       1.0  T
   5   -160.7650250  0.443351E-05  0.115E-02    1.04       1.0  T
   6   -160.7650360 -0.109346E-04  0.371E-03    1.04       2.8  T
   7   -160.7650367 -0.694869E-06  0.175E-03    1.04       5.9  T
   8   -160.7650368 -0.105556E-06  0.892E-04    1.04      11.7  T
     SCC iter.                  ...        0 min,  0.619 sec
     gradient                   ...        0 min,  0.039 sec
 * total energy  :  -158.5952788 Eh     change       -0.1274320E-02 Eh
   gradient norm :     0.0221283 Eh/α   predicted    -0.1602721E-02 (  25.77%)
   displ. norm   :     0.5214298 α      lambda       -0.1583904E-02
   maximum displ.:     0.3111504 α      in ANC's #10, #26, #14, ...

........................................................................
.............................. CYCLE   11 ..............................
........................................................................
   1   -160.7711108 -0.160771E+03  0.138E-01    1.03       0.0  T
   2   -160.7711381 -0.273226E-04  0.762E-02    1.02       1.0  T
   3   -160.7710605  0.775954E-04  0.333E-02    1.03       1.0  T
   4   -160.7711525 -0.919520E-04  0.893E-03    1.02       1.2  T
   5   -160.7711538 -0.128331E-05  0.503E-03    1.02       2.1  T
   6   -160.7711549 -0.113270E-05  0.251E-03    1.02       4.2  T
     SCC iter.                  ...        0 min,  0.456 sec
     gradient                   ...        0 min,  0.038 sec
 * total energy  :  -158.5963380 Eh     change       -0.1059189E-02 Eh
   gradient norm :     0.0127152 Eh/α   predicted    -0.1007275E-02 (  -4.90%)
   displ. norm   :     0.5552223 α      lambda       -0.1386133E-02
   maximum displ.:     0.3551396 α      in ANC's #10, #4, #5, ...

........................................................................
.............................. CYCLE   12 ..............................
........................................................................
   1   -160.7790819 -0.160779E+03  0.146E-01    1.01       0.0  T
   2   -160.7791199 -0.380361E-04  0.789E-02    1.01       1.0  T
   3   -160.7790035  0.116431E-03  0.409E-02    1.01       1.0  T
   4   -160.7791467 -0.143224E-03  0.989E-03    1.01       1.1  T
   5   -160.7791482 -0.152951E-05  0.560E-03    1.01       1.9  T
   6   -160.7791496 -0.134739E-05  0.238E-03    1.01       4.4  T
   7   -160.7791499 -0.311821E-06  0.107E-03    1.01       9.7  T
     SCC iter.                  ...        0 min,  0.545 sec
     gradient                   ...        0 min,  0.039 sec
 * total energy  :  -158.5970979 Eh     change       -0.7598566E-03 Eh
   gradient norm :     0.0188112 Eh/α   predicted    -0.9067226E-03 (  19.33%)
   displ. norm   :     0.5344200 α      lambda       -0.1391215E-02
   maximum displ.:     0.3296863 α      in ANC's #10, #26, #4, ...

........................................................................
.............................. CYCLE   13 ..............................
........................................................................
   1   -160.7787022 -0.160779E+03  0.151E-01    1.00       0.0  T
   2   -160.7787271 -0.248701E-04  0.824E-02    1.00       1.0  T
   3   -160.7786499  0.771999E-04  0.328E-02    1.00       1.0  T
   4   -160.7787426 -0.926501E-04  0.984E-03    1.00       1.1  T
   5   -160.7787432 -0.639447E-06  0.483E-03    1.00       2.2  T
   6   -160.7787446 -0.141808E-05  0.161E-03    1.00       6.5  T
   7   -160.7787447 -0.870794E-07  0.847E-04    1.00      12.3  T
     SCC iter.                  ...        0 min,  0.535 sec
     gradient                   ...        0 min,  0.039 sec
 * total energy  :  -158.5978689 Eh     change       -0.7710351E-03 Eh
   gradient norm :     0.0168532 Eh/α   predicted    -0.8942770E-03 (  15.98%)
   displ. norm   :     0.4737567 α      lambda       -0.1172195E-02
   maximum displ.:     0.3076270 α      in ANC's #10, #5, #4, ...

........................................................................
.............................. CYCLE   14 ..............................
........................................................................
   1   -160.7825308 -0.160783E+03  0.137E-01    0.99       0.0  T
   2   -160.7825538 -0.230538E-04  0.723E-02    1.00       1.0  T
   3   -160.7824931  0.607628E-04  0.296E-02    1.00       1.0  T
   4   -160.7825676 -0.744977E-04  0.927E-03    1.00       1.1  T
   5   -160.7825680 -0.389730E-06  0.470E-03    1.00       2.2  T
   6   -160.7825692 -0.120164E-05  0.153E-03    1.00       6.8  T
   7   -160.7825693 -0.976478E-07  0.897E-04    1.00      11.6  T
     SCC iter.                  ...        0 min,  0.534 sec
     gradient                   ...        0 min,  0.037 sec
 * total energy  :  -158.5984433 Eh     change       -0.5743393E-03 Eh
   gradient norm :     0.0203653 Eh/α   predicted    -0.7176484E-03 (  24.95%)
   displ. norm   :     0.4995317 α      lambda       -0.1688479E-02
   maximum displ.:     0.2894565 α      in ANC's #10, #26, #6, ...

........................................................................
.............................. CYCLE   15 ..............................
........................................................................
   1   -160.7693313 -0.160769E+03  0.157E-01    0.99       0.0  T
   2   -160.7693725 -0.411035E-04  0.836E-02    1.00       1.0  T
   3   -160.7692424  0.130092E-03  0.428E-02    1.00       1.0  T
   4   -160.7693986 -0.156202E-03  0.115E-02    1.00       1.0  T
   5   -160.7693960  0.258160E-05  0.894E-03    1.00       1.2  T
   6   -160.7694022 -0.625346E-05  0.305E-03    1.00       3.4  T
   7   -160.7694029 -0.619876E-06  0.112E-03    1.00       9.3  T
   8   -160.7694029 -0.529078E-07  0.642E-04    1.00      16.3  T
     SCC iter.                  ...        0 min,  0.495 sec
     gradient                   ...        0 min,  0.043 sec
 * total energy  :  -158.5988697 Eh     change       -0.4264335E-03 Eh
   gradient norm :     0.0241761 Eh/α   predicted    -0.1054910E-02 ( 147.38%)
   displ. norm   :     0.3203909 α      lambda       -0.1408910E-02
   maximum displ.:     0.1772744 α      in ANC's #10, #5, #6, ...

........................................................................
.............................. CYCLE   16 ..............................
........................................................................
   1   -160.7780286 -0.160778E+03  0.104E-01    1.01       0.0  T
   2   -160.7780454 -0.168093E-04  0.549E-02    1.00       1.0  T
   3   -160.7780076  0.378130E-04  0.236E-02    1.00       1.0  T
   4   -160.7780525 -0.448978E-04  0.846E-03    1.00       1.2  T
   5   -160.7780530 -0.489732E-06  0.534E-03    1.00       2.0  T
   6   -160.7780550 -0.198000E-05  0.199E-03    1.00       5.2  T
     SCC iter.                  ...        0 min,  0.172 sec
     gradient                   ...        0 min,  0.033 sec
 * total energy  :  -158.5998396 Eh     change       -0.9699530E-03 Eh
   gradient norm :     0.0093871 Eh/α   predicted    -0.7767757E-03 ( -19.92%)
   displ. norm   :     0.6275260 α      lambda       -0.9305953E-03
   maximum displ.:     0.3852746 α      in ANC's #10, #5, #6, ...

........................................................................
.............................. CYCLE   17 ..............................
........................................................................
   1   -160.7755090 -0.160776E+03  0.176E-01    1.01       0.0  T
   2   -160.7755381 -0.291432E-04  0.918E-02    1.01       1.0  T
   3   -160.7755332  0.489871E-05  0.187E-02    1.01       1.0  T
   4   -160.7755400 -0.673202E-05  0.122E-02    1.01       1.0  T
   5   -160.7755467 -0.675879E-05  0.404E-03    1.01       2.6  T
   6   -160.7755481 -0.138878E-05  0.162E-03    1.01       6.4  T
   7   -160.7755483 -0.162035E-06  0.801E-04    1.01      13.0  T
     SCC iter.                  ...        0 min,  0.520 sec
     gradient                   ...        0 min,  0.037 sec
 * total energy  :  -158.6005306 Eh     change       -0.6909254E-03 Eh
   gradient norm :     0.0113143 Eh/α   predicted    -0.6485349E-03 (  -6.14%)
   displ. norm   :     0.6538521 α      lambda       -0.9504909E-03
   maximum displ.:     0.3752616 α      in ANC's #10, #6, #5, ...

........................................................................
.............................. CYCLE   18 ..............................
........................................................................
   1   -160.7810624 -0.160781E+03  0.192E-01    1.02       0.0  T
   2   -160.7810973 -0.349461E-04  0.989E-02    1.02       1.0  T
   3   -160.7810909  0.641299E-05  0.199E-02    1.03       1.0  T
   4   -160.7810993 -0.841041E-05  0.129E-02    1.03       1.0  T
   5   -160.7811078 -0.842996E-05  0.398E-03    1.03       2.6  T
   6   -160.7811089 -0.118771E-05  0.184E-03    1.03       5.7  T
   7   -160.7811092 -0.291222E-06  0.795E-04    1.03      13.1  T
     SCC iter.                  ...        0 min,  0.526 sec
     gradient                   ...        0 min,  0.037 sec
 * total energy  :  -158.6011311 Eh     change       -0.6005529E-03 Eh
   gradient norm :     0.0121330 Eh/α   predicted    -0.6784272E-03 (  12.97%)
   displ. norm   :     0.6231738 α      lambda       -0.7458232E-03
   maximum displ.:     0.3707862 α      in ANC's #10, #6, #5, ...

........................................................................
.............................. CYCLE   19 ..............................
........................................................................
   1   -160.7768048 -0.160777E+03  0.173E-01    1.03       0.0  T
   2   -160.7768331 -0.282995E-04  0.897E-02    1.03       1.0  T
   3   -160.7768257  0.734756E-05  0.189E-02    1.04       1.0  T
   4   -160.7768376 -0.118581E-04  0.109E-02    1.03       1.0  T
   5   -160.7768424 -0.482258E-05  0.288E-03    1.04       3.6  T
   6   -160.7768429 -0.477050E-06  0.136E-03    1.04       7.6  T
   7   -160.7768430 -0.116121E-06  0.715E-04    1.04      14.6  T
     SCC iter.                  ...        0 min,  0.468 sec
     gradient                   ...        0 min,  0.035 sec
 * total energy  :  -158.6016658 Eh     change       -0.5347152E-03 Eh
   gradient norm :     0.0091719 Eh/α   predicted    -0.5177312E-03 (  -3.18%)
   displ. norm   :     0.5263515 α      lambda       -0.5019648E-03
   maximum displ.:     0.2968080 α      in ANC's #10, #6, #5, ...

........................................................................
.............................. CYCLE   20 ..............................
........................................................................
   1   -160.7748470 -0.160775E+03  0.142E-01    1.04       0.0  T
   2   -160.7748648 -0.178025E-04  0.736E-02    1.04       1.0  T
   3   -160.7748394  0.254751E-04  0.207E-02    1.04       1.0  T
   4   -160.7748675 -0.281335E-04  0.104E-02    1.04       1.0  T
   5   -160.7748702 -0.266795E-05  0.587E-03    1.04       1.8  T
   6   -160.7748731 -0.290981E-05  0.115E-03    1.04       9.1  T
   7   -160.7748732 -0.770329E-07  0.580E-04    1.04      18.0  T
     SCC iter.                  ...        0 min,  0.196 sec
     gradient                   ...        0 min,  0.036 sec
 * total energy  :  -158.6020253 Eh     change       -0.3594794E-03 Eh
   gradient norm :     0.0086709 Eh/α   predicted    -0.3205168E-03 ( -10.84%)
   displ. norm   :     0.4670142 α      lambda       -0.4261373E-03
   maximum displ.:     0.2374188 α      in ANC's #10, #6, #5, ...
 * RMSD in coord.:     0.9529329 α      energy gain  -0.7398123E-01 Eh

generating ANC from model Hessian ...
Using Lindh-Hessian (1995)
 Shifting diagonal of input Hessian by   4.993778982877136E-003
 Lowest  eigenvalues of input Hessian
   -0.000000   -0.000000   -0.000000   -0.000000    0.000000    0.000000
    0.005000    0.005025    0.005056    0.005132    0.005250    0.005331
    0.005404    0.005602    0.005621    0.005881    0.005972    0.006221
 Highest eigenvalues
    2.135251    2.145639    2.171704    2.248038    2.396655    2.425690
 

........................................................................
.............................. CYCLE   21 ..............................
........................................................................
   1   -160.7812263 -0.160781E+03  0.126E-01    1.05       0.0  T
   2   -160.7812410 -0.146536E-04  0.643E-02    1.05       1.0  T
   3   -160.7812210  0.199778E-04  0.188E-02    1.05       1.0  T
   4   -160.7812438 -0.227387E-04  0.909E-03    1.05       1.1  T
   5   -160.7812456 -0.185141E-05  0.463E-03    1.05       2.3  T
   6   -160.7812474 -0.174213E-05  0.141E-03    1.05       7.4  T
   7   -160.7812475 -0.171114E-06  0.501E-04    1.05      20.8  T
   8   -160.7812475 -0.703091E-08  0.288E-04    1.05      36.2  T
     SCC iter.                  ...        0 min,  0.284 sec
     gradient                   ...        0 min,  0.036 sec
 * total energy  :  -158.6023214 Eh     change       -0.2960930E-03 Eh
   gradient norm :     0.0078936 Eh/α   predicted     0.0000000E+00 (-100.00%)
   displ. norm   :     0.1569749 α      lambda       -0.3638584E-03
   maximum displ.:     0.0592632 α      in ANC's #30, #6, #28, ...

........................................................................
.............................. CYCLE   22 ..............................
........................................................................
   1   -160.7817654 -0.160782E+03  0.576E-02    1.05       0.0  T
   2   -160.7817679 -0.248818E-05  0.315E-02    1.05       1.0  T
   3   -160.7817532  0.147613E-04  0.130E-02    1.05       1.0  T
   4   -160.7817692 -0.160002E-04  0.460E-03    1.05       2.3  T
   5   -160.7817695 -0.371014E-06  0.260E-03    1.05       4.0  T
   6   -160.7817701 -0.522000E-06  0.687E-04    1.05      15.2  T
     SCC iter.                  ...        0 min,  0.172 sec
     gradient                   ...        0 min,  0.034 sec
 * total energy  :  -158.6026046 Eh     change       -0.2832261E-03 Eh
   gradient norm :     0.0041284 Eh/α   predicted    -0.1864122E-03 ( -34.18%)
   displ. norm   :     0.2485582 α      lambda       -0.3921193E-03
   maximum displ.:     0.0948474 α      in ANC's #30, #28, #26, ...

........................................................................
.............................. CYCLE   23 ..............................
........................................................................
   1   -160.7817231 -0.160782E+03  0.983E-02    1.04       0.0  T
   2   -160.7817309 -0.787855E-05  0.543E-02    1.04       1.0  T
   3   -160.7817054  0.254915E-04  0.180E-02    1.04       1.0  T
   4   -160.7817335 -0.280913E-04  0.748E-03    1.04       1.4  T
   5   -160.7817346 -0.105130E-05  0.438E-03    1.04       2.4  T
   6   -160.7817362 -0.158112E-05  0.124E-03    1.04       8.4  T
   7   -160.7817363 -0.951114E-07  0.572E-04    1.04      18.2  T
     SCC iter.                  ...        0 min,  0.201 sec
     gradient                   ...        0 min,  0.036 sec
 * total energy  :  -158.6028598 Eh     change       -0.2552081E-03 Eh
   gradient norm :     0.0053694 Eh/α   predicted    -0.2081733E-03 ( -18.43%)
   displ. norm   :     0.2485604 α      lambda        0.5510808E-04
   maximum displ.:     0.0948474 α      in ANC's #30, #28, #26, ...

........................................................................
.............................. CYCLE   24 ..............................
........................................................................
   1   -160.7799590 -0.160780E+03  0.987E-02    1.03       0.0  T
   2   -160.7799671 -0.815443E-05  0.546E-02    1.03       1.0  T
   3   -160.7799400  0.271580E-04  0.185E-02    1.03       1.0  T
   4   -160.7799701 -0.301369E-04  0.747E-03    1.03       1.4  T
   5   -160.7799710 -0.880079E-06  0.446E-03    1.03       2.3  T
   6   -160.7799726 -0.163066E-05  0.131E-03    1.03       8.0  T
   7   -160.7799727 -0.106818E-06  0.591E-04    1.03      17.6  T
     SCC iter.                  ...        0 min,  0.201 sec
     gradient                   ...        0 min,  0.036 sec
 * total energy  :  -158.6028118 Eh     change        0.4799743E-04 Eh
   gradient norm :     0.0132615 Eh/α   predicted     0.2925639E-04 ( -39.05%)
   displ. norm   :     0.0784717 α      lambda       -0.3939332E-03
   maximum displ.:     0.0241247 α      in ANC's #58, #12, #6, ...

........................................................................
.............................. CYCLE   25 ..............................
........................................................................
   1   -160.7817594 -0.160782E+03  0.384E-02    1.03       0.0  T
   2   -160.7817611 -0.164706E-05  0.221E-02    1.03       1.0  T
   3   -160.7817531  0.798917E-05  0.101E-02    1.03       1.0  T
   4   -160.7817617 -0.861302E-05  0.358E-03    1.03       2.9  T
   5   -160.7817621 -0.387125E-06  0.216E-03    1.03       4.8  T
   6   -160.7817624 -0.295068E-06  0.738E-04    1.03      14.1  T
     SCC iter.                  ...        0 min,  0.392 sec
     gradient                   ...        0 min,  0.068 sec
 * total energy  :  -158.6030199 Eh     change       -0.2080895E-03 Eh
   gradient norm :     0.0068419 Eh/α   predicted    -0.1981817E-03 (  -4.76%)
   displ. norm   :     0.1087959 α      lambda       -0.2109327E-03
   maximum displ.:     0.0457273 α      in ANC's #12, #6, #4, ...

........................................................................
.............................. CYCLE   26 ..............................
........................................................................
   1   -160.7838683 -0.160784E+03  0.391E-02    1.03       0.0  T
   2   -160.7838702 -0.193416E-05  0.214E-02    1.03       1.0  T
   3   -160.7838628  0.741191E-05  0.976E-03    1.03       1.1  T
   4   -160.7838712 -0.834920E-05  0.339E-03    1.03       3.1  T
   5   -160.7838713 -0.171932E-06  0.229E-03    1.03       4.6  T
   6   -160.7838717 -0.388237E-06  0.615E-04    1.03      17.0  T
     SCC iter.                  ...        0 min,  0.199 sec
     gradient                   ...        0 min,  0.036 sec
 * total energy  :  -158.6031246 Eh     change       -0.1046533E-03 Eh
   gradient norm :     0.0033962 Eh/α   predicted    -0.1067150E-03 (   1.97%)
   displ. norm   :     0.1969421 α      lambda       -0.1454441E-03
   maximum displ.:     0.0815589 α      in ANC's #12, #6, #4, ...

........................................................................
.............................. CYCLE   27 ..............................
........................................................................
   1   -160.7841637 -0.160784E+03  0.562E-02    1.03       0.0  T
   2   -160.7841662 -0.249754E-05  0.307E-02    1.03       1.0  T
   3   -160.7841636  0.260095E-05  0.719E-03    1.03       1.4  T
   4   -160.7841669 -0.329018E-05  0.351E-03    1.03       3.0  T
   5   -160.7841673 -0.401744E-06  0.119E-03    1.03       8.7  T
   6   -160.7841674 -0.117651E-06  0.383E-04    1.03      27.2  T
   7   -160.7841674 -0.549110E-08  0.236E-04    1.03      44.1  T
     SCC iter.                  ...        0 min,  0.259 sec
     gradient                   ...        0 min,  0.035 sec
 * total energy  :  -158.6032398 Eh     change       -0.1152604E-03 Eh
   gradient norm :     0.0040742 Eh/α   predicted    -0.7554388E-04 ( -34.46%)
   displ. norm   :     0.3651751 α      lambda       -0.1927426E-03
   maximum displ.:     0.1508811 α      in ANC's #12, #4, #6, ...

........................................................................
.............................. CYCLE   28 ..............................
........................................................................
   1   -160.7828855 -0.160783E+03  0.103E-01    1.03       0.0  T
   2   -160.7828935 -0.796217E-05  0.556E-02    1.02       1.0  T
   3   -160.7828896  0.391215E-05  0.111E-02    1.03       1.0  T
   4   -160.7828938 -0.421092E-05  0.694E-03    1.02       1.5  T
   5   -160.7828965 -0.275865E-05  0.177E-03    1.02       5.9  T
   6   -160.7828968 -0.262716E-06  0.665E-04    1.02      15.7  T
     SCC iter.                  ...        0 min,  0.241 sec
     gradient                   ...        0 min,  0.035 sec
 * total energy  :  -158.6033836 Eh     change       -0.1437063E-03 Eh
   gradient norm :     0.0034973 Eh/α   predicted    -0.1092254E-03 ( -23.99%)
   displ. norm   :     0.3468339 α      lambda       -0.1533085E-03
   maximum displ.:     0.1490118 α      in ANC's #12, #4, #6, ...

........................................................................
.............................. CYCLE   29 ..............................
........................................................................
   1   -160.7828469 -0.160783E+03  0.946E-02    1.03       0.0  T
   2   -160.7828540 -0.708891E-05  0.491E-02    1.02       1.0  T
   3   -160.7828518  0.219310E-05  0.988E-03    1.02       1.1  T
   4   -160.7828542 -0.237833E-05  0.638E-03    1.02       1.6  T
   5   -160.7828560 -0.181033E-05  0.235E-03    1.02       4.4  T
   6   -160.7828566 -0.556693E-06  0.505E-04    1.02      20.6  T
   7   -160.7828566 -0.147129E-07  0.270E-04    1.02      38.6  T
     SCC iter.                  ...        0 min,  0.242 sec
     gradient                   ...        0 min,  0.055 sec
 * total energy  :  -158.6035094 Eh     change       -0.1258635E-03 Eh
   gradient norm :     0.0037927 Eh/α   predicted    -0.8588838E-04 ( -31.76%)
   displ. norm   :     0.4216256 α      lambda       -0.1918081E-03
   maximum displ.:     0.1796950 α      in ANC's #12, #4, #6, ...

........................................................................
.............................. CYCLE   30 ..............................
........................................................................
   1   -160.7832501 -0.160783E+03  0.118E-01    1.03       0.0  T
   2   -160.7832616 -0.115283E-04  0.600E-02    1.02       1.0  T
   3   -160.7832567  0.492076E-05  0.129E-02    1.03       1.0  T
   4   -160.7832612 -0.449160E-05  0.855E-03    1.02       1.2  T
   5   -160.7832643 -0.311055E-05  0.369E-03    1.02       2.8  T
   6   -160.7832657 -0.136181E-05  0.577E-04    1.02      18.1  T
   7   -160.7832657 -0.188209E-07  0.300E-04    1.02      34.7  T
   8   -160.7832657 -0.252822E-08  0.155E-04    1.02      67.3  T
     SCC iter.                  ...        0 min,  0.332 sec
     gradient                   ...        0 min,  0.124 sec
 * total energy  :  -158.6036695 Eh     change       -0.1601173E-03 Eh
   gradient norm :     0.0038175 Eh/α   predicted    -0.1129544E-03 ( -29.46%)
   displ. norm   :     0.5002392 α      lambda       -0.2129818E-03
   maximum displ.:     0.2221454 α      in ANC's #4, #12, #6, ...

........................................................................
.............................. CYCLE   31 ..............................
........................................................................
   1   -160.7833253 -0.160783E+03  0.143E-01    1.03       0.0  T
   2   -160.7833427 -0.174059E-04  0.724E-02    1.03       1.0  T
   3   -160.7833275  0.152039E-04  0.180E-02    1.03       1.0  T
   4   -160.7833432 -0.157112E-04  0.107E-02    1.03       1.0  T
   5   -160.7833473 -0.406297E-05  0.476E-03    1.03       2.2  T
   6   -160.7833494 -0.216793E-05  0.788E-04    1.03      13.2  T
   7   -160.7833495 -0.359688E-07  0.395E-04    1.03      26.4  T
   8   -160.7833495 -0.389929E-08  0.213E-04    1.03      49.0  T
     SCC iter.                  ...        0 min,  0.244 sec
     gradient                   ...        0 min,  0.044 sec
 * total energy  :  -158.6038427 Eh     change       -0.1731636E-03 Eh
   gradient norm :     0.0036802 Eh/α   predicted    -0.1331471E-03 ( -23.11%)
   displ. norm   :     0.4844880 α      lambda       -0.1844385E-03
   maximum displ.:     0.2258369 α      in ANC's #4, #1, #12, ...

........................................................................
.............................. CYCLE   32 ..............................
........................................................................
   1   -160.7835574 -0.160784E+03  0.139E-01    1.03       0.0  T
   2   -160.7835741 -0.166744E-04  0.707E-02    1.03       1.0  T
   3   -160.7835482  0.258886E-04  0.207E-02    1.03       1.0  T
   4   -160.7835769 -0.287354E-04  0.103E-02    1.03       1.0  T
   5   -160.7835793 -0.239522E-05  0.506E-03    1.03       2.1  T
   6   -160.7835817 -0.236659E-05  0.896E-04    1.03      11.6  T
   7   -160.7835817 -0.479062E-07  0.449E-04    1.03      23.2  T
   8   -160.7835817 -0.435125E-08  0.247E-04    1.03      42.1  T
     SCC iter.                  ...        0 min,  0.245 sec
     gradient                   ...        0 min,  0.036 sec
 * total energy  :  -158.6039910 Eh     change       -0.1482986E-03 Eh
   gradient norm :     0.0035422 Eh/α   predicted    -0.1138661E-03 ( -23.22%)
   displ. norm   :     0.4572598 α      lambda       -0.1540578E-03
   maximum displ.:     0.2214350 α      in ANC's #4, #1, #8, ...

........................................................................
.............................. CYCLE   33 ..............................
........................................................................
   1   -160.7831582 -0.160783E+03  0.129E-01    1.04       0.0  T
   2   -160.7831725 -0.143098E-04  0.660E-02    1.03       1.0  T
   3   -160.7831419  0.306486E-04  0.213E-02    1.03       1.0  T
   4   -160.7831762 -0.343353E-04  0.958E-03    1.03       1.1  T
   5   -160.7831777 -0.146545E-05  0.500E-03    1.03       2.1  T
   6   -160.7831800 -0.226835E-05  0.907E-04    1.03      11.5  T
   7   -160.7831800 -0.475754E-07  0.471E-04    1.03      22.1  T
   8   -160.7831800 -0.454949E-08  0.267E-04    1.03      39.0  T
     SCC iter.                  ...        0 min,  0.241 sec
     gradient                   ...        0 min,  0.038 sec
 * total energy  :  -158.6041168 Eh     change       -0.1257834E-03 Eh
   gradient norm :     0.0032585 Eh/α   predicted    -0.9313640E-04 ( -25.95%)
   displ. norm   :     0.4225129 α      lambda       -0.1495847E-03
   maximum displ.:     0.2126810 α      in ANC's #4, #1, #8, ...

........................................................................
.............................. CYCLE   34 ..............................
........................................................................
   1   -160.7842650 -0.160784E+03  0.120E-01    1.04       0.0  T
   2   -160.7842779 -0.128436E-04  0.620E-02    1.04       1.0  T
   3   -160.7842432  0.347057E-04  0.220E-02    1.04       1.0  T
   4   -160.7842825 -0.393583E-04  0.894E-03    1.03       1.2  T
   5   -160.7842829 -0.313879E-06  0.538E-03    1.03       1.9  T
   6   -160.7842855 -0.265135E-05  0.105E-03    1.03       9.9  T
   7   -160.7842856 -0.667249E-07  0.541E-04    1.03      19.3  T
   8   -160.7842856 -0.589483E-08  0.324E-04    1.03      32.2  T
     SCC iter.                  ...        0 min,  0.238 sec
     gradient                   ...        0 min,  0.036 sec
 * total energy  :  -158.6042315 Eh     change       -0.1146940E-03 Eh
   gradient norm :     0.0035864 Eh/α   predicted    -0.8814422E-04 ( -23.15%)
   displ. norm   :     0.4955638 α      lambda       -0.1505668E-03
   maximum displ.:     0.2505842 α      in ANC's #4, #1, #8, ...

........................................................................
.............................. CYCLE   35 ..............................
........................................................................
   1   -160.7816373 -0.160782E+03  0.134E-01    1.04       0.0  T
   2   -160.7816533 -0.159919E-04  0.693E-02    1.03       1.0  T
   3   -160.7816154  0.378961E-04  0.230E-02    1.03       1.0  T
   4   -160.7816584 -0.430562E-04  0.983E-03    1.03       1.1  T
   5   -160.7816590 -0.532002E-06  0.599E-03    1.03       1.7  T
   6   -160.7816623 -0.337450E-05  0.119E-03    1.03       8.8  T
   7   -160.7816624 -0.933364E-07  0.578E-04    1.03      18.0  T
   8   -160.7816624 -0.786710E-08  0.349E-04    1.03      29.9  T
     SCC iter.                  ...        0 min,  0.241 sec
     gradient                   ...        0 min,  0.036 sec
 * total energy  :  -158.6043303 Eh     change       -0.9884012E-04 Eh
   gradient norm :     0.0044007 Eh/α   predicted    -0.9377296E-04 (  -5.13%)
   displ. norm   :     0.3278626 α      lambda       -0.1227790E-03
   maximum displ.:     0.1723871 α      in ANC's #4, #1, #8, ...

........................................................................
.............................. CYCLE   36 ..............................
........................................................................
   1   -160.7832474 -0.160783E+03  0.881E-02    1.03       0.0  T
   2   -160.7832548 -0.742954E-05  0.462E-02    1.03       1.0  T
   3   -160.7832361  0.187578E-04  0.162E-02    1.03       1.0  T
   4   -160.7832582 -0.221025E-04  0.620E-03    1.03       1.7  T
   5   -160.7832578  0.314468E-06  0.408E-03    1.03       2.6  T
   6   -160.7832594 -0.157409E-05  0.102E-03    1.03      10.3  T
   7   -160.7832595 -0.709501E-07  0.483E-04    1.03      21.6  T
     SCC iter.                  ...        0 min,  0.208 sec
     gradient                   ...        0 min,  0.035 sec
 * total energy  :  -158.6044228 Eh     change       -0.9247894E-04 Eh
   gradient norm :     0.0035550 Eh/α   predicted    -0.6799353E-04 ( -26.48%)
   displ. norm   :     0.3681203 α      lambda       -0.1007493E-03
   maximum displ.:     0.2019052 α      in ANC's #4, #1, #8, ...

........................................................................
.............................. CYCLE   37 ..............................
........................................................................
   1   -160.7839758 -0.160784E+03  0.960E-02    1.03       0.0  T
   2   -160.7839845 -0.876094E-05  0.500E-02    1.03       1.0  T
   3   -160.7839686  0.159667E-04  0.157E-02    1.03       1.0  T
   4   -160.7839882 -0.196316E-04  0.635E-03    1.02       1.6  T
   5   -160.7839884 -0.178271E-06  0.317E-03    1.02       3.3  T
   6   -160.7839894 -0.964184E-06  0.965E-04    1.02      10.8  T
   7   -160.7839894 -0.639457E-07  0.484E-04    1.02      21.5  T
     SCC iter.                  ...        0 min,  0.279 sec
     gradient                   ...        0 min,  0.040 sec
 * total energy  :  -158.6045043 Eh     change       -0.8152868E-04 Eh
   gradient norm :     0.0028140 Eh/α   predicted    -0.5720151E-04 ( -29.84%)
   displ. norm   :     0.3321392 α      lambda       -0.9240244E-04
   maximum displ.:     0.1875554 α      in ANC's #4, #1, #8, ...

........................................................................
.............................. CYCLE   38 ..............................
........................................................................
   1   -160.7851768 -0.160785E+03  0.797E-02    1.03       0.0  T
   2   -160.7851826 -0.584139E-05  0.422E-02    1.02       1.0  T
   3   -160.7851740  0.864895E-05  0.120E-02    1.02       1.0  T
   4   -160.7851848 -0.107848E-04  0.512E-03    1.02       2.0  T
   5   -160.7851853 -0.522606E-06  0.189E-03    1.02       5.5  T
   6   -160.7851856 -0.318169E-06  0.606E-04    1.02      17.2  T
   7   -160.7851856 -0.143326E-07  0.368E-04    1.02      28.3  T
     SCC iter.                  ...        0 min,  0.217 sec
     gradient                   ...        0 min,  0.035 sec
 * total energy  :  -158.6045801 Eh     change       -0.7577617E-04 Eh
   gradient norm :     0.0026708 Eh/α   predicted    -0.5130128E-04 ( -32.30%)
   displ. norm   :     0.3428361 α      lambda       -0.8680196E-04
   maximum displ.:     0.1984257 α      in ANC's #4, #1, #8, ...

........................................................................
.............................. CYCLE   39 ..............................
........................................................................
   1   -160.7854617 -0.160785E+03  0.808E-02    1.02       0.0  T
   2   -160.7854678 -0.606357E-05  0.426E-02    1.02       1.0  T
   3   -160.7854621  0.566944E-05  0.108E-02    1.02       1.0  T
   4   -160.7854694 -0.733495E-05  0.522E-03    1.02       2.0  T
   5   -160.7854702 -0.767227E-06  0.159E-03    1.02       6.6  T
   6   -160.7854704 -0.203006E-06  0.595E-04    1.02      17.5  T
   7   -160.7854704 -0.176789E-07  0.331E-04    1.02      31.5  T
     SCC iter.                  ...        0 min,  0.266 sec
     gradient                   ...        0 min,  0.038 sec
 * total energy  :  -158.6046536 Eh     change       -0.7352635E-04 Eh
   gradient norm :     0.0028128 Eh/α   predicted    -0.4850608E-04 ( -34.03%)
   displ. norm   :     0.3183688 α      lambda       -0.8343265E-04
   maximum displ.:     0.1864547 α      in ANC's #4, #1, #2, ...

........................................................................
.............................. CYCLE   40 ..............................
........................................................................
   1   -160.7860827 -0.160786E+03  0.714E-02    1.02       0.0  T
   2   -160.7860871 -0.435567E-05  0.380E-02    1.02       1.0  T
   3   -160.7860851  0.196349E-05  0.832E-03    1.02       1.3  T
   4   -160.7860879 -0.271257E-05  0.467E-03    1.02       2.2  T
   5   -160.7860886 -0.733647E-06  0.149E-03    1.02       7.0  T
   6   -160.7860887 -0.165281E-06  0.664E-04    1.02      15.7  T
   7   -160.7860888 -0.240800E-07  0.370E-04    1.02      28.2  T
     SCC iter.                  ...        0 min,  0.219 sec
     gradient                   ...        0 min,  0.037 sec
 * total energy  :  -158.6047246 Eh     change       -0.7094645E-04 Eh
   gradient norm :     0.0029645 Eh/α   predicted    -0.4594495E-04 ( -35.24%)
   displ. norm   :     0.3466590 α      lambda       -0.9111915E-04
   maximum displ.:     0.2057600 α      in ANC's #4, #1, #2, ...

........................................................................
.............................. CYCLE   41 ..............................
........................................................................
   1   -160.7858737 -0.160786E+03  0.788E-02    1.02       0.0  T
   2   -160.7858790 -0.524886E-05  0.416E-02    1.02       1.0  T
   3   -160.7858779  0.109452E-05  0.837E-03    1.02       1.2  T
   4   -160.7858792 -0.137465E-05  0.529E-03    1.02       2.0  T
   5   -160.7858806 -0.137968E-05  0.147E-03    1.02       7.1  T
   6   -160.7858808 -0.154209E-06  0.654E-04    1.02      16.0  T
   7   -160.7858808 -0.159183E-07  0.398E-04    1.02      26.2  T
     SCC iter.                  ...        0 min,  0.230 sec
     gradient                   ...        0 min,  0.037 sec
 * total energy  :  -158.6048024 Eh     change       -0.7782502E-04 Eh
   gradient norm :     0.0029894 Eh/α   predicted    -0.5103824E-04 ( -34.42%)
   displ. norm   :     0.3666363 α      lambda       -0.9527882E-04
   maximum displ.:     0.2175960 α      in ANC's #4, #1, #2, ...

........................................................................
.............................. CYCLE   42 ..............................
........................................................................
   1   -160.7857116 -0.160786E+03  0.814E-02    1.02       0.0  T
   2   -160.7857169 -0.532742E-05  0.432E-02    1.02       1.0  T
   3   -160.7857166  0.373594E-06  0.838E-03    1.02       1.2  T
   4   -160.7857168 -0.258361E-06  0.568E-03    1.02       1.8  T
   5   -160.7857186 -0.175683E-05  0.139E-03    1.02       7.5  T
   6   -160.7857187 -0.135085E-06  0.684E-04    1.02      15.2  T
   7   -160.7857187 -0.160074E-07  0.440E-04    1.02      23.7  T
     SCC iter.                  ...        0 min,  0.216 sec
     gradient                   ...        0 min,  0.037 sec
 * total energy  :  -158.6048840 Eh     change       -0.8160306E-04 Eh
   gradient norm :     0.0029163 Eh/α   predicted    -0.5404863E-04 ( -33.77%)
   displ. norm   :     0.4042962 α      lambda       -0.1005086E-03
   maximum displ.:     0.2395504 α      in ANC's #4, #1, #2, ...
 * RMSD in coord.:     0.6655362 α      energy gain  -0.2858685E-02 Eh

generating ANC from model Hessian ...
Using Lindh-Hessian (1995)
 Shifting diagonal of input Hessian by   4.994389620762004E-003
 Lowest  eigenvalues of input Hessian
   -0.000000   -0.000000   -0.000000   -0.000000    0.000000    0.000000
    0.005000    0.005028    0.005057    0.005138    0.005256    0.005330
    0.005426    0.005583    0.005685    0.005847    0.006037    0.006201
 Highest eigenvalues
    2.132380    2.146910    2.185534    2.245618    2.394271    2.423748
 

........................................................................
.............................. CYCLE   43 ..............................
........................................................................
   1   -160.7854899 -0.160785E+03  0.895E-02    1.03       0.0  T
   2   -160.7854966 -0.665775E-05  0.474E-02    1.02       1.0  T
   3   -160.7854967 -0.188387E-06  0.878E-03    1.02       1.2  T
   4   -160.7854963  0.439144E-06  0.601E-03    1.02       1.7  T
   5   -160.7854986 -0.224495E-05  0.143E-03    1.02       7.3  T
   6   -160.7854987 -0.124461E-06  0.686E-04    1.02      15.2  T
   7   -160.7854987 -0.102738E-07  0.459E-04    1.02      22.7  T
     SCC iter.                  ...        0 min,  0.278 sec
     gradient                   ...        0 min,  0.043 sec
 * total energy  :  -158.6049702 Eh     change       -0.8623458E-04 Eh
   gradient norm :     0.0030674 Eh/α   predicted     0.0000000E+00 (-100.00%)
   displ. norm   :     0.0697714 α      lambda       -0.4334924E-04
   maximum displ.:     0.0344974 α      in ANC's #1, #6, #4, ...

........................................................................
.............................. CYCLE   44 ..............................
........................................................................
   1   -160.7856660 -0.160786E+03  0.164E-02    1.02       0.0  T
   2   -160.7856663 -0.296265E-06  0.915E-03    1.02       1.1  T
   3   -160.7856655  0.770468E-06  0.327E-03    1.02       3.2  T
   4   -160.7856664 -0.894544E-06  0.116E-03    1.02       9.0  T
   5   -160.7856664 -0.254680E-07  0.688E-04    1.02      15.1  T
   6   -160.7856664 -0.275988E-07  0.292E-04    1.02      35.7  T
     SCC iter.                  ...        0 min,  0.196 sec
     gradient                   ...        0 min,  0.038 sec
 * total energy  :  -158.6050084 Eh     change       -0.3816711E-04 Eh
   gradient norm :     0.0018671 Eh/α   predicted    -0.2178629E-04 ( -42.92%)
   displ. norm   :     0.1191831 α      lambda       -0.4119705E-04
   maximum displ.:     0.0524435 α      in ANC's #1, #6, #4, ...

........................................................................
.............................. CYCLE   45 ..............................
........................................................................
   1   -160.7857182 -0.160786E+03  0.323E-02    1.02       0.0  T
   2   -160.7857194 -0.119624E-05  0.184E-02    1.02       1.0  T
   3   -160.7857169  0.244678E-05  0.609E-03    1.02       1.7  T
   4   -160.7857199 -0.298147E-05  0.203E-03    1.02       5.1  T
   5   -160.7857200 -0.769186E-07  0.120E-03    1.02       8.7  T
   6   -160.7857201 -0.719157E-07  0.521E-04    1.02      20.0  T
   7   -160.7857201 -0.164249E-07  0.245E-04    1.02      42.5  T
     SCC iter.                  ...        0 min,  0.216 sec
     gradient                   ...        0 min,  0.035 sec
 * total energy  :  -158.6050537 Eh     change       -0.4527438E-04 Eh
   gradient norm :     0.0014300 Eh/α   predicted    -0.2079646E-04 ( -54.07%)
   displ. norm   :     0.1986066 α      lambda       -0.4552041E-04
   maximum displ.:     0.0929273 α      in ANC's #1, #6, #4, ...

........................................................................
.............................. CYCLE   46 ..............................
........................................................................
   1   -160.7855044 -0.160786E+03  0.493E-02    1.02       0.0  T
   2   -160.7855070 -0.254701E-05  0.277E-02    1.02       1.0  T
   3   -160.7855040  0.301386E-05  0.762E-03    1.02       1.4  T
   4   -160.7855080 -0.407791E-05  0.298E-03    1.02       3.5  T
   5   -160.7855082 -0.153508E-06  0.138E-03    1.02       7.5  T
   6   -160.7855083 -0.990497E-07  0.544E-04    1.02      19.2  T
   7   -160.7855083 -0.126601E-07  0.287E-04    1.02      36.4  T
     SCC iter.                  ...        0 min,  0.220 sec
     gradient                   ...        0 min,  0.037 sec
 * total energy  :  -158.6050950 Eh     change       -0.4135370E-04 Eh
   gradient norm :     0.0027448 Eh/α   predicted    -0.2316854E-04 ( -43.97%)
   displ. norm   :     0.1271991 α      lambda       -0.3792705E-04
   maximum displ.:     0.0626337 α      in ANC's #1, #6, #4, ...

........................................................................
.............................. CYCLE   47 ..............................
........................................................................
   1   -160.7856156 -0.160786E+03  0.309E-02    1.02       0.0  T
   2   -160.7856165 -0.851391E-06  0.169E-02    1.02       1.0  T
   3   -160.7856160  0.508270E-06  0.379E-03    1.02       2.7  T
   4   -160.7856167 -0.705387E-06  0.204E-03    1.02       5.1  T
   5   -160.7856168 -0.912120E-07  0.101E-03    1.02      10.3  T
   6   -160.7856169 -0.848784E-07  0.338E-04    1.02      30.8  T
   7   -160.7856169 -0.583074E-08  0.182E-04    1.02      57.3  T
     SCC iter.                  ...        0 min,  0.216 sec
     gradient                   ...        0 min,  0.036 sec
 * total energy  :  -158.6051262 Eh     change       -0.3112990E-04 Eh
   gradient norm :     0.0027757 Eh/α   predicted    -0.1927431E-04 ( -38.08%)
   displ. norm   :     0.2091355 α      lambda       -0.5803344E-04
   maximum displ.:     0.1050758 α      in ANC's #1, #6, #4, ...

........................................................................
.............................. CYCLE   48 ..............................
........................................................................
   1   -160.7858654 -0.160786E+03  0.476E-02    1.02       0.0  T
   2   -160.7858674 -0.205599E-05  0.257E-02    1.02       1.0  T
   3   -160.7858668  0.641040E-06  0.533E-03    1.02       2.0  T
   4   -160.7858678 -0.102783E-05  0.305E-03    1.02       3.4  T
   5   -160.7858682 -0.334858E-06  0.966E-04    1.02      10.8  T
   6   -160.7858682 -0.673735E-07  0.390E-04    1.02      26.7  T
     SCC iter.                  ...        0 min,  0.193 sec
     gradient                   ...        0 min,  0.038 sec
 * total energy  :  -158.6051749 Eh     change       -0.4871443E-04 Eh
   gradient norm :     0.0026516 Eh/α   predicted    -0.3029559E-04 ( -37.81%)
   displ. norm   :     0.3204419 α      lambda       -0.8222477E-04
   maximum displ.:     0.1634075 α      in ANC's #1, #6, #2, ...

........................................................................
.............................. CYCLE   49 ..............................
........................................................................
   1   -160.7858289 -0.160786E+03  0.718E-02    1.02       0.0  T
   2   -160.7858337 -0.480009E-05  0.384E-02    1.02       1.0  T
   3   -160.7858329  0.848665E-06  0.774E-03    1.02       1.3  T
   4   -160.7858345 -0.161552E-05  0.459E-03    1.02       2.3  T
   5   -160.7858353 -0.786882E-06  0.142E-03    1.02       7.3  T
   6   -160.7858354 -0.138014E-06  0.595E-04    1.02      17.5  T
   7   -160.7858355 -0.153493E-07  0.338E-04    1.02      30.8  T
     SCC iter.                  ...        0 min,  0.390 sec
     gradient                   ...        0 min,  0.053 sec
 * total energy  :  -158.6052425 Eh     change       -0.6764188E-04 Eh
   gradient norm :     0.0028750 Eh/α   predicted    -0.4533490E-04 ( -32.98%)
   displ. norm   :     0.4164250 α      lambda       -0.1006564E-03
   maximum displ.:     0.2149824 α      in ANC's #1, #6, #2, ...

........................................................................
.............................. CYCLE   50 ..............................
........................................................................
   1   -160.7853912 -0.160785E+03  0.907E-02    1.02       0.0  T
   2   -160.7853988 -0.756261E-05  0.484E-02    1.02       1.0  T
   3   -160.7853964  0.243155E-05  0.101E-02    1.02       1.0  T
   4   -160.7853990 -0.261589E-05  0.645E-03    1.02       1.6  T
   5   -160.7854007 -0.169299E-05  0.284E-03    1.02       3.7  T
   6   -160.7854014 -0.701314E-06  0.899E-04    1.02      11.6  T
   7   -160.7854014 -0.540490E-07  0.413E-04    1.02      25.2  T
     SCC iter.                  ...        0 min,  0.215 sec
     gradient                   ...        0 min,  0.036 sec
 * total energy  :  -158.6053171 Eh     change       -0.7463370E-04 Eh
   gradient norm :     0.0035104 Eh/α   predicted    -0.5908681E-04 ( -20.83%)
   displ. norm   :     0.4248366 α      lambda       -0.1022010E-03
   maximum displ.:     0.2230537 α      in ANC's #1, #6, #2, ...

........................................................................
.............................. CYCLE   51 ..............................
........................................................................
   1   -160.7849037 -0.160785E+03  0.892E-02    1.02       0.0  T
   2   -160.7849106 -0.691059E-05  0.478E-02    1.01       1.0  T
   3   -160.7849052  0.546505E-05  0.114E-02    1.02       1.0  T
   4   -160.7849104 -0.526695E-05  0.689E-03    1.01       1.5  T
   5   -160.7849127 -0.223308E-05  0.281E-03    1.01       3.7  T
   6   -160.7849133 -0.630980E-06  0.923E-04    1.02      11.3  T
   7   -160.7849134 -0.570919E-07  0.392E-04    1.02      26.6  T
     SCC iter.                  ...        0 min,  0.209 sec
     gradient                   ...        0 min,  0.035 sec
 * total energy  :  -158.6053938 Eh     change       -0.7660258E-04 Eh
   gradient norm :     0.0034445 Eh/α   predicted    -0.6032467E-04 ( -21.25%)
   displ. norm   :     0.3934779 α      lambda       -0.8571154E-04
   maximum displ.:     0.2115223 α      in ANC's #1, #6, #2, ...

........................................................................
.............................. CYCLE   52 ..............................
........................................................................
   1   -160.7850874 -0.160785E+03  0.803E-02    1.01       0.0  T
   2   -160.7850926 -0.513494E-05  0.433E-02    1.01       1.0  T
   3   -160.7850782  0.143950E-04  0.141E-02    1.01       1.0  T
   4   -160.7850937 -0.155443E-04  0.600E-03    1.01       1.7  T
   5   -160.7850949 -0.121581E-05  0.264E-03    1.01       4.0  T
   6   -160.7850955 -0.530945E-06  0.850E-04    1.01      12.3  T
   7   -160.7850955 -0.476107E-07  0.355E-04    1.01      29.4  T
     SCC iter.                  ...        0 min,  0.212 sec
     gradient                   ...        0 min,  0.037 sec
 * total energy  :  -158.6054644 Eh     change       -0.7069502E-04 Eh
   gradient norm :     0.0029296 Eh/α   predicted    -0.4949152E-04 ( -29.99%)
   displ. norm   :     0.4009878 α      lambda       -0.8708424E-04
   maximum displ.:     0.2209266 α      in ANC's #1, #6, #2, ...

........................................................................
.............................. CYCLE   53 ..............................
........................................................................
   1   -160.7857163 -0.160786E+03  0.801E-02    1.01       0.0  T
   2   -160.7857208 -0.447648E-05  0.436E-02    1.01       1.0  T
   3   -160.7856953  0.255004E-04  0.173E-02    1.01       1.0  T
   4   -160.7857232 -0.278931E-04  0.571E-03    1.01       1.8  T
   5   -160.7857238 -0.616142E-06  0.293E-03    1.01       3.6  T
   6   -160.7857245 -0.694052E-06  0.823E-04    1.01      12.7  T
   7   -160.7857245 -0.406068E-07  0.364E-04    1.01      28.6  T
     SCC iter.                  ...        0 min,  0.212 sec
     gradient                   ...        0 min,  0.027 sec
 * total energy  :  -158.6055342 Eh     change       -0.6978150E-04 Eh
   gradient norm :     0.0025818 Eh/α   predicted    -0.5054753E-04 ( -27.56%)
   displ. norm   :     0.3696162 α      lambda       -0.6872889E-04
   maximum displ.:     0.2080690 α      in ANC's #1, #6, #2, ...

........................................................................
.............................. CYCLE   54 ..............................
........................................................................
   1   -160.7859752 -0.160786E+03  0.729E-02    1.01       0.0  T
   2   -160.7859792 -0.392554E-05  0.399E-02    1.01       1.0  T
   3   -160.7859615  0.176323E-04  0.145E-02    1.01       1.0  T
   4   -160.7859808 -0.193094E-04  0.515E-03    1.01       2.0  T
   5   -160.7859815 -0.628424E-06  0.264E-03    1.01       4.0  T
   6   -160.7859820 -0.547258E-06  0.737E-04    1.01      14.1  T
   7   -160.7859820 -0.317089E-07  0.339E-04    1.01      30.8  T
     SCC iter.                  ...        0 min,  0.532 sec
     gradient                   ...        0 min,  0.036 sec
 * total energy  :  -158.6055903 Eh     change       -0.5602641E-04 Eh
   gradient norm :     0.0027381 Eh/α   predicted    -0.3906379E-04 ( -30.28%)
   displ. norm   :     0.3266102 α      lambda       -0.5941067E-04
   maximum displ.:     0.1873906 α      in ANC's #1, #2, #6, ...

........................................................................
.............................. CYCLE   55 ..............................
........................................................................
   1   -160.7862447 -0.160786E+03  0.649E-02    1.01       0.0  T
   2   -160.7862481 -0.331256E-05  0.354E-02    1.00       1.0  T
   3   -160.7862413  0.680351E-05  0.986E-03    1.00       1.1  T
   4   -160.7862485 -0.721829E-05  0.479E-03    1.00       2.2  T
   5   -160.7862494 -0.920634E-06  0.217E-03    1.00       4.8  T
   6   -160.7862498 -0.378716E-06  0.599E-04    1.00      17.4  T
   7   -160.7862498 -0.208447E-07  0.286E-04    1.00      36.5  T
     SCC iter.                  ...        0 min,  0.411 sec
     gradient                   ...        0 min,  0.037 sec
 * total energy  :  -158.6056416 Eh     change       -0.5134306E-04 Eh
   gradient norm :     0.0024741 Eh/α   predicted    -0.3287945E-04 ( -35.96%)
   displ. norm   :     0.3407835 α      lambda       -0.6819671E-04
   maximum displ.:     0.1978999 α      in ANC's #1, #2, #4, ...

........................................................................
.............................. CYCLE   56 ..............................
........................................................................
   1   -160.7865102 -0.160787E+03  0.695E-02    1.00       0.0  T
   2   -160.7865144 -0.418593E-05  0.377E-02    1.00       1.0  T
   3   -160.7865127  0.168030E-05  0.752E-03    1.00       1.4  T
   4   -160.7865146 -0.194156E-05  0.467E-03    1.00       2.2  T
   5   -160.7865156 -0.918294E-06  0.221E-03    1.00       4.7  T
   6   -160.7865160 -0.421419E-06  0.653E-04    1.00      16.0  T
   7   -160.7865160 -0.285320E-07  0.298E-04    1.00      35.0  T
     SCC iter.                  ...        0 min,  0.210 sec
     gradient                   ...        0 min,  0.037 sec
 * total energy  :  -158.6057006 Eh     change       -0.5899241E-04 Eh
   gradient norm :     0.0020502 Eh/α   predicted    -0.3806133E-04 ( -35.48%)
   displ. norm   :     0.4090757 α      lambda       -0.8059684E-04
   maximum displ.:     0.2385715 α      in ANC's #1, #2, #4, ...

........................................................................
.............................. CYCLE   57 ..............................
........................................................................
   1   -160.7863620 -0.160786E+03  0.842E-02    1.00       0.0  T
   2   -160.7863681 -0.608259E-05  0.457E-02    1.00       1.0  T
   3   -160.7863668  0.129010E-05  0.869E-03    1.00       1.2  T
   4   -160.7863691 -0.230687E-05  0.512E-03    1.00       2.0  T
   5   -160.7863702 -0.111090E-05  0.150E-03    1.00       6.9  T
   6   -160.7863704 -0.147598E-06  0.669E-04    1.00      15.6  T
   7   -160.7863704 -0.239146E-07  0.389E-04    1.00      26.8  T
     SCC iter.                  ...        0 min,  0.208 sec
     gradient                   ...        0 min,  0.035 sec
 * total energy  :  -158.6057707 Eh     change       -0.7009789E-04 Eh
   gradient norm :     0.0023635 Eh/α   predicted    -0.4704281E-04 ( -32.89%)
   displ. norm   :     0.4562334 α      lambda       -0.8675166E-04
   maximum displ.:     0.2667839 α      in ANC's #1, #2, #4, ...

........................................................................
.............................. CYCLE   58 ..............................
........................................................................
   1   -160.7860889 -0.160786E+03  0.948E-02    1.00       0.0  T
   2   -160.7860965 -0.762053E-05  0.514E-02    1.00       1.0  T
   3   -160.7860932  0.332062E-05  0.108E-02    1.00       1.0  T
   4   -160.7860976 -0.443370E-05  0.629E-03    1.00       1.7  T
   5   -160.7860990 -0.135174E-05  0.246E-03    1.00       4.2  T
   6   -160.7860995 -0.556554E-06  0.864E-04    1.00      12.1  T
   7   -160.7860996 -0.441849E-07  0.450E-04    1.00      23.2  T
     SCC iter.                  ...        0 min,  0.213 sec
     gradient                   ...        0 min,  0.037 sec
 * total energy  :  -158.6058470 Eh     change       -0.7628863E-04 Eh
   gradient norm :     0.0032321 Eh/α   predicted    -0.5240594E-04 ( -31.31%)
   displ. norm   :     0.4927219 α      lambda       -0.9601984E-04
   maximum displ.:     0.2885249 α      in ANC's #1, #2, #4, ...

........................................................................
.............................. CYCLE   59 ..............................
........................................................................
   1   -160.7858365 -0.160786E+03  0.101E-01    1.00       0.0  T
   2   -160.7858450 -0.854955E-05  0.552E-02    1.00       1.0  T
   3   -160.7858389  0.613181E-05  0.125E-02    1.00       1.0  T
   4   -160.7858466 -0.770433E-05  0.679E-03    1.00       1.5  T
   5   -160.7858479 -0.131404E-05  0.286E-03    1.00       3.6  T
   6   -160.7858487 -0.763624E-06  0.933E-04    1.00      11.2  T
   7   -160.7858487 -0.428032E-07  0.518E-04    1.00      20.1  T
     SCC iter.                  ...        0 min,  0.212 sec
     gradient                   ...        0 min,  0.038 sec
 * total energy  :  -158.6059332 Eh     change       -0.8626121E-04 Eh
   gradient norm :     0.0038237 Eh/α   predicted    -0.5966861E-04 ( -30.83%)
   displ. norm   :     0.5491722 α      lambda       -0.1176680E-03
   maximum displ.:     0.3212849 α      in ANC's #1, #2, #4, ...

........................................................................
.............................. CYCLE   60 ..............................
........................................................................
   1   -160.7857716 -0.160786E+03  0.114E-01    1.00       0.0  T
   2   -160.7857824 -0.108686E-04  0.619E-02    1.00       1.0  T
   3   -160.7857722  0.102041E-04  0.150E-02    1.00       1.0  T
   4   -160.7857849 -0.126647E-04  0.763E-03    1.00       1.4  T
   5   -160.7857863 -0.140341E-05  0.336E-03    1.00       3.1  T
   6   -160.7857873 -0.100087E-05  0.113E-03    1.00       9.2  T
   7   -160.7857874 -0.621748E-07  0.634E-04    1.00      16.5  T
   8   -160.7857874 -0.652446E-08  0.348E-04    1.00      29.9  T
     SCC iter.                  ...        0 min,  0.243 sec
     gradient                   ...        0 min,  0.039 sec
 * total energy  :  -158.6060393 Eh     change       -0.1060493E-03 Eh
   gradient norm :     0.0038541 Eh/α   predicted    -0.7657823E-04 ( -27.79%)
   displ. norm   :     0.6100700 α      lambda       -0.1454461E-03
   maximum displ.:     0.3555057 α      in ANC's #1, #2, #4, ...

........................................................................
.............................. CYCLE   61 ..............................
........................................................................
   1   -160.7858827 -0.160786E+03  0.128E-01    1.01       0.0  T
   2   -160.7858964 -0.136765E-04  0.694E-02    1.00       1.0  T
   3   -160.7858827  0.136895E-04  0.171E-02    1.00       1.0  T
   4   -160.7858997 -0.169716E-04  0.852E-03    1.00       1.2  T
   5   -160.7859014 -0.172138E-05  0.375E-03    1.00       2.8  T
[...]
     2   7 N      2.837    -0.051    22.217     7.001
     3   6 C      3.739     0.001    20.642     6.483
     4   6 C      3.752    -0.116    22.791     6.808
     5   6 C      2.850     0.264    22.557     7.784
     6   8 O      0.856    -0.421    22.101     6.303
     7   6 C      3.171    -0.079    29.568     8.883
     8   6 C      3.152    -0.074    29.528     8.888
     9   6 C      2.850     0.269    22.460     7.767
    10   8 O      0.857    -0.458    22.870     6.412
    11   7 N      2.830    -0.081    22.818     7.095
    12   6 C      3.740     0.006    20.562     6.470
    13   6 C      3.752    -0.105    22.573     6.775
    14   6 C      2.982     0.076    26.290     8.411
    15   6 C      2.895    -0.045    29.123     8.848
    16   6 C      2.967    -0.035    28.861     8.812
    17   6 C      2.980     0.012    27.731     8.638
    18  16 S      2.358    -0.026   142.122    20.065
    19   6 C      2.934    -0.030    28.761     8.795
    20   6 C      3.161    -0.003    27.769     8.614
    21   6 C      3.147    -0.023    28.296     8.702
    22   6 C      3.798     0.041    19.892     6.351
    23   6 C      3.808    -0.068    21.798     6.646
    24   6 C      3.806    -0.055    21.565     6.611
    25   6 C      3.809    -0.059    21.634     6.621
    26   7 N      2.691    -0.147    24.173     7.302
    27   6 C      2.840     0.026    27.418     8.581
    28   6 C      2.901    -0.078    29.948     8.973
    29   6 C      2.989     0.002    27.966     8.675
    30   6 C      3.007     0.004    27.925     8.668
    31   6 C      3.213     0.068    25.861     8.276
    32   7 N      1.940    -0.222    26.684     7.660
    33   6 C      2.975     0.085    26.092     8.379
    34  16 S      2.224    -0.061   143.602    20.169
    35   6 C      3.014    -0.018    28.438     8.748
    36   6 C      3.000     0.008    27.837     8.655
    37   6 C      3.228     0.057    25.949     8.273
    38   7 N      1.942    -0.220    26.619     7.650
    39   6 C      2.975     0.085    26.100     8.380
    40  16 S      2.487    -0.051   143.172    20.139
    41   6 C      2.988     0.032    27.270     8.566
    42  16 S      2.603     0.004   140.874    19.976
    43   6 C      2.988    -0.016    28.397     8.741
    44   6 C      2.813     0.203    23.682     7.973
    45   8 O      0.857    -0.382    21.331     6.192
    46   6 C      3.162     0.017    27.289     8.539
    47   6 C      3.101    -0.050    29.116     8.842
    48   6 C      2.979    -0.022    28.538     8.763
    49  16 S      2.334    -0.081   144.421    20.226
    50   6 C      3.024     0.113    25.491     8.282
    51   8 O      1.658    -0.410    21.050     6.194
    52   6 C      3.061     0.026    27.358     8.577
    53   7 N      2.754    -0.116    23.520     7.203
    54   7 N      2.700    -0.268    26.927     7.707
    55   6 C      2.980    -0.008    28.208     8.712
    56   6 C      2.924    -0.032    28.793     8.800
    57   6 C      2.841    -0.098    30.451     9.043
    58   1 H      0.926     0.091     1.868     2.137
    59   1 H      0.924     0.076     2.021     2.223
    60   1 H      0.924     0.052     2.292     2.368
    61   1 H      0.925     0.052     2.300     2.372
    62   1 H      0.925     0.053     2.284     2.363
    63   1 H      0.925     0.063     2.161     2.299
    64   1 H      0.924     0.081     1.973     2.197
    65   1 H      0.924     0.044     2.391     2.418
    66   1 H      0.925     0.045     2.378     2.412
    67   1 H      0.925     0.049     2.333     2.389
    68   1 H      0.925     0.041     2.436     2.441
    69   1 H      0.926     0.066     2.127     2.280
    70   1 H      0.926     0.062     2.178     2.308
    71   1 H      0.926     0.049     2.337     2.391
    72   1 H      0.924     0.061     2.186     2.312
    73   1 H      0.924     0.049     2.333     2.389
    74   1 H      0.924     0.052     2.296     2.369
    75   1 H      0.924     0.041     2.440     2.443
    76   1 H      0.924     0.037     2.488     2.467
    77   1 H      0.924     0.050     2.323     2.383
    78   1 H      0.924     0.042     2.421     2.433
    79   1 H      0.860     0.162     1.323     1.802
    80   1 H      0.926     0.081     1.966     2.192
    81   1 H      0.925     0.033     2.538     2.491
    82   1 H      0.926     0.059     2.214     2.327
    83   1 H      0.926     0.067     2.122     2.278
    84   1 H      0.922     0.016     2.796     2.615
    85   1 H      0.926     0.071     2.074     2.252
    86   1 H      0.804     0.336     0.623     1.240
    87   1 H      0.860     0.182     1.200     1.716
    88   1 H      0.860     0.150     1.401     1.854
    89   1 H      0.860     0.144     1.445     1.883
    90   1 H      0.925     0.032     2.553     2.499
    91   1 H      0.926     0.044     2.399     2.422
    92   1 H      0.926     0.033     2.540     2.492

 Mol. C6AA /au·bohr⁶  :     139215.073678
 Mol. C8AA /au·bohr⁸  :    3868193.862181
 Mol. α(0) /au        :        592.634609


Wiberg/Mayer (AO) data.
largest (>0.10) Wiberg bond orders for each atom
          total WBO             WBO to atom ...
     1  C   3.915        C    8 1.460    N    2 1.272    H   58 0.955
     2  N   3.600        C    1 1.272    C    5 1.047    C    3 0.982    O    6 0.107
     3  C   3.961        C    4 1.009    N    2 0.982    H   59 0.967    H   60 0.965
     4  C   3.987        C    3 1.009    H   62 0.983    H   63 0.983    H   61 0.982
     5  C   3.940        O    6 1.661    C    7 1.097    N    2 1.047
     6  O   1.992        C    5 1.661    N    2 0.107
     7  C   3.938        C   14 1.382    C    8 1.166    C    5 1.097
     8  C   3.966        C    1 1.460    C    7 1.166    C    9 1.102
     9  C   3.947        O   10 1.615    C    8 1.102    N   11 1.093
    10  O   1.987        C    9 1.615    N   11 0.122
    11  N   3.557        C   14 1.157    C    9 1.093    C   12 0.986    O   10 0.122
    12  C   3.963        C   13 1.007    N   11 0.986    H   64 0.961    H   65 0.960
    13  C   3.992        C   12 1.007    H   66 0.985    H   67 0.984    H   68 0.983
    14  C   3.964        C    7 1.382    C   15 1.187    N   11 1.157
    15  C   3.986        C   16 1.646    C   14 1.187    H   69 0.951
    16  C   3.960        C   15 1.646    C   17 1.183    H   70 0.948
    17  C   3.941        C   21 1.458    C   16 1.183    S   18 1.118
    18  S   2.607        C   19 1.205    C   17 1.118
    19  C   3.918        C   20 1.562    S   18 1.205    H   71 0.969
    20  C   3.981        C   19 1.562    C   21 1.260    C   25 1.010
    21  C   3.939        C   17 1.458    C   20 1.260    C   22 0.984
    22  C   3.970        C   23 0.987    C   21 0.984    N   26 0.969    H   72 0.950
    23  C   3.992        C   24 1.010    C   22 0.987    H   73 0.974    H   74 0.974
    24  C   3.997        C   23 1.010    C   25 1.003    H   76 0.976    H   75 0.976
    25  C   3.997        C   20 1.010    C   24 1.003    H   78 0.971    H   77 0.957
    26  N   3.387        C   27 1.245    C   22 0.969    H   79 0.939    C   28 0.101
    27  C   3.944        C   28 1.607    N   26 1.245    H   80 0.937
    28  C   3.955        C   27 1.607    C   29 1.180    H   81 0.959    N   26 0.101
    29  C   3.960        C   30 1.307    C   37 1.245    C   28 1.180
    30  C   3.943        C   29 1.307    C   31 1.288    S   34 1.110
    31  C   3.967        C   30 1.288    C   35 1.242    N   32 1.197
    32  N   3.144        C   33 1.691    C   31 1.197    S   34 0.177
    33  C   3.941        N   32 1.691    S   34 1.143    H   82 0.963
    34  S   2.586        C   33 1.143    C   30 1.110    N   32 0.177
    35  C   3.965        C   36 1.310    C   31 1.242    C   41 1.159
    36  C   3.946        C   35 1.310    C   37 1.285    S   40 1.127
    37  C   3.971        C   36 1.285    C   29 1.245    N   38 1.195
    38  N   3.144        C   39 1.695    C   37 1.195    S   40 0.165
    39  C   3.945        N   38 1.695    S   40 1.121    H   83 0.961
    40  S   2.638        C   36 1.127    C   39 1.121    N   38 0.165
    41  C   3.954        C   47 1.447    S   42 1.161    C   35 1.159
    42  S   2.653        C   41 1.161    C   43 1.111
    43  C   3.908        C   46 1.370    C   44 1.165    S   42 1.111
    44  C   3.931        O   45 1.766    C   43 1.165    H   84 0.927
    45  O   2.016        C   44 1.766
    46  C   3.983        C   43 1.370    C   47 1.328    C   48 1.074
    47  C   3.966        C   41 1.447    C   46 1.328    H   85 0.953
    48  C   3.939        C   50 1.490    S   49 1.106    C   46 1.074
    49  S   2.527        C   48 1.106    C   55 1.081
    50  C   3.939        C   48 1.490    C   52 1.166    O   51 1.078
    51  O   2.108        C   50 1.078    H   86 0.835
    52  C   3.969        C   55 1.435    C   50 1.166    N   53 1.139
    53  N   3.307        C   52 1.139    N   54 1.023    H   87 0.931
    54  N   3.001        N   53 1.023    H   89 0.958    H   88 0.956
    55  C   3.922        C   52 1.435    C   56 1.155    S   49 1.081
    56  C   3.991        C   57 1.840    C   55 1.155    H   90 0.952
    57  C   3.977        C   56 1.840    H   92 0.979    H   91 0.970
    58  H   0.991        C    1 0.955
    59  H   0.994        C    3 0.967
    60  H   0.994        C    3 0.965
    61  H   0.997        C    4 0.982
    62  H   0.996        C    4 0.983
    63  H   0.996        C    4 0.983
    64  H   0.993        C   12 0.961
    65  H   0.996        C   12 0.960
    66  H   0.998        C   13 0.985
    67  H   0.997        C   13 0.984
    68  H   0.998        C   13 0.983
    69  H   0.995        C   15 0.951
    70  H   0.996        C   16 0.948
    71  H   0.997        C   19 0.969
    72  H   0.996        C   22 0.950
    73  H   0.997        C   23 0.974
    74  H   0.996        C   23 0.974
    75  H   0.997        C   24 0.976
    76  H   0.999        C   24 0.976
    77  H   0.997        C   25 0.957
    78  H   0.998        C   25 0.971
    79  H   0.973        N   26 0.939
    80  H   0.993        C   27 0.937
    81  H   0.998        C   28 0.959
    82  H   0.996        C   33 0.963
    83  H   0.994        C   39 0.961
    84  H   0.999        C   44 0.927
    85  H   0.994        C   47 0.953
    86  H   0.887        O   51 0.835
    87  H   0.966        N   53 0.931
    88  H   0.977        N   54 0.956
    89  H   0.979        N   54 0.958
    90  H   0.999        C   56 0.952
    91  H   0.998        C   57 0.970
    92  H   0.998        C   57 0.979

molecular dipole:
                 x           y           z       tot (Debye)
 q only:        3.606       0.788       1.883
   full:        3.613       0.997       1.746      10.509
molecular quadrupole (traceless):
                xx          xy          yy          xz          yz          zz
 q only:      -97.283      41.990      61.910     -49.864      15.058      35.373
  q+dip:      -94.511      38.738      69.173     -41.336      10.240      25.338
   full:      -92.874      35.504      68.459     -44.256      13.087      24.415

           -------------------------------------------------
          |                Geometry Summary                 |
           -------------------------------------------------

      molecular mass/u    :      850.0720000
   center of mass at/Å    :       -7.9581040       5.1468730      -2.4308126
  moments of inertia/u·Å² :        0.7222392E+04   0.1884894E+05   0.2047713E+05
rotational constants/cm⁻¹ :        0.2334079E-02   0.8943546E-03   0.8232420E-03

 * 98 selected distances

     #   Z        #   Z                                     value/Å
     1   6 C      2   7 N                                 1.3541102
     2   7 N      3   6 C                                 1.4429701
     3   6 C      4   6 C                                 1.5244751
     2   7 N      5   6 C                                 1.4192079
     5   6 C      6   8 O                                 1.2153659
     5   6 C      7   6 C                                 1.4426509
     1   6 C      8   6 C                                 1.3706146
     7   6 C      8   6 C                                 1.4296593
     8   6 C      9   6 C                                 1.4355867
     9   6 C     10   8 O                                 1.2209181
     9   6 C     11   7 N                                 1.4062991
    11   7 N     12   6 C                                 1.4432647
    12   6 C     13   6 C                                 1.5248202
     7   6 C     14   6 C                                 1.3872249
    11   7 N     14   6 C                                 1.3869757
    14   6 C     15   6 C                                 1.4275146
    15   6 C     16   6 C                                 1.3525171
    16   6 C     17   6 C                                 1.4309849
    17   6 C     18  16 S                                 1.7527400
    18  16 S     19   6 C                                 1.7089909
    19   6 C     20   6 C                                 1.3626230
    17   6 C     21   6 C                                 1.3845061
    20   6 C     21   6 C                                 1.4194166
    22   6 C     23   6 C                                 1.5330895
    23   6 C     24   6 C                                 1.5238740
    20   6 C     25   6 C                                 1.4957408
    24   6 C     25   6 C                                 1.5254350
    22   6 C     26   7 N                                 1.4558725
    26   7 N     27   6 C                                 1.3494284
    27   6 C     28   6 C                                 1.3505030
    28   6 C     29   6 C                                 1.4291079
    29   6 C     30   6 C                                 1.3976957
    30   6 C     31   6 C                                 1.4127224
    31   6 C     32   7 N                                 1.3636553
    32   7 N     33   6 C                                 1.2740906
    30   6 C     34  16 S                                 1.7418554
    33   6 C     34  16 S                                 1.7419011
    31   6 C     35   6 C                                 1.4129636
    35   6 C     36   6 C                                 1.4006054
    29   6 C     37   6 C                                 1.4102007
    36   6 C     37   6 C                                 1.4133056
    37   6 C     38   7 N                                 1.3637741
    38   7 N     39   6 C                                 1.2720804
    36   6 C     40  16 S                                 1.7355505
    39   6 C     40  16 S                                 1.7472676
    35   6 C     41   6 C                                 1.4333718
    41   6 C     42  16 S                                 1.7334899
    42  16 S     43   6 C                                 1.7358048
    43   6 C     44   6 C                                 1.4298485
    44   6 C     45   8 O                                 1.2162767
    43   6 C     46   6 C                                 1.3919602
    41   6 C     47   6 C                                 1.3806537
    46   6 C     47   6 C                                 1.4003367
    48   6 C     49  16 S                                 1.7370636
    48   6 C     50   6 C                                 1.3671463
    50   6 C     51   8 O                                 1.3548266
    50   6 C     52   6 C                                 1.4324348
    52   6 C     53   7 N                                 1.3802749
    53   7 N     54   7 N                                 1.4055921
    49  16 S     55   6 C                                 1.7548879 (max)
    52   6 C     55   6 C                                 1.3797241
    55   6 C     56   6 C                                 1.4347561
    56   6 C     57   6 C                                 1.3320558
     1   6 C     58   1 H                                 1.0756799
     3   6 C     59   1 H                                 1.0937072
     3   6 C     60   1 H                                 1.0957127
     4   6 C     61   1 H                                 1.0869581
     4   6 C     62   1 H                                 1.0864481
     4   6 C     63   1 H                                 1.0872442
    12   6 C     64   1 H                                 1.0950802
    12   6 C     65   1 H                                 1.0935118
    13   6 C     66   1 H                                 1.0869464
    13   6 C     67   1 H                                 1.0869718
    13   6 C     68   1 H                                 1.0884013
    15   6 C     69   1 H                                 1.0805716
    16   6 C     70   1 H                                 1.0793255
    19   6 C     71   1 H                                 1.0720454
    22   6 C     72   1 H                                 1.0931570
    23   6 C     73   1 H                                 1.0914831
    23   6 C     74   1 H                                 1.0905400
    24   6 C     75   1 H                                 1.0905365
    24   6 C     76   1 H                                 1.0915119
    25   6 C     77   1 H                                 1.0946052
    25   6 C     78   1 H                                 1.0916210
    26   7 N     79   1 H                                 1.0115835
    27   6 C     80   1 H                                 1.0796378
    28   6 C     81   1 H                                 1.0819596
    33   6 C     82   1 H                                 1.0721557
    39   6 C     83   1 H                                 1.0718831
    44   6 C     84   1 H                                 1.1051763
    47   6 C     85   1 H                                 1.0743281
    51   8 O     86   1 H                                 0.9742035 (min)
    53   7 N     87   1 H                                 1.0149229
    54   7 N     88   1 H                                 1.0177627
    54   7 N     89   1 H                                 1.0202283
    56   6 C     90   1 H                                 1.0815959
    57   6 C     91   1 H                                 1.0764456
    57   6 C     92   1 H                                 1.0750249

 * 8 distinct bonds (by element types)

   Z      Z             #   av. dist./Å        max./Å        min./Å
   1 H    6 C          30     1.0856755     1.1051763     1.0718831
   6 C    6 C          35     1.4222893     1.5330895     1.3320558
   1 H    7 N           4     1.0161244     1.0202283     1.0115835
   6 C    7 N          13     1.3778465     1.4558725     1.2720804
   7 N    7 N           1     1.4055921     1.4055921     1.4055921
   1 H    8 O           1     0.9742035     0.9742035     0.9742035
   6 C    8 O           4     1.2518468     1.3548266     1.2153659
   6 C   16 S          10     1.7389552     1.7548879     1.7089909


optimized geometry written to: xtbopt.xyz


           -------------------------------------------------
          | TOTAL ENERGY             -158.630001588267 Eh   |
          | GRADIENT NORM               0.001634452890 Eh/α |
          | HOMO-LUMO GAP               0.569262956016 eV   |
           -------------------------------------------------

------------------------------------------------------------------------
 * finished run on 2021/09/14 at 00:33:37.000     
------------------------------------------------------------------------
 total:
 * wall-time:     0 d,  0 h,  1 min, 41.304 sec
 *  cpu-time:     0 d,  0 h, 15 min, 21.828 sec
 * ratio c/w:     9.100 speedup
 SCF:
 * wall-time:     0 d,  0 h,  0 min,  0.445 sec
 *  cpu-time:     0 d,  0 h,  0 min,  3.096 sec
 * ratio c/w:     6.963 speedup
 ANC optimizer:
 * wall-time:     0 d,  0 h,  1 min, 40.797 sec
 *  cpu-time:     0 d,  0 h, 15 min, 18.287 sec
 * ratio c/w:     9.110 speedup

