      -----------------------------------------------------------      
     |                   =====================                   |     
     |                           x T B                           |     
     |                   =====================                   |     
     |                         S. Grimme                         |     
     |          Mulliken Center for Theoretical Chemistry        |     
     |                    University of Bonn                     |     
     |                Version 6.2 RC2 (SAW190805)                |     
      -----------------------------------------------------------      

   This program is distributed in the hope that it will be useful,
   but WITHOUT ANY WARRANTY; without even the implied warranty of
   MERCHANTABILITY or FITNESS FOR A PARTICULAR PURPOSE.
   
   FOR NON-COMMERCIAL, ACADEMIA USE ONLY.
   
   Cite this work as:
   * S. Grimme, C. Bannwarth, P. Shushkov, J. Chem. Theory Comput., 2017,
     13, 1989-2009. DOI: 10.1021/acs.jctc.7b00118
   * C. Bannwarth, S. Ehlert and S. Grimme., J. Chem. Theory Comput., 2019,
     15, 1652-1671. DOI: 10.1021/acs.jctc.8b01176
   * P. Pracht, E. Caldeweyher, S. Ehlert, S. Grimme, ChemRxiv, 2019, preprint.
     DOI: 10.26434/chemrxiv.8326202.v1
   
   for DFT-D4:
   * E. Caldeweyher, C. Bannwarth and S. Grimme, J. Chem. Phys., 2017,
     147, 034112. DOI: 10.1063/1.4993215
   * E. Caldeweyher, S. Ehlert, A. Hansen, H. Neugebauer, S. Spicher,
     C. Bannwarth and S. Grimme, J. Chem. Phys., 2019, 150, 154122.
     DOI: 10.1063/1.5090222
   
   for sTDA-xTB:
   * S. Grimme and C. Bannwarth, J. Chem. Phys., 2016, 145, 054103.
     DOI: 10.1063/1.4959605
   
   in the mass-spec context:
   * V. Asgeirsson, C. Bauer and S. Grimme, Chem. Sci., 2017, 8, 4879.
     DOI: 10.1039/c7sc00601b
   
   for metadynamics refer to:
   * S. Grimme, J. Chem. Theory Comput., 2019, 155, 2847-2862
     DOI: 10.1021/acs.jctc.9b00143
   
   with help from (in alphabetical order)
   C. Bannwarth, F. Bohle, G. Brandenburg, E. Caldeweyher, M. Checinski,
   S. Dohm, S. Ehlert, S. Ehrlich, F. März, H. Neugebauer, J. Pisarek,
   P. Pracht, P. Shushkov, and S. Spicher.
   
 * started run on 2021/09/14 at 23:19:27.364     

           -------------------------------------------------
          |                Calculation Setup                |
           -------------------------------------------------

          program call               : /ihome/ghutchison/geoffh/xtb/xtb /ihome/ghutchison/blp62/GA/running_GA/v5/generations/54/580_7_489_208_279_01243.xyz -opt
          hostname                   : smp-n192
          coordinate file            : /ihome/ghutchison/blp62/GA/running_GA/v5/generations/54/580_7_489_208_279_01243.xyz
          omp threads                :                    12
          number of atoms            :                   112
          number of electrons        :                   344
          charge                     :                     0
          spin                       :                   0.0
          first test random number   :      0.35934917560996


########################################################################
# WARNING! Please study the warnings concerning your input carefully
#  - XTBPATH is not set, using XTBHOME instead
#  - the use of '-opt' is discouraged, please use '--opt' next time
########################################################################

           ------------------------------------------------- 
          |                 G F N 2 - x T B                 |
          | Geometry, Frequencies, Noncovalent interactions |
          |            JCTC 2019 parametrisation            |
           ------------------------------------------------- 
             KAB for C  - Si     :                1.0500
             KAB for H  - Pd     :                0.9500
             k(s)              :                1.8500
             k(p)              :                2.2300
             k(d)              :                2.2300
             k(f)              :                2.0000
             kEN (H0ij)        :               -2.0000
             D4 a1             :                0.5200
             D4 a2             :                5.0000
             D4 s6             :                1.0000
             D4 s8             :                2.7000
             D4 s9             :                5.0000
             alphaj            :                2.0000

  Z AO/shell   Hii/eV     exponent
  1     Wed Apr 25 08:07:45 CEST 2018   EN: 2.200 GM2: 0.406  GM3: 0.0800  RAES: 1.40
     1s    -10.707211    1.230000
  6     Wed Apr 25 08:07:45 CEST 2018   EN: 2.550 GM2: 0.538  GM3: 0.1500  RAES: 3.00
     2s    -13.970922    2.096432
     2p    -10.063292    1.800000
  7     Wed Apr 25 08:07:45 CEST 2018   EN: 3.040 GM2: 0.461  GM3:-0.0640  RAES: 1.90
     2s    -16.686243    2.339881
     2p    -12.523956    2.014332
  8     Wed Apr 25 08:07:45 CEST 2018   EN: 3.440 GM2: 0.452  GM3:-0.0517  RAES: 1.80
     2s    -20.229985    2.439742
     2p    -15.503117    2.137023
 16     Tue Apr 24 11:44:34 CEST 2018   EN: 2.580 GM2: 0.340  GM3:-0.0502  RAES: 3.10
     3s    -20.029654    1.981333
     3p    -11.377694    2.025643
     3d     -0.420282    1.702555

           ------------------------------------------------- 
          |        Self-Consistent Charge Iterations        |
           ------------------------------------------------- 

          ...................................................
          :                      SETUP                      :
          :.................................................:
          :  # basis functions                 346          :
          :  # atomic orbitals                 342          :
          :  # shells                          186          :
          :  # electrons                       344          :
          :  max. iterations                   250          :
          :  Hamiltonian                  GFN2-xTB          :
          :  restarted?                      false          :
          :  GBSA solvation                  false          :
          :  PC potential                    false          :
          :  electronic temp.          300.0000000     K    :
          :  accuracy                    1.0000000          :
          :  -> integral cutoff          0.2500000E+02      :
          :  -> integral neglect         0.1000000E-07      :
          :  -> SCF convergence          0.1000000E-05 Eh   :
          :  -> wf. convergence          0.1000000E-03 e    :
          :  Broyden damping             0.4000000          :
          ...................................................

 iter      E             dE          RMSdq      gap      omega  full diag
   1   -190.1867074 -0.190187E+03  0.464E+00    1.55       0.0  T
   2   -190.3542132 -0.167506E+00  0.287E+00    1.43       1.0  T
   3   -190.2337741  0.120439E+00  0.194E+00    1.12       1.0  T
   4   -190.4636784 -0.229904E+00  0.733E-01    1.33       1.0  T
   5   -190.5074135 -0.437351E-01  0.222E-01    1.12       1.0  T
   6   -190.5101798 -0.276632E-02  0.112E-01    1.20       1.0  T
   7   -190.5109988 -0.819038E-03  0.474E-02    1.18       1.0  T
   8   -190.5111612 -0.162374E-03  0.181E-02    1.20       1.0  T
   9   -190.5111709 -0.970545E-05  0.915E-03    1.20       1.0  T
  10   -190.5111735 -0.262167E-05  0.466E-03    1.20       2.0  T
  11   -190.5111744 -0.840114E-06  0.233E-03    1.20       4.1  T
  12   -190.5111747 -0.356571E-06  0.943E-04    1.20      10.0  T
  13   -190.5111747  0.306935E-08  0.633E-04    1.20      14.9  T

   *** convergence criteria satisfied after 13 iterations ***

         #    Occupation            Energy/Eh            Energy/eV
      -------------------------------------------------------------
         1        2.0000           -0.7565792             -20.5876
       ...           ...                  ...                  ...
       166        2.0000           -0.3940309             -10.7221
       167        2.0000           -0.3826335             -10.4120
       168        2.0000           -0.3804739             -10.3532
       169        2.0000           -0.3788698             -10.3096
       170        2.0000           -0.3747936             -10.1987
       171        2.0000           -0.3695945             -10.0572
       172        2.0000           -0.3676750             -10.0049 (HOMO)
       173                         -0.3236619              -8.8073 (LUMO)
       174                         -0.3140517              -8.5458
       175                         -0.3071875              -8.3590
       176                         -0.2891686              -7.8687
       177                         -0.2772666              -7.5448
       ...                                ...                  ...
       342                          1.1003530              29.9421
      -------------------------------------------------------------
                  HL-Gap            0.0440131 Eh            1.1977 eV
             Fermi-level           -0.3456092 Eh           -9.4045 eV

 SCC (total)                   0 d,  0 h,  0 min,  0.693 sec
 SCC setup                      ...        0 min,  0.002 sec (  0.321%)
 Dispersion                     ...        0 min,  0.004 sec (  0.611%)
 integral evaluation            ...        0 min,  0.031 sec (  4.429%)
 zeroth order Hamiltonian       ...        0 min,  0.001 sec (  0.154%)
 iterations                     ...        0 min,  0.596 sec ( 86.008%)
 molecular gradient             ...        0 min,  0.055 sec (  7.934%)
 printout                       ...        0 min,  0.004 sec (  0.529%)

         :::::::::::::::::::::::::::::::::::::::::::::::::::::
         ::                     SUMMARY                     ::
         :::::::::::::::::::::::::::::::::::::::::::::::::::::
         :: total energy            -187.527862607452 Eh    ::
         :: gradient norm              0.205251273493 Eh/a0 ::
         :: HOMO-LUMO gap              1.197656935782 eV    ::
         ::.................................................::
         :: SCC energy              -190.511174719031 Eh    ::
         :: -> isotropic ES            0.142868633643 Eh    ::
         :: -> anisotropic ES          0.015715928128 Eh    ::
         :: -> anisotropic XC          0.129538083121 Eh    ::
         :: -> dispersion             -0.150647449708 Eh    ::
         :: repulsion energy           2.984156507715 Eh    ::
         :: add. restraining           0.000000000000 Eh    ::
         :::::::::::::::::::::::::::::::::::::::::::::::::::::

      ----------------------------------------------------------- 
     |                   =====================                   |
     |                        A N C O P T                        |
     |                   =====================                   |
     |               Approximate Normal Coordinate               |
     |                Rational Function Optimizer                |
      ----------------------------------------------------------- 

          ...................................................
          :                      SETUP                      :
          :.................................................:
          :   optimization level            normal          :
          :   max. optcycles                   336          :
          :   ANC micro-cycles                  20          :
          :   degrees of freedom               330          :
          :.................................................:
          :   RF solver                   davidson          :
          :   input Hessian                  false          :
          :   write xtbopt.log                true          :
          :   linear?                        false          :
          :   energy convergence         0.5000000E-05 Eh   :
          :   grad. convergence          0.1000000E-02 Eh/α :
          :   maximium RF displ.         2.0000000          :
          :   Hlow (freq-cutoff)         0.5000000E-02      :
          :   Hmax (freq-cutoff)         5.0000000          :
          :   S6 in model hess.         20.0000000          :
          ...................................................

generating ANC from model Hessian ...
Using Lindh-Hessian (1995)
 Shifting diagonal of input Hessian by   4.990292254830790E-003
 Lowest  eigenvalues of input Hessian
   -0.000000   -0.000000   -0.000000    0.000000    0.000000    0.000000
    0.005000    0.005013    0.005022    0.005029    0.005063    0.005086
    0.005127    0.005165    0.005273    0.005312    0.005352    0.005496
 Highest eigenvalues
    2.361877    2.370172    2.394552    2.498503    2.546423    2.557366
 

........................................................................
.............................. CYCLE    1 ..............................
........................................................................
   1   -190.5111747 -0.190511E+03  0.225E-04    1.20       0.0  T
   2   -190.5111747  0.270859E-10  0.179E-04    1.20      52.9  T
   3   -190.5111747 -0.147392E-08  0.118E-04    1.20      80.4  T
     SCC iter.                  ...        0 min,  0.196 sec
     gradient                   ...        0 min,  0.056 sec
 * total energy  :  -187.5278625 Eh     change        0.8197327E-07 Eh
   gradient norm :     0.2052495 Eh/α   predicted     0.0000000E+00 (-100.00%)
   displ. norm   :     0.4621957 α      lambda       -0.5599159E-01
   maximum displ.:     0.1007705 α      in ANC's #80, #145, #225, ...

........................................................................
.............................. CYCLE    2 ..............................
........................................................................
   1   -190.5761649 -0.190576E+03  0.286E-01    1.21       0.0  T
   2   -190.5765719 -0.406999E-03  0.163E-01    1.26       1.0  T
   3   -190.5760971  0.474787E-03  0.960E-02    1.25       1.0  T
   4   -190.5769737 -0.876617E-03  0.279E-02    1.26       1.0  T
   5   -190.5769905 -0.167740E-04  0.154E-02    1.26       1.0  T
   6   -190.5770020 -0.115004E-04  0.629E-03    1.26       1.5  T
   7   -190.5770051 -0.306240E-05  0.207E-03    1.26       4.6  T
   8   -190.5770052 -0.172546E-06  0.126E-03    1.26       7.5  T
     SCC iter.                  ...        0 min,  0.376 sec
     gradient                   ...        0 min,  0.027 sec
 * total energy  :  -187.5674301 Eh     change       -0.3956754E-01 Eh
   gradient norm :     0.0850588 Eh/α   predicted    -0.3397648E-01 ( -14.13%)
   displ. norm   :     0.5269009 α      lambda       -0.2311737E-01
   maximum displ.:     0.1343580 α      in ANC's #43, #72, #30, ...

........................................................................
.............................. CYCLE    3 ..............................
........................................................................
   1   -190.5957851 -0.190596E+03  0.255E-01    1.22       0.0  T
   2   -190.5960672 -0.282078E-03  0.140E-01    1.26       1.0  T
   3   -190.5956857  0.381482E-03  0.811E-02    1.25       1.0  T
   4   -190.5962681 -0.582390E-03  0.246E-02    1.26       1.0  T
   5   -190.5962802 -0.121164E-04  0.149E-02    1.26       1.0  T
   6   -190.5962921 -0.118947E-04  0.660E-03    1.26       1.4  T
   7   -190.5962960 -0.389512E-05  0.262E-03    1.26       3.6  T
   8   -190.5962965 -0.461839E-06  0.135E-03    1.26       7.0  T
     SCC iter.                  ...        0 min,  0.600 sec
     gradient                   ...        0 min,  0.078 sec
 * total energy  :  -187.5832035 Eh     change       -0.1577340E-01 Eh
   gradient norm :     0.0314763 Eh/α   predicted    -0.1476766E-01 (  -6.38%)
   displ. norm   :     0.6108403 α      lambda       -0.9849318E-02
   maximum displ.:     0.1965564 α      in ANC's #44, #43, #30, ...

........................................................................
.............................. CYCLE    4 ..............................
........................................................................
   1   -190.5999314 -0.190600E+03  0.228E-01    1.23       0.0  T
   2   -190.6000328 -0.101390E-03  0.126E-01    1.26       1.0  T
   3   -190.5996992  0.333580E-03  0.594E-02    1.24       1.0  T
   4   -190.6000841 -0.384941E-03  0.183E-02    1.26       1.0  T
   5   -190.6001025 -0.183714E-04  0.110E-02    1.26       1.0  T
   6   -190.6001107 -0.819554E-05  0.407E-03    1.26       2.3  T
   7   -190.6001117 -0.963726E-06  0.210E-03    1.26       4.5  T
   8   -190.6001119 -0.242870E-06  0.113E-03    1.26       8.4  T
     SCC iter.                  ...        0 min,  0.340 sec
     gradient                   ...        0 min,  0.023 sec
 * total energy  :  -187.5899098 Eh     change       -0.6706314E-02 Eh
   gradient norm :     0.0289774 Eh/α   predicted    -0.6762199E-02 (   0.83%)
   displ. norm   :     0.7656639 α      lambda       -0.9853195E-02
   maximum displ.:     0.2248069 α      in ANC's #43, #32, #25, ...

........................................................................
.............................. CYCLE    5 ..............................
........................................................................
   1   -190.5942456 -0.190594E+03  0.374E-01    1.22       0.0  T
   2   -190.5944099 -0.164296E-03  0.207E-01    1.25       1.0  T
   3   -190.5937751  0.634808E-03  0.738E-02    1.22       1.0  T
   4   -190.5945076 -0.732513E-03  0.200E-02    1.25       1.0  T
   5   -190.5945300 -0.223676E-04  0.115E-02    1.24       1.0  T
   6   -190.5945367 -0.671183E-05  0.451E-03    1.24       2.1  T
   7   -190.5945380 -0.129107E-05  0.249E-03    1.24       3.8  T
   8   -190.5945383 -0.362914E-06  0.126E-03    1.24       7.5  T
     SCC iter.                  ...        0 min,  0.493 sec
     gradient                   ...        0 min,  0.063 sec
 * total energy  :  -187.5938035 Eh     change       -0.3893698E-02 Eh
   gradient norm :     0.0375656 Eh/α   predicted    -0.7814782E-02 ( 100.70%)
   displ. norm   :     0.4537606 α      lambda       -0.6086525E-02
   maximum displ.:     0.1318387 α      in ANC's #30, #13, #44, ...

........................................................................
.............................. CYCLE    6 ..............................
........................................................................
   1   -190.6008024 -0.190601E+03  0.214E-01    1.24       0.0  T
   2   -190.6008601 -0.577201E-04  0.117E-01    1.24       1.0  T
   3   -190.6007458  0.114356E-03  0.339E-02    1.23       1.0  T
   4   -190.6008787 -0.132982E-03  0.111E-02    1.24       1.0  T
   5   -190.6008872 -0.841458E-05  0.530E-03    1.24       1.8  T
   6   -190.6008886 -0.144022E-05  0.253E-03    1.24       3.7  T
   7   -190.6008891 -0.539187E-06  0.112E-03    1.24       8.5  T
     SCC iter.                  ...        0 min,  0.230 sec
     gradient                   ...        0 min,  0.032 sec
 * total energy  :  -187.5976390 Eh     change       -0.3835543E-02 Eh
   gradient norm :     0.0363956 Eh/α   predicted    -0.3669873E-02 (  -4.32%)
   displ. norm   :     0.5826065 α      lambda       -0.4822433E-02
   maximum displ.:     0.1589829 α      in ANC's #30, #21, #28, ...

........................................................................
.............................. CYCLE    7 ..............................
........................................................................
   1   -190.5907366 -0.190591E+03  0.261E-01    1.24       0.0  T
   2   -190.5908445 -0.107839E-03  0.143E-01    1.25       1.0  T
   3   -190.5907477  0.967945E-04  0.368E-02    1.24       1.0  T
   4   -190.5908801 -0.132435E-03  0.133E-02    1.24       1.0  T
   5   -190.5908872 -0.706178E-05  0.710E-03    1.24       1.3  T
   6   -190.5908902 -0.300814E-05  0.345E-03    1.24       2.7  T
   7   -190.5908914 -0.123308E-05  0.124E-03    1.24       7.6  T
     SCC iter.                  ...        0 min,  0.508 sec
     gradient                   ...        0 min,  0.039 sec
 * total energy  :  -187.5990481 Eh     change       -0.1409061E-02 Eh
   gradient norm :     0.0242894 Eh/α   predicted    -0.3229658E-02 ( 129.21%)
   displ. norm   :     0.4829739 α      lambda       -0.4755254E-02
   maximum displ.:     0.1668931 α      in ANC's #37, #25, #34, ...

........................................................................
.............................. CYCLE    8 ..............................
........................................................................
   1   -190.5903986 -0.190590E+03  0.235E-01    1.24       0.0  T
   2   -190.5904638 -0.652754E-04  0.130E-01    1.25       1.0  T
   3   -190.5903226  0.141250E-03  0.399E-02    1.24       1.0  T
   4   -190.5904989 -0.176281E-03  0.995E-03    1.25       1.0  T
   5   -190.5905005 -0.162311E-05  0.607E-03    1.24       1.6  T
   6   -190.5905038 -0.328750E-05  0.194E-03    1.25       4.9  T
   7   -190.5905040 -0.231225E-06  0.923E-04    1.25      10.2  T
     SCC iter.                  ...        0 min,  0.305 sec
     gradient                   ...        0 min,  0.027 sec
 * total energy  :  -187.6016115 Eh     change       -0.2563455E-02 Eh
   gradient norm :     0.0359635 Eh/α   predicted    -0.2932249E-02 (  14.39%)
   displ. norm   :     0.4345662 α      lambda       -0.2935291E-02
   maximum displ.:     0.1305381 α      in ANC's #27, #47, #21, ...

........................................................................
.............................. CYCLE    9 ..............................
........................................................................
   1   -190.5961725 -0.190596E+03  0.165E-01    1.24       0.0  T
   2   -190.5962022 -0.297042E-04  0.913E-02    1.25       1.0  T
   3   -190.5960452  0.156983E-03  0.392E-02    1.23       1.0  T
   4   -190.5962251 -0.179850E-03  0.910E-03    1.25       1.0  T
   5   -190.5962263 -0.124147E-05  0.546E-03    1.24       1.7  T
   6   -190.5962286 -0.230753E-05  0.178E-03    1.24       5.3  T
     SCC iter.                  ...        0 min,  0.320 sec
     gradient                   ...        0 min,  0.037 sec
 * total energy  :  -187.6033098 Eh     change       -0.1698282E-02 Eh
   gradient norm :     0.0175934 Eh/α   predicted    -0.1744814E-02 (   2.74%)
   displ. norm   :     0.5669054 α      lambda       -0.2835411E-02
   maximum displ.:     0.2179576 α      in ANC's #25, #21, #47, ...

........................................................................
.............................. CYCLE   10 ..............................
........................................................................
   1   -190.5983040 -0.190598E+03  0.230E-01    1.23       0.0  T
   2   -190.5983735 -0.694278E-04  0.126E-01    1.24       1.0  T
   3   -190.5982415  0.131943E-03  0.428E-02    1.24       1.0  T
   4   -190.5984064 -0.164889E-03  0.119E-02    1.24       1.0  T
   5   -190.5984069 -0.516491E-06  0.744E-03    1.24       1.3  T
   6   -190.5984135 -0.655783E-05  0.200E-03    1.24       4.7  T
   7   -190.5984137 -0.217844E-06  0.102E-03    1.24       9.3  T
   8   -190.5984137 -0.224097E-07  0.607E-04    1.24      15.6  T
     SCC iter.                  ...        0 min,  0.422 sec
     gradient                   ...        0 min,  0.068 sec
 * total energy  :  -187.6043358 Eh     change       -0.1026013E-02 Eh
   gradient norm :     0.0431403 Eh/α   predicted    -0.1873331E-02 (  82.58%)
   displ. norm   :     0.4626432 α      lambda       -0.3280250E-02
   maximum displ.:     0.1298221 α      in ANC's #27, #21, #47, ...

........................................................................
.............................. CYCLE   11 ..............................
........................................................................
   1   -190.6069165 -0.190607E+03  0.176E-01    1.25       0.0  T
   2   -190.6069542 -0.377682E-04  0.954E-02    1.25       1.0  T
   3   -190.6069008  0.534319E-04  0.265E-02    1.25       1.0  T
   4   -190.6069664 -0.656323E-04  0.105E-02    1.25       1.0  T
   5   -190.6069694 -0.302179E-05  0.530E-03    1.25       1.8  T
   6   -190.6069721 -0.265794E-05  0.168E-03    1.25       5.6  T
     SCC iter.                  ...        0 min,  0.217 sec
     gradient                   ...        0 min,  0.029 sec
 * total energy  :  -187.6064081 Eh     change       -0.2072251E-02 Eh
   gradient norm :     0.0198597 Eh/α   predicted    -0.1991176E-02 (  -3.91%)
   displ. norm   :     0.5689462 α      lambda       -0.1823541E-02
   maximum displ.:     0.1727649 α      in ANC's #21, #25, #19, ...

........................................................................
.............................. CYCLE   12 ..............................
........................................................................
   1   -190.5938363 -0.190594E+03  0.177E-01    1.25       0.0  T
   2   -190.5938619 -0.256203E-04  0.966E-02    1.25       1.0  T
   3   -190.5937490  0.112878E-03  0.361E-02    1.25       1.0  T
   4   -190.5938744 -0.125334E-03  0.117E-02    1.26       1.0  T
   5   -190.5938763 -0.190675E-05  0.606E-03    1.25       1.6  T
   6   -190.5938806 -0.427942E-05  0.173E-03    1.25       5.5  T
   7   -190.5938808 -0.233790E-06  0.833E-04    1.25      11.3  T
   8   -190.5938808 -0.116106E-07  0.585E-04    1.25      16.2  T
     SCC iter.                  ...        0 min,  0.591 sec
     gradient                   ...        0 min,  0.095 sec
 * total energy  :  -187.6077005 Eh     change       -0.1292460E-02 Eh
   gradient norm :     0.0175701 Eh/α   predicted    -0.1206911E-02 (  -6.62%)
   displ. norm   :     0.5875381 α      lambda       -0.1665568E-02
   maximum displ.:     0.1635107 α      in ANC's #18, #21, #22, ...

........................................................................
.............................. CYCLE   13 ..............................
........................................................................
   1   -190.6020607 -0.190602E+03  0.164E-01    1.25       0.0  T
   2   -190.6020844 -0.236676E-04  0.893E-02    1.26       1.0  T
   3   -190.6020294  0.549948E-04  0.268E-02    1.25       1.0  T
   4   -190.6020878 -0.584683E-04  0.118E-02    1.26       1.0  T
   5   -190.6020934 -0.553530E-05  0.560E-03    1.26       1.7  T
   6   -190.6020961 -0.271944E-05  0.166E-03    1.26       5.7  T
   7   -190.6020963 -0.218207E-06  0.758E-04    1.26      12.5  T
     SCC iter.                  ...        0 min,  0.472 sec
     gradient                   ...        0 min,  0.068 sec
 * total energy  :  -187.6090070 Eh     change       -0.1306455E-02 Eh
   gradient norm :     0.0151221 Eh/α   predicted    -0.1120265E-02 ( -14.25%)
   displ. norm   :     0.7106035 α      lambda       -0.1724424E-02
   maximum displ.:     0.1876606 α      in ANC's #22, #24, #18, ...

........................................................................
.............................. CYCLE   14 ..............................
........................................................................
   1   -190.5990402 -0.190599E+03  0.196E-01    1.24       0.0  T
   2   -190.5990738 -0.335697E-04  0.108E-01    1.26       1.0  T
   3   -190.5989512  0.122604E-03  0.369E-02    1.25       1.0  T
   4   -190.5990830 -0.131839E-03  0.141E-02    1.26       1.0  T
   5   -190.5990891 -0.603461E-05  0.792E-03    1.26       1.2  T
   6   -190.5990950 -0.590073E-05  0.215E-03    1.26       4.4  T
   7   -190.5990953 -0.341995E-06  0.104E-03    1.26       9.1  T
   8   -190.5990953 -0.362353E-07  0.654E-04    1.26      14.4  T
     SCC iter.                  ...        0 min,  0.355 sec
     gradient                   ...        0 min,  0.026 sec
 * total energy  :  -187.6100962 Eh     change       -0.1089248E-02 Eh
   gradient norm :     0.0192033 Eh/α   predicted    -0.1297594E-02 (  19.13%)
   displ. norm   :     0.5436585 α      lambda       -0.1781105E-02
   maximum displ.:     0.2146952 α      in ANC's #24, #5, #22, ...

........................................................................
.............................. CYCLE   15 ..............................
........................................................................
   1   -190.6119341 -0.190612E+03  0.140E-01    1.25       0.0  T
   2   -190.6119524 -0.182481E-04  0.783E-02    1.26       1.0  T
   3   -190.6118265  0.125922E-03  0.335E-02    1.25       1.0  T
   4   -190.6119661 -0.139610E-03  0.899E-03    1.26       1.1  T
   5   -190.6119683 -0.217656E-05  0.540E-03    1.26       1.8  T
   6   -190.6119707 -0.243852E-05  0.158E-03    1.26       6.0  T
   7   -190.6119708 -0.156061E-06  0.853E-04    1.26      11.1  T
     SCC iter.                  ...        0 min,  0.295 sec
     gradient                   ...        0 min,  0.050 sec
 * total energy  :  -187.6112630 Eh     change       -0.1166730E-02 Eh
   gradient norm :     0.0186206 Eh/α   predicted    -0.1153771E-02 (  -1.11%)
   displ. norm   :     0.6469811 α      lambda       -0.1352166E-02
   maximum displ.:     0.2222919 α      in ANC's #24, #5, #22, ...

........................................................................
.............................. CYCLE   16 ..............................
........................................................................
   1   -190.6044840 -0.190604E+03  0.166E-01    1.25       0.0  T
   2   -190.6045107 -0.266190E-04  0.930E-02    1.26       1.0  T
   3   -190.6044316  0.790049E-04  0.295E-02    1.25       1.0  T
   4   -190.6045181 -0.864610E-04  0.107E-02    1.26       1.0  T
   5   -190.6045229 -0.476297E-05  0.544E-03    1.26       1.7  T
   6   -190.6045252 -0.231973E-05  0.191E-03    1.26       5.0  T
   7   -190.6045255 -0.290017E-06  0.874E-04    1.26      10.8  T
     SCC iter.                  ...        0 min,  0.459 sec
     gradient                   ...        0 min,  0.024 sec
 * total energy  :  -187.6121861 Eh     change       -0.9231573E-03 Eh
   gradient norm :     0.0181297 Eh/α   predicted    -0.9590876E-03 (   3.89%)
   displ. norm   :     0.5999487 α      lambda       -0.1522133E-02
   maximum displ.:     0.2326874 α      in ANC's #24, #5, #22, ...

........................................................................
.............................. CYCLE   17 ..............................
........................................................................
   1   -190.6075576 -0.190608E+03  0.147E-01    1.25       0.0  T
   2   -190.6075848 -0.271907E-04  0.821E-02    1.25       1.0  T
   3   -190.6075423  0.424071E-04  0.236E-02    1.25       1.0  T
   4   -190.6075925 -0.501311E-04  0.901E-03    1.26       1.0  T
   5   -190.6075952 -0.268083E-05  0.461E-03    1.25       2.1  T
   6   -190.6075967 -0.153043E-05  0.194E-03    1.25       4.9  T
   7   -190.6075969 -0.250561E-06  0.857E-04    1.25      11.0  T
     SCC iter.                  ...        0 min,  0.258 sec
     gradient                   ...        0 min,  0.024 sec
 * total energy  :  -187.6130461 Eh     change       -0.8599992E-03 Eh
   gradient norm :     0.0290933 Eh/α   predicted    -0.1035005E-02 (  20.35%)
   displ. norm   :     0.5313248 α      lambda       -0.1496938E-02
   maximum displ.:     0.2187847 α      in ANC's #5, #24, #22, ...

........................................................................
.............................. CYCLE   18 ..............................
........................................................................
   1   -190.6070628 -0.190607E+03  0.121E-01    1.25       0.0  T
   2   -190.6070885 -0.257292E-04  0.694E-02    1.25       1.0  T
   3   -190.6070194  0.690844E-04  0.251E-02    1.25       1.0  T
   4   -190.6070964 -0.769801E-04  0.738E-03    1.25       1.3  T
   5   -190.6070998 -0.342181E-05  0.383E-03    1.25       2.5  T
   6   -190.6071006 -0.733844E-06  0.209E-03    1.25       4.5  T
     SCC iter.                  ...        0 min,  0.278 sec
     gradient                   ...        0 min,  0.064 sec
 * total energy  :  -187.6139162 Eh     change       -0.8700815E-03 Eh
   gradient norm :     0.0193607 Eh/α   predicted    -0.9597664E-03 (  10.31%)
   displ. norm   :     0.5127799 α      lambda       -0.1736415E-02
   maximum displ.:     0.2481152 α      in ANC's #5, #24, #3, ...

........................................................................
.............................. CYCLE   19 ..............................
........................................................................
   1   -190.6212813 -0.190621E+03  0.125E-01    1.24       0.0  T
   2   -190.6213055 -0.242074E-04  0.701E-02    1.24       1.0  T
   3   -190.6211782  0.127307E-03  0.352E-02    1.25       1.0  T
   4   -190.6213194 -0.141283E-03  0.896E-03    1.24       1.1  T
   5   -190.6213223 -0.285823E-05  0.546E-03    1.24       1.7  T
   6   -190.6213247 -0.237340E-05  0.183E-03    1.24       5.2  T
   7   -190.6213249 -0.242818E-06  0.773E-04    1.24      12.2  T
     SCC iter.                  ...        0 min,  0.238 sec
     gradient                   ...        0 min,  0.069 sec
 * total energy  :  -187.6142774 Eh     change       -0.3611761E-03 Eh
   gradient norm :     0.0320022 Eh/α   predicted    -0.1096498E-02 ( 203.59%)
   displ. norm   :     0.3944046 α      lambda       -0.1773646E-02
   maximum displ.:     0.1654976 α      in ANC's #5, #24, #22, ...

........................................................................
.............................. CYCLE   20 ..............................
........................................................................
   1   -190.6134195 -0.190613E+03  0.953E-02    1.24       0.0  T
   2   -190.6134533 -0.338134E-04  0.544E-02    1.24       1.0  T
   3   -190.6133663  0.870195E-04  0.307E-02    1.24       1.0  T
   4   -190.6134642 -0.978735E-04  0.787E-03    1.24       1.2  T
   5   -190.6134686 -0.445242E-05  0.374E-03    1.24       2.5  T
   6   -190.6134692 -0.593034E-06  0.192E-03    1.24       4.9  T
     SCC iter.                  ...        0 min,  0.283 sec
     gradient                   ...        0 min,  0.030 sec
 * total energy  :  -187.6151966 Eh     change       -0.9192410E-03 Eh
   gradient norm :     0.0245091 Eh/α   predicted    -0.1024774E-02 (  11.48%)
   displ. norm   :     0.4252877 α      lambda       -0.1652902E-02
   maximum displ.:     0.2061408 α      in ANC's #5, #22, #3, ...
 * RMSD in coord.:     0.7556452 α      energy gain  -0.8733402E-01 Eh

generating ANC from model Hessian ...
Using Lindh-Hessian (1995)
 Shifting diagonal of input Hessian by   4.991829831662846E-003
 Lowest  eigenvalues of input Hessian
   -0.000000   -0.000000   -0.000000   -0.000000    0.000000    0.000000
    0.005000    0.005007    0.005015    0.005035    0.005068    0.005090
    0.005111    0.005219    0.005335    0.005383    0.005486    0.005559
 Highest eigenvalues
    2.294379    2.401856    2.429677    2.597222    2.625711    2.654994
 

........................................................................
.............................. CYCLE   21 ..............................
........................................................................
   1   -190.6111662 -0.190611E+03  0.101E-01    1.24       0.0  T
   2   -190.6111923 -0.261195E-04  0.565E-02    1.24       1.0  T
   3   -190.6110983  0.940002E-04  0.316E-02    1.24       1.0  T
   4   -190.6112054 -0.107056E-03  0.691E-03    1.24       1.4  T
   5   -190.6112074 -0.197996E-05  0.357E-03    1.24       2.6  T
   6   -190.6112079 -0.540715E-06  0.184E-03    1.24       5.1  T
   7   -190.6112082 -0.256243E-06  0.645E-04    1.24      14.6  T
   8   -190.6112082 -0.296508E-07  0.312E-04    1.24      30.3  T
     SCC iter.                  ...        0 min,  0.543 sec
     gradient                   ...        0 min,  0.036 sec
 * total energy  :  -187.6155647 Eh     change       -0.3680908E-03 Eh
   gradient norm :     0.0304266 Eh/α   predicted     0.0000000E+00 (-100.00%)
   displ. norm   :     0.2557765 α      lambda       -0.1641614E-02
   maximum displ.:     0.0966251 α      in ANC's #8, #5, #6, ...

........................................................................
.............................. CYCLE   22 ..............................
........................................................................
   1   -190.6163780 -0.190616E+03  0.984E-02    1.23       0.0  T
   2   -190.6163957 -0.176977E-04  0.549E-02    1.24       1.0  T
   3   -190.6163337  0.620198E-04  0.251E-02    1.23       1.0  T
   4   -190.6164053 -0.716328E-04  0.490E-03    1.24       1.9  T
   5   -190.6164066 -0.125117E-05  0.241E-03    1.24       3.9  T
   6   -190.6164067 -0.151736E-06  0.125E-03    1.24       7.5  T
     SCC iter.                  ...        0 min,  0.307 sec
     gradient                   ...        0 min,  0.037 sec
 * total energy  :  -187.6164653 Eh     change       -0.9005434E-03 Eh
   gradient norm :     0.0111457 Eh/α   predicted    -0.8745057E-03 (  -2.89%)
   displ. norm   :     0.4688422 α      lambda       -0.2557081E-02
   maximum displ.:     0.2067033 α      in ANC's #11, #39, #6, ...

........................................................................
.............................. CYCLE   23 ..............................
........................................................................
   1   -190.6208409 -0.190621E+03  0.251E-01    1.22       0.0  T
   2   -190.6209397 -0.988881E-04  0.139E-01    1.22       1.0  T
   3   -190.6207212  0.218580E-03  0.483E-02    1.22       1.0  T
   4   -190.6209897 -0.268499E-03  0.973E-03    1.22       1.0  T
   5   -190.6209933 -0.361791E-05  0.530E-03    1.22       1.8  T
   6   -190.6209943 -0.100846E-05  0.246E-03    1.22       3.8  T
   7   -190.6209946 -0.325453E-06  0.106E-03    1.22       8.9  T
     SCC iter.                  ...        0 min,  0.278 sec
     gradient                   ...        0 min,  0.031 sec
 * total energy  :  -187.6152902 Eh     change        0.1175103E-02 Eh
   gradient norm :     0.0531088 Eh/α   predicted    -0.1559582E-02 (-232.72%)
   displ. norm   :     0.2095182 α      lambda       -0.4231182E-02
   maximum displ.:     0.0865998 α      in ANC's #8, #21, #11, ...

........................................................................
.............................. CYCLE   24 ..............................
........................................................................
   1   -190.6224102 -0.190622E+03  0.170E-01    1.23       0.0  T
   2   -190.6224555 -0.453478E-04  0.939E-02    1.23       1.0  T
   3   -190.6224207  0.347905E-04  0.205E-02    1.22       1.0  T
   4   -190.6224749 -0.541698E-04  0.508E-03    1.23       1.9  T
   5   -190.6224763 -0.143805E-05  0.253E-03    1.23       3.7  T
   6   -190.6224764 -0.128331E-06  0.130E-03    1.23       7.2  T
     SCC iter.                  ...        0 min,  0.386 sec
     gradient                   ...        0 min,  0.050 sec
 * total energy  :  -187.6173519 Eh     change       -0.2061755E-02 Eh
   gradient norm :     0.0202274 Eh/α   predicted    -0.2208476E-02 (   7.12%)
   displ. norm   :     0.2954282 α      lambda       -0.2524860E-02
   maximum displ.:     0.1120978 α      in ANC's #58, #57, #21, ...

........................................................................
.............................. CYCLE   25 ..............................
........................................................................
   1   -190.6078096 -0.190608E+03  0.216E-01    1.22       0.0  T
   2   -190.6078863 -0.766909E-04  0.119E-01    1.22       1.0  T
   3   -190.6078140  0.723303E-04  0.296E-02    1.22       1.0  T
   4   -190.6079179 -0.103934E-03  0.680E-03    1.22       1.4  T
   5   -190.6079203 -0.236537E-05  0.359E-03    1.22       2.6  T
   6   -190.6079207 -0.454817E-06  0.182E-03    1.22       5.2  T
     SCC iter.                  ...        0 min,  0.271 sec
     gradient                   ...        0 min,  0.038 sec
 * total energy  :  -187.6168176 Eh     change        0.5343424E-03 Eh
   gradient norm :     0.0347055 Eh/α   predicted    -0.1372614E-02 (-356.88%)
   displ. norm   :     0.2595954 α      lambda       -0.3136968E-02
   maximum displ.:     0.0993994 α      in ANC's #39, #44, #6, ...

........................................................................
.............................. CYCLE   26 ..............................
........................................................................
   1   -190.6187574 -0.190619E+03  0.151E-01    1.22       0.0  T
   2   -190.6187905 -0.331275E-04  0.834E-02    1.22       1.0  T
   3   -190.6187521  0.384942E-04  0.223E-02    1.22       1.0  T
   4   -190.6188054 -0.533908E-04  0.506E-03    1.22       1.9  T
   5   -190.6188060 -0.507970E-06  0.301E-03    1.22       3.1  T
   6   -190.6188064 -0.453065E-06  0.129E-03    1.22       7.3  T
     SCC iter.                  ...        0 min,  0.498 sec
     gradient                   ...        0 min,  0.040 sec
 * total energy  :  -187.6186014 Eh     change       -0.1783821E-02 Eh
   gradient norm :     0.0092281 Eh/α   predicted    -0.1674188E-02 (  -6.15%)
   displ. norm   :     0.4133388 α      lambda       -0.1063562E-02
   maximum displ.:     0.1345780 α      in ANC's #6, #39, #5, ...

........................................................................
.............................. CYCLE   27 ..............................
........................................................................
   1   -190.6151640 -0.190615E+03  0.131E-01    1.21       0.0  T
   2   -190.6151802 -0.162062E-04  0.724E-02    1.21       1.0  T
   3   -190.6151450  0.352404E-04  0.211E-02    1.21       1.0  T
   4   -190.6151882 -0.432245E-04  0.678E-03    1.21       1.4  T
   5   -190.6151888 -0.566085E-06  0.342E-03    1.21       2.8  T
   6   -190.6151897 -0.935134E-06  0.113E-03    1.21       8.4  T
   7   -190.6151898 -0.975370E-07  0.552E-04    1.21      17.1  T
     SCC iter.                  ...        0 min,  0.185 sec
     gradient                   ...        0 min,  0.027 sec
 * total energy  :  -187.6193537 Eh     change       -0.7523294E-03 Eh
   gradient norm :     0.0119588 Eh/α   predicted    -0.6226390E-03 ( -17.24%)
   displ. norm   :     0.7007055 α      lambda       -0.1747555E-02
   maximum displ.:     0.2484568 α      in ANC's #39, #6, #5, ...

........................................................................
.............................. CYCLE   28 ..............................
........................................................................
   1   -190.6094750 -0.190609E+03  0.204E-01    1.19       0.0  T
   2   -190.6095077 -0.326453E-04  0.111E-01    1.19       1.0  T
   3   -190.6094650  0.426321E-04  0.267E-02    1.19       1.0  T
   4   -190.6095121 -0.470361E-04  0.141E-02    1.19       1.0  T
   5   -190.6095206 -0.856965E-05  0.460E-03    1.19       2.1  T
   6   -190.6095223 -0.162153E-05  0.154E-03    1.19       6.1  T
   7   -190.6095224 -0.101999E-06  0.947E-04    1.19      10.0  T
     SCC iter.                  ...        0 min,  0.526 sec
     gradient                   ...        0 min,  0.042 sec
 * total energy  :  -187.6205454 Eh     change       -0.1191704E-02 Eh
   gradient norm :     0.0209361 Eh/α   predicted    -0.1302799E-02 (   9.32%)
   displ. norm   :     0.5324169 α      lambda       -0.1707391E-02
   maximum displ.:     0.2160548 α      in ANC's #6, #5, #11, ...

........................................................................
.............................. CYCLE   29 ..............................
........................................................................
   1   -190.6173189 -0.190617E+03  0.150E-01    1.18       0.0  T
   2   -190.6173385 -0.196083E-04  0.796E-02    1.18       1.0  T
   3   -190.6173344  0.409320E-05  0.155E-02    1.18       1.0  T
   4   -190.6173374 -0.298346E-05  0.103E-02    1.18       1.0  T
   5   -190.6173438 -0.639977E-05  0.311E-03    1.18       3.0  T
   6   -190.6173448 -0.961224E-06  0.108E-03    1.18       8.7  T
   7   -190.6173448 -0.764517E-07  0.599E-04    1.18      15.8  T
     SCC iter.                  ...        0 min,  0.397 sec
     gradient                   ...        0 min,  0.038 sec
 * total energy  :  -187.6217197 Eh     change       -0.1174231E-02 Eh
   gradient norm :     0.0122012 Eh/α   predicted    -0.1095694E-02 (  -6.69%)
   displ. norm   :     0.6992346 α      lambda       -0.1580140E-02
   maximum displ.:     0.2722960 α      in ANC's #6, #5, #39, ...

........................................................................
.............................. CYCLE   30 ..............................
........................................................................
   1   -190.6167337 -0.190617E+03  0.182E-01    1.17       0.0  T
   2   -190.6167631 -0.293472E-04  0.101E-01    1.17       1.0  T
   3   -190.6166903  0.727816E-04  0.303E-02    1.17       1.0  T
   4   -190.6167759 -0.855661E-04  0.963E-03    1.17       1.0  T
   5   -190.6167770 -0.110776E-05  0.516E-03    1.17       1.8  T
   6   -190.6167797 -0.271554E-05  0.180E-03    1.17       5.3  T
   7   -190.6167800 -0.290891E-06  0.790E-04    1.17      12.0  T
     SCC iter.                  ...        0 min,  0.574 sec
     gradient                   ...        0 min,  0.053 sec
 * total energy  :  -187.6226629 Eh     change       -0.9432280E-03 Eh
   gradient norm :     0.0191799 Eh/α   predicted    -0.1176361E-02 (  24.72%)
   displ. norm   :     0.4929396 α      lambda       -0.1054018E-02
   maximum displ.:     0.2127944 α      in ANC's #6, #5, #8, ...

........................................................................
.............................. CYCLE   31 ..............................
........................................................................
   1   -190.6187888 -0.190619E+03  0.113E-01    1.17       0.0  T
   2   -190.6188029 -0.141205E-04  0.614E-02    1.17       1.0  T
   3   -190.6187820  0.209406E-04  0.167E-02    1.17       1.0  T
   4   -190.6188054 -0.234391E-04  0.754E-03    1.17       1.3  T
   5   -190.6188081 -0.264138E-05  0.334E-03    1.17       2.8  T
   6   -190.6188088 -0.782791E-06  0.123E-03    1.17       7.7  T
   7   -190.6188090 -0.129349E-06  0.521E-04    1.17      18.1  T
     SCC iter.                  ...        0 min,  0.222 sec
     gradient                   ...        0 min,  0.037 sec
 * total energy  :  -187.6234589 Eh     change       -0.7959952E-03 Eh
   gradient norm :     0.0127191 Eh/α   predicted    -0.6550718E-03 ( -17.70%)
   displ. norm   :     0.6011982 α      lambda       -0.1081583E-02
   maximum displ.:     0.2724541 α      in ANC's #6, #5, #8, ...

........................................................................
.............................. CYCLE   32 ..............................
........................................................................
   1   -190.6247128 -0.190625E+03  0.122E-01    1.16       0.0  T
   2   -190.6247283 -0.154852E-04  0.667E-02    1.16       1.0  T
   3   -190.6247181  0.101739E-04  0.147E-02    1.16       1.0  T
   4   -190.6247306 -0.125135E-04  0.759E-03    1.16       1.2  T
   5   -190.6247329 -0.226755E-05  0.335E-03    1.16       2.8  T
   6   -190.6247341 -0.124562E-05  0.120E-03    1.16       7.9  T
   7   -190.6247343 -0.113285E-06  0.540E-04    1.16      17.5  T
     SCC iter.                  ...        0 min,  0.351 sec
     gradient                   ...        0 min,  0.055 sec
 * total energy  :  -187.6240451 Eh     change       -0.5862620E-03 Eh
   gradient norm :     0.0165373 Eh/α   predicted    -0.7362567E-03 (  25.58%)
   displ. norm   :     0.6339222 α      lambda       -0.9552337E-03
   maximum displ.:     0.2898509 α      in ANC's #6, #5, #8, ...

........................................................................
.............................. CYCLE   33 ..............................
........................................................................
   1   -190.6202395 -0.190620E+03  0.137E-01    1.15       0.0  T
   2   -190.6202569 -0.174258E-04  0.749E-02    1.15       1.0  T
   3   -190.6202427  0.141738E-04  0.173E-02    1.15       1.0  T
   4   -190.6202606 -0.178598E-04  0.825E-03    1.15       1.1  T
   5   -190.6202632 -0.256891E-05  0.269E-03    1.15       3.5  T
   6   -190.6202638 -0.625570E-06  0.102E-03    1.15       9.3  T
     SCC iter.                  ...        0 min,  0.215 sec
     gradient                   ...        0 min,  0.033 sec
 * total energy  :  -187.6247129 Eh     change       -0.6677319E-03 Eh
   gradient norm :     0.0115508 Eh/α   predicted    -0.6695570E-03 (   0.27%)
   displ. norm   :     0.5235322 α      lambda       -0.7001007E-03
   maximum displ.:     0.2561184 α      in ANC's #6, #5, #8, ...

........................................................................
.............................. CYCLE   34 ..............................
........................................................................
   1   -190.6250993 -0.190625E+03  0.123E-01    1.15       0.0  T
   2   -190.6251191 -0.198482E-04  0.661E-02    1.15       1.0  T
   3   -190.6251016  0.175125E-04  0.165E-02    1.15       1.0  T
   4   -190.6251228 -0.212225E-04  0.808E-03    1.15       1.2  T
   5   -190.6251262 -0.333113E-05  0.263E-03    1.15       3.6  T
   6   -190.6251267 -0.489948E-06  0.106E-03    1.15       8.9  T
   7   -190.6251267 -0.756631E-07  0.512E-04    1.15      18.5  T
     SCC iter.                  ...        0 min,  0.236 sec
     gradient                   ...        0 min,  0.042 sec
 * total energy  :  -187.6251596 Eh     change       -0.4466862E-03 Eh
   gradient norm :     0.0162007 Eh/α   predicted    -0.4459974E-03 (  -0.15%)
   displ. norm   :     0.5836372 α      lambda       -0.6950247E-03
   maximum displ.:     0.2826638 α      in ANC's #6, #5, #8, ...

........................................................................
.............................. CYCLE   35 ..............................
........................................................................
   1   -190.6245401 -0.190625E+03  0.108E-01    1.15       0.0  T
   2   -190.6245519 -0.118705E-04  0.592E-02    1.15       1.0  T
   3   -190.6245479  0.406465E-05  0.113E-02    1.14       1.0  T
   4   -190.6245536 -0.571135E-05  0.657E-03    1.15       1.4  T
   5   -190.6245558 -0.215883E-05  0.243E-03    1.15       3.9  T
   6   -190.6245563 -0.566695E-06  0.943E-04    1.15      10.0  T
     SCC iter.                  ...        0 min,  0.521 sec
     gradient                   ...        0 min,  0.026 sec
 * total energy  :  -187.6256801 Eh     change       -0.5205335E-03 Eh
   gradient norm :     0.0136595 Eh/α   predicted    -0.4658954E-03 ( -10.50%)
   displ. norm   :     0.5919565 α      lambda       -0.8214504E-03
   maximum displ.:     0.2976475 α      in ANC's #6, #5, #8, ...

........................................................................
.............................. CYCLE   36 ..............................
........................................................................
   1   -190.6284569 -0.190628E+03  0.117E-01    1.14       0.0  T
   2   -190.6284734 -0.164041E-04  0.645E-02    1.14       1.0  T
   3   -190.6284108  0.625811E-04  0.249E-02    1.15       1.0  T
   4   -190.6284828 -0.720448E-04  0.696E-03    1.14       1.4  T
   5   -190.6284839 -0.108259E-05  0.373E-03    1.14       2.5  T
   6   -190.6284848 -0.915987E-06  0.161E-03    1.14       5.9  T
   7   -190.6284851 -0.271484E-06  0.594E-04    1.14      15.9  T
     SCC iter.                  ...        0 min,  0.292 sec
     gradient                   ...        0 min,  0.064 sec
 * total energy  :  -187.6261589 Eh     change       -0.4788308E-03 Eh
   gradient norm :     0.0188483 Eh/α   predicted    -0.5546516E-03 (  15.83%)
   displ. norm   :     0.5936548 α      lambda       -0.6459816E-03
   maximum displ.:     0.3004875 α      in ANC's #6, #8, #5, ...

........................................................................
.............................. CYCLE   37 ..............................
........................................................................
   1   -190.6210762 -0.190621E+03  0.114E-01    1.14       0.0  T
   2   -190.6210886 -0.124352E-04  0.625E-02    1.14       1.0  T
   3   -190.6210859  0.271399E-05  0.112E-02    1.14       1.0  T
   4   -190.6210909 -0.502471E-05  0.654E-03    1.14       1.4  T
   5   -190.6210929 -0.202919E-05  0.237E-03    1.14       4.0  T
   6   -190.6210935 -0.596471E-06  0.938E-04    1.14      10.1  T
     SCC iter.                  ...        0 min,  0.261 sec
     gradient                   ...        0 min,  0.041 sec
 * total energy  :  -187.6266887 Eh     change       -0.5298012E-03 Eh
   gradient norm :     0.0094408 Eh/α   predicted    -0.4368279E-03 ( -17.55%)
   displ. norm   :     0.6276393 α      lambda       -0.7269123E-03
   maximum displ.:     0.3246326 α      in ANC's #6, #8, #5, ...

........................................................................
.............................. CYCLE   38 ..............................
........................................................................
   1   -190.6228136 -0.190623E+03  0.135E-01    1.14       0.0  T
   2   -190.6228314 -0.177816E-04  0.720E-02    1.14       1.0  T
   3   -190.6228125  0.188505E-04  0.181E-02    1.13       1.0  T
   4   -190.6228337 -0.212075E-04  0.958E-03    1.13       1.0  T
   5   -190.6228378 -0.412231E-05  0.361E-03    1.13       2.6  T
   6   -190.6228392 -0.135665E-05  0.128E-03    1.13       7.4  T
   7   -190.6228393 -0.137540E-06  0.645E-04    1.13      14.6  T
     SCC iter.                  ...        0 min,  0.321 sec
     gradient                   ...        0 min,  0.048 sec
 * total energy  :  -187.6272309 Eh     change       -0.5421512E-03 Eh
   gradient norm :     0.0122644 Eh/α   predicted    -0.5066376E-03 (  -6.55%)
   displ. norm   :     0.6648977 α      lambda       -0.6555730E-03
   maximum displ.:     0.3514319 α      in ANC's #6, #8, #5, ...

........................................................................
.............................. CYCLE   39 ..............................
........................................................................
   1   -190.6194648 -0.190619E+03  0.131E-01    1.13       0.0  T
   2   -190.6194812 -0.163592E-04  0.711E-02    1.13       1.0  T
   3   -190.6194805  0.725002E-06  0.123E-02    1.13       1.0  T
   4   -190.6194815 -0.104096E-05  0.838E-03    1.13       1.1  T
   5   -190.6194869 -0.537213E-05  0.231E-03    1.13       4.1  T
   6   -190.6194872 -0.360880E-06  0.912E-04    1.13      10.4  T
   7   -190.6194873 -0.241283E-07  0.572E-04    1.13      16.5  T
     SCC iter.                  ...        0 min,  0.458 sec
     gradient                   ...        0 min,  0.178 sec
 * total energy  :  -187.6277744 Eh     change       -0.5435239E-03 Eh
   gradient norm :     0.0101555 Eh/α   predicted    -0.4727033E-03 ( -13.03%)
   displ. norm   :     0.6820503 α      lambda       -0.6838456E-03
   maximum displ.:     0.3589341 α      in ANC's #6, #8, #5, ...

........................................................................
.............................. CYCLE   40 ..............................
........................................................................
   1   -190.6202200 -0.190620E+03  0.137E-01    1.13       0.0  T
   2   -190.6202362 -0.161897E-04  0.760E-02    1.13       1.0  T
   3   -190.6202291  0.709713E-05  0.141E-02    1.13       1.0  T
   4   -190.6202387 -0.954910E-05  0.829E-03    1.13       1.1  T
   5   -190.6202426 -0.393869E-05  0.264E-03    1.13       3.6  T
   6   -190.6202432 -0.593700E-06  0.116E-03    1.13       8.2  T
   7   -190.6202433 -0.701126E-07  0.673E-04    1.13      14.0  T
     SCC iter.                  ...        0 min,  0.343 sec
     gradient                   ...        0 min,  0.026 sec
 * total energy  :  -187.6283522 Eh     change       -0.5778435E-03 Eh
   gradient norm :     0.0084185 Eh/α   predicted    -0.5009854E-03 ( -13.30%)
   displ. norm   :     0.7164644 α      lambda       -0.6663845E-03
   maximum displ.:     0.3882457 α      in ANC's #6, #8, #5, ...

........................................................................
.............................. CYCLE   41 ..............................
........................................................................
   1   -190.6207082 -0.190621E+03  0.145E-01    1.13       0.0  T
   2   -190.6207262 -0.180245E-04  0.809E-02    1.13       1.0  T
   3   -190.6206992  0.270453E-04  0.185E-02    1.13       1.0  T
   4   -190.6207328 -0.335829E-04  0.784E-03    1.13       1.2  T
   5   -190.6207346 -0.187652E-05  0.368E-03    1.13       2.6  T
   6   -190.6207359 -0.129525E-05  0.133E-03    1.13       7.1  T
   7   -190.6207360 -0.118175E-06  0.722E-04    1.13      13.1  T
     SCC iter.                  ...        0 min,  0.270 sec
     gradient                   ...        0 min,  0.037 sec
 * total energy  :  -187.6289334 Eh     change       -0.5811090E-03 Eh
   gradient norm :     0.0099149 Eh/α   predicted    -0.5042316E-03 ( -13.23%)
   displ. norm   :     0.7236153 α      lambda       -0.6760224E-03
   maximum displ.:     0.3952902 α      in ANC's #6, #8, #5, ...

........................................................................
.............................. CYCLE   42 ..............................
........................................................................
   1   -190.6226414 -0.190623E+03  0.152E-01    1.13       0.0  T
   2   -190.6226615 -0.200806E-04  0.849E-02    1.13       1.0  T
   3   -190.6226323  0.291438E-04  0.188E-02    1.12       1.0  T
   4   -190.6226685 -0.361406E-04  0.785E-03    1.13       1.2  T
   5   -190.6226710 -0.251706E-05  0.351E-03    1.13       2.7  T
   6   -190.6226720 -0.966836E-06  0.149E-03    1.13       6.3  T
   7   -190.6226721 -0.165916E-06  0.730E-04    1.13      12.9  T
     SCC iter.                  ...        0 min,  0.303 sec
     gradient                   ...        0 min,  0.039 sec
 * total energy  :  -187.6295174 Eh     change       -0.5840464E-03 Eh
   gradient norm :     0.0085811 Eh/α   predicted    -0.5150073E-03 ( -11.82%)
   displ. norm   :     0.7664823 α      lambda       -0.6389054E-03
   maximum displ.:     0.4259859 α      in ANC's #6, #5, #8, ...
 * RMSD in coord.:     0.9708525 α      energy gain  -0.1432077E-01 Eh

generating ANC from model Hessian ...
Using Lindh-Hessian (1995)
 Shifting diagonal of input Hessian by   4.994161612314352E-003
 Lowest  eigenvalues of input Hessian
   -0.000000   -0.000000   -0.000000   -0.000000    0.000000    0.000000
    0.005000    0.005008    0.005016    0.005035    0.005066    0.005090
    0.005104    0.005135    0.005266    0.005318    0.005462    0.005544
 Highest eigenvalues
    2.272043    2.392744    2.421423    2.599369    2.636942    2.650202
 

........................................................................
.............................. CYCLE   43 ..............................
........................................................................
   1   -190.6185013 -0.190619E+03  0.160E-01    1.13       0.0  T
   2   -190.6185260 -0.247743E-04  0.897E-02    1.13       1.0  T
   3   -190.6185045  0.215197E-04  0.177E-02    1.12       1.0  T
   4   -190.6185315 -0.269687E-04  0.886E-03    1.13       1.1  T
   5   -190.6185363 -0.476412E-05  0.388E-03    1.13       2.4  T
   6   -190.6185373 -0.105905E-05  0.161E-03    1.13       5.9  T
   7   -190.6185375 -0.173963E-06  0.782E-04    1.13      12.1  T
   8   -190.6185375 -0.219562E-07  0.415E-04    1.13      22.8  T
     SCC iter.                  ...        0 min,  0.392 sec
     gradient                   ...        0 min,  0.074 sec
 * total energy  :  -187.6300468 Eh     change       -0.5293731E-03 Eh
   gradient norm :     0.0082370 Eh/α   predicted     0.0000000E+00 (-100.00%)
   displ. norm   :     0.1583607 α      lambda       -0.2702016E-03
   maximum displ.:     0.0683098 α      in ANC's #7, #8, #5, ...

........................................................................
.............................. CYCLE   44 ..............................
........................................................................
   1   -190.6238274 -0.190624E+03  0.430E-02    1.12       0.0  T
   2   -190.6238299 -0.246595E-05  0.237E-02    1.13       1.0  T
   3   -190.6238267  0.320598E-05  0.662E-03    1.12       1.4  T
   4   -190.6238306 -0.399262E-05  0.266E-03    1.13       3.6  T
   5   -190.6238309 -0.281358E-06  0.117E-03    1.13       8.1  T
   6   -190.6238310 -0.837289E-07  0.421E-04    1.13      22.4  T
     SCC iter.                  ...        0 min,  0.491 sec
     gradient                   ...        0 min,  0.025 sec
 * total energy  :  -187.6302523 Eh     change       -0.2055697E-03 Eh
   gradient norm :     0.0040079 Eh/α   predicted    -0.1385263E-03 ( -32.61%)
   displ. norm   :     0.2056408 α      lambda       -0.3088616E-03
   maximum displ.:     0.0751640 α      in ANC's #5, #8, #20, ...

........................................................................
.............................. CYCLE   45 ..............................
........................................................................
   1   -190.6296630 -0.190630E+03  0.886E-02    1.12       0.0  T
   2   -190.6296726 -0.965503E-05  0.487E-02    1.12       1.0  T
   3   -190.6296661  0.655104E-05  0.101E-02    1.12       1.0  T
   4   -190.6296764 -0.103254E-04  0.386E-03    1.12       2.4  T
   5   -190.6296770 -0.600022E-06  0.179E-03    1.12       5.3  T
   6   -190.6296772 -0.193623E-06  0.732E-04    1.12      12.9  T
     SCC iter.                  ...        0 min,  0.300 sec
     gradient                   ...        0 min,  0.040 sec
 * total energy  :  -187.6303176 Eh     change       -0.6522854E-04 Eh
   gradient norm :     0.0072700 Eh/α   predicted    -0.1609724E-03 ( 146.78%)
   displ. norm   :     0.2200514 α      lambda       -0.3856751E-03
   maximum displ.:     0.0858246 α      in ANC's #7, #8, #5, ...

........................................................................
.............................. CYCLE   46 ..............................
........................................................................
   1   -190.6305524 -0.190631E+03  0.799E-02    1.12       0.0  T
   2   -190.6305594 -0.703475E-05  0.444E-02    1.12       1.0  T
   3   -190.6305494  0.100896E-04  0.101E-02    1.12       1.0  T
   4   -190.6305629 -0.135262E-04  0.331E-03    1.12       2.9  T
   5   -190.6305632 -0.321811E-06  0.177E-03    1.12       5.3  T
   6   -190.6305634 -0.228086E-06  0.612E-04    1.12      15.4  T
     SCC iter.                  ...        0 min,  0.222 sec
     gradient                   ...        0 min,  0.041 sec
 * total energy  :  -187.6304749 Eh     change       -0.1573547E-03 Eh
   gradient norm :     0.0076764 Eh/α   predicted    -0.2021765E-03 (  28.48%)
   displ. norm   :     0.2786259 α      lambda       -0.5444699E-03
   maximum displ.:     0.1212052 α      in ANC's #7, #8, #20, ...

........................................................................
.............................. CYCLE   47 ..............................
........................................................................
   1   -190.6263711 -0.190626E+03  0.979E-02    1.12       0.0  T
   2   -190.6263824 -0.113307E-04  0.546E-02    1.12       1.0  T
   3   -190.6263740  0.839806E-05  0.112E-02    1.12       1.0  T
   4   -190.6263870 -0.129844E-04  0.395E-03    1.12       2.4  T
   5   -190.6263875 -0.479478E-06  0.243E-03    1.12       3.9  T
   6   -190.6263879 -0.451783E-06  0.982E-04    1.12       9.6  T
     SCC iter.                  ...        0 min,  0.298 sec
     gradient                   ...        0 min,  0.066 sec
 * total energy  :  -187.6306398 Eh     change       -0.1648360E-03 Eh
   gradient norm :     0.0073872 Eh/α   predicted    -0.2933693E-03 (  77.98%)
   displ. norm   :     0.2182296 α      lambda       -0.3527862E-03
   maximum displ.:     0.0965338 α      in ANC's #5, #8, #20, ...

........................................................................
.............................. CYCLE   48 ..............................
........................................................................
   1   -190.6254611 -0.190625E+03  0.919E-02    1.12       0.0  T
   2   -190.6254698 -0.861655E-05  0.508E-02    1.12       1.0  T
   3   -190.6254655  0.426477E-05  0.822E-03    1.12       1.2  T
   4   -190.6254735 -0.803870E-05  0.289E-03    1.12       3.3  T
   5   -190.6254738 -0.224007E-06  0.172E-03    1.12       5.5  T
   6   -190.6254740 -0.255134E-06  0.539E-04    1.12      17.5  T
     SCC iter.                  ...        0 min,  0.345 sec
     gradient                   ...        0 min,  0.077 sec
 * total energy  :  -187.6307678 Eh     change       -0.1280763E-03 Eh
   gradient norm :     0.0083118 Eh/α   predicted    -0.1847947E-03 (  44.28%)
   displ. norm   :     0.3253746 α      lambda       -0.6207250E-03
   maximum displ.:     0.1530462 α      in ANC's #7, #8, #5, ...

........................................................................
.............................. CYCLE   49 ..............................
........................................................................
   1   -190.6278608 -0.190628E+03  0.111E-01    1.12       0.0  T
   2   -190.6278747 -0.138878E-04  0.617E-02    1.12       1.0  T
   3   -190.6278451  0.295829E-04  0.171E-02    1.11       1.0  T
   4   -190.6278822 -0.370954E-04  0.421E-03    1.12       2.2  T
   5   -190.6278827 -0.426801E-06  0.269E-03    1.12       3.5  T
   6   -190.6278832 -0.533604E-06  0.943E-04    1.12      10.0  T
     SCC iter.                  ...        0 min,  0.559 sec
     gradient                   ...        0 min,  0.039 sec
 * total energy  :  -187.6310025 Eh     change       -0.2346439E-03 Eh
   gradient norm :     0.0075113 Eh/α   predicted    -0.3432206E-03 (  46.27%)
   displ. norm   :     0.3133531 α      lambda       -0.3242249E-03
   maximum displ.:     0.1502815 α      in ANC's #7, #8, #5, ...

........................................................................
.............................. CYCLE   50 ..............................
........................................................................
   1   -190.6266985 -0.190627E+03  0.706E-02    1.12       0.0  T
   2   -190.6267031 -0.461507E-05  0.397E-02    1.12       1.0  T
   3   -190.6266921  0.110022E-04  0.105E-02    1.12       1.0  T
   4   -190.6267047 -0.125938E-04  0.403E-03    1.12       2.3  T
   5   -190.6267054 -0.702351E-06  0.221E-03    1.12       4.3  T
   6   -190.6267058 -0.416407E-06  0.715E-04    1.12      13.2  T
     SCC iter.                  ...        0 min,  0.314 sec
     gradient                   ...        0 min,  0.036 sec
 * total energy  :  -187.6312672 Eh     change       -0.2647644E-03 Eh
   gradient norm :     0.0048323 Eh/α   predicted    -0.1780323E-03 ( -32.76%)
   displ. norm   :     0.5918152 α      lambda       -0.4460127E-03
   maximum displ.:     0.3047395 α      in ANC's #7, #8, #5, ...

........................................................................
.............................. CYCLE   51 ..............................
........................................................................
   1   -190.6247181 -0.190625E+03  0.121E-01    1.11       0.0  T
   2   -190.6247306 -0.125023E-04  0.678E-02    1.12       1.0  T
   3   -190.6246799  0.507868E-04  0.214E-02    1.11       1.0  T
   4   -190.6247365 -0.566488E-04  0.707E-03    1.12       1.3  T
   5   -190.6247383 -0.182574E-05  0.388E-03    1.12       2.4  T
   6   -190.6247396 -0.125271E-05  0.122E-03    1.12       7.7  T
   7   -190.6247397 -0.102969E-06  0.599E-04    1.12      15.8  T
     SCC iter.                  ...        0 min,  0.297 sec
     gradient                   ...        0 min,  0.069 sec
 * total energy  :  -187.6316263 Eh     change       -0.3590662E-03 Eh
   gradient norm :     0.0050215 Eh/α   predicted    -0.3011164E-03 ( -16.14%)
   displ. norm   :     0.6553396 α      lambda       -0.4031451E-03
   maximum displ.:     0.3504323 α      in ANC's #7, #8, #5, ...

........................................................................
.............................. CYCLE   52 ..............................
........................................................................
   1   -190.6241981 -0.190624E+03  0.125E-01    1.11       0.0  T
   2   -190.6242106 -0.124824E-04  0.700E-02    1.12       1.0  T
   3   -190.6241590  0.516123E-04  0.217E-02    1.11       1.0  T
   4   -190.6242167 -0.576917E-04  0.725E-03    1.12       1.3  T
   5   -190.6242182 -0.155417E-05  0.395E-03    1.12       2.4  T
   6   -190.6242196 -0.141647E-05  0.120E-03    1.12       7.9  T
   7   -190.6242197 -0.103535E-06  0.597E-04    1.12      15.8  T
     SCC iter.                  ...        0 min,  0.760 sec
     gradient                   ...        0 min,  0.069 sec
 * total energy  :  -187.6319799 Eh     change       -0.3536062E-03 Eh
   gradient norm :     0.0069041 Eh/α   predicted    -0.2881430E-03 ( -18.51%)
   displ. norm   :     0.6977993 α      lambda       -0.4852429E-03
   maximum displ.:     0.3879999 α      in ANC's #7, #8, #5, ...

........................................................................
.............................. CYCLE   53 ..............................
........................................................................
   1   -190.6266556 -0.190627E+03  0.123E-01    1.11       0.0  T
   2   -190.6266670 -0.114784E-04  0.687E-02    1.11       1.0  T
   3   -190.6266285  0.385329E-04  0.194E-02    1.11       1.0  T
   4   -190.6266719 -0.433698E-04  0.705E-03    1.11       1.3  T
   5   -190.6266733 -0.142047E-05  0.359E-03    1.11       2.6  T
   6   -190.6266746 -0.129791E-05  0.107E-03    1.11       8.8  T
   7   -190.6266747 -0.828421E-07  0.546E-04    1.11      17.3  T
     SCC iter.                  ...        0 min,  0.323 sec
     gradient                   ...        0 min,  0.078 sec
 * total energy  :  -187.6324076 Eh     change       -0.4276597E-03 Eh
   gradient norm :     0.0068208 Eh/α   predicted    -0.3607631E-03 ( -15.64%)
   displ. norm   :     0.7792104 α      lambda       -0.5378032E-03
   maximum displ.:     0.4293719 α      in ANC's #7, #8, #5, ...

........................................................................
.............................. CYCLE   54 ..............................
........................................................................
   1   -190.6254642 -0.190625E+03  0.139E-01    1.11       0.0  T
   2   -190.6254790 -0.147562E-04  0.774E-02    1.11       1.0  T
   3   -190.6254723  0.669335E-05  0.131E-02    1.11       1.0  T
   4   -190.6254804 -0.810874E-05  0.801E-03    1.11       1.2  T
   5   -190.6254847 -0.426537E-05  0.284E-03    1.11       3.3  T
   6   -190.6254855 -0.824616E-06  0.978E-04    1.11       9.7  T
   7   -190.6254855 -0.388598E-07  0.573E-04    1.11      16.5  T
     SCC iter.                  ...        0 min,  0.300 sec
     gradient                   ...        0 min,  0.048 sec
 * total energy  :  -187.6328888 Eh     change       -0.4811812E-03 Eh
   gradient norm :     0.0052368 Eh/α   predicted    -0.4321756E-03 ( -10.18%)
   displ. norm   :     0.7553682 α      lambda       -0.5683427E-03
   maximum displ.:     0.4210831 α      in ANC's #7, #8, #5, ...

........................................................................
.............................. CYCLE   55 ..............................
........................................................................
   1   -190.6303690 -0.190630E+03  0.129E-01    1.11       0.0  T
   2   -190.6303824 -0.134318E-04  0.717E-02    1.11       1.0  T
   3   -190.6303804  0.202366E-05  0.111E-02    1.11       1.0  T
   4   -190.6303840 -0.366223E-05  0.680E-03    1.11       1.4  T
   5   -190.6303864 -0.237120E-05  0.315E-03    1.11       3.0  T
   6   -190.6303876 -0.125075E-05  0.911E-04    1.11      10.4  T
   7   -190.6303877 -0.514268E-07  0.474E-04    1.11      19.9  T
     SCC iter.                  ...        0 min,  0.223 sec
     gradient                   ...        0 min,  0.034 sec
 * total energy  :  -187.6333349 Eh     change       -0.4461461E-03 Eh
   gradient norm :     0.0066490 Eh/α   predicted    -0.4463147E-03 (   0.04%)
   displ. norm   :     0.8695939 α      lambda       -0.5219608E-03
   maximum displ.:     0.4732672 α      in ANC's #7, #8, #5, ...

........................................................................
.............................. CYCLE   56 ..............................
........................................................................
   1   -190.6218364 -0.190622E+03  0.158E-01    1.11       0.0  T
   2   -190.6218560 -0.195343E-04  0.883E-02    1.11       1.0  T
   3   -190.6218503  0.566452E-05  0.142E-02    1.11       1.0  T
   4   -190.6218579 -0.762695E-05  0.902E-03    1.11       1.0  T
   5   -190.6218633 -0.539262E-05  0.306E-03    1.11       3.1  T
   6   -190.6218642 -0.895956E-06  0.117E-03    1.11       8.1  T
   7   -190.6218643 -0.675429E-07  0.641E-04    1.11      14.7  T
     SCC iter.                  ...        0 min,  0.365 sec
     gradient                   ...        0 min,  0.036 sec
 * total energy  :  -187.6337794 Eh     change       -0.4444527E-03 Eh
   gradient norm :     0.0063555 Eh/α   predicted    -0.4583352E-03 (   3.12%)
   displ. norm   :     0.7603578 α      lambda       -0.4665534E-03
   maximum displ.:     0.4197375 α      in ANC's #7, #8, #5, ...

........................................................................
.............................. CYCLE   57 ..............................
........................................................................
   1   -190.6216154 -0.190622E+03  0.132E-01    1.11       0.0  T
   2   -190.6216284 -0.130114E-04  0.733E-02    1.11       1.0  T
   3   -190.6216201  0.832939E-05  0.132E-02    1.11       1.0  T
   4   -190.6216281 -0.804755E-05  0.855E-03    1.11       1.1  T
   5   -190.6216334 -0.529311E-05  0.262E-03    1.11       3.6  T
   6   -190.6216341 -0.709258E-06  0.984E-04    1.11       9.6  T
   7   -190.6216342 -0.548723E-07  0.518E-04    1.11      18.2  T
     SCC iter.                  ...        0 min,  0.442 sec
     gradient                   ...        0 min,  0.027 sec
 * total energy  :  -187.6341778 Eh     change       -0.3984291E-03 Eh
   gradient norm :     0.0059353 Eh/α   predicted    -0.3681454E-03 (  -7.60%)
   displ. norm   :     0.7719863 α      lambda       -0.4676056E-03
   maximum displ.:     0.4275279 α      in ANC's #7, #8, #5, ...

........................................................................
.............................. CYCLE   58 ..............................
........................................................................
   1   -190.6224842 -0.190622E+03  0.132E-01    1.11       0.0  T
   2   -190.6224972 -0.129430E-04  0.732E-02    1.11       1.0  T
   3   -190.6224901  0.704193E-05  0.129E-02    1.10       1.0  T
   4   -190.6224964 -0.626909E-05  0.860E-03    1.11       1.1  T
   5   -190.6225020 -0.562387E-05  0.254E-03    1.11       3.7  T
   6   -190.6225027 -0.652374E-06  0.988E-04    1.11       9.6  T
   7   -190.6225027 -0.608215E-07  0.501E-04    1.11      18.9  T
     SCC iter.                  ...        0 min,  0.343 sec
     gradient                   ...        0 min,  0.047 sec
 * total energy  :  -187.6345736 Eh     change       -0.3957778E-03 Eh
   gradient norm :     0.0050450 Eh/α   predicted    -0.3731428E-03 (  -5.72%)
   displ. norm   :     0.7724929 α      lambda       -0.4175635E-03
   maximum displ.:     0.4261842 α      in ANC's #7, #8, #5, ...

........................................................................
.............................. CYCLE   59 ..............................
........................................................................
   1   -190.6258072 -0.190626E+03  0.131E-01    1.10       0.0  T
   2   -190.6258200 -0.127947E-04  0.723E-02    1.10       1.0  T
   3   -190.6258092  0.108125E-04  0.137E-02    1.10       1.0  T
   4   -190.6258172 -0.798682E-05  0.917E-03    1.11       1.0  T
   5   -190.6258248 -0.758296E-05  0.291E-03    1.10       3.3  T
   6   -190.6258256 -0.831658E-06  0.914E-04    1.10      10.3  T
   7   -190.6258256 -0.403981E-07  0.524E-04    1.10      18.0  T
     SCC iter.                  ...        0 min,  0.277 sec
     gradient                   ...        0 min,  0.039 sec
 * total energy  :  -187.6349309 Eh     change       -0.3572971E-03 Eh
   gradient norm :     0.0042513 Eh/α   predicted    -0.3333736E-03 (  -6.70%)
   displ. norm   :     0.8669543 α      lambda       -0.3999389E-03
   maximum displ.:     0.4811312 α      in ANC's #7, #8, #5, ...

........................................................................
.............................. CYCLE   60 ..............................
........................................................................
   1   -190.6212743 -0.190621E+03  0.148E-01    1.10       0.0  T
   2   -190.6212913 -0.169638E-04  0.821E-02    1.10       1.0  T
   3   -190.6212822  0.906216E-05  0.148E-02    1.10       1.0  T
   4   -190.6212929 -0.106546E-04  0.869E-03    1.10       1.1  T
   5   -190.6212975 -0.462664E-05  0.328E-03    1.10       2.9  T
   6   -190.6212986 -0.106075E-05  0.107E-03    1.10       8.9  T
   7   -190.6212986 -0.578418E-07  0.608E-04    1.10      15.5  T
     SCC iter.                  ...        0 min,  0.245 sec
     gradient                   ...        0 min,  0.025 sec
 * total energy  :  -187.6352760 Eh     change       -0.3451852E-03 Eh
   gradient norm :     0.0049697 Eh/α   predicted    -0.3502726E-03 (   1.47%)
   displ. norm   :     0.7327688 α      lambda       -0.4028132E-03
   maximum displ.:     0.3935262 α      in ANC's #7, #8, #5, ...

........................................................................
.............................. CYCLE   61 ..............................
........................................................................
   1   -190.6296377 -0.190630E+03  0.126E-01    1.10       0.0  T
   2   -190.6296507 -0.130006E-04  0.692E-02    1.10       1.0  T
   3   -190.6296334  0.172936E-04  0.159E-02    1.09       1.0  T
   4   -190.6296536 -0.201444E-04  0.762E-03    1.10       1.2  T
   5   -190.6296559 -0.228619E-05  0.352E-03    1.10       2.7  T
   6   -190.6296571 -0.119100E-05  0.102E-03    1.10       9.2  T
   7   -190.6296571 -0.815305E-07  0.536E-04    1.10      17.6  T
     SCC iter.                  ...        0 min,  0.290 sec
     gradient                   ...        0 min,  0.047 sec
 * total energy  :  -187.6355650 Eh     change       -0.2889370E-03 Eh
   gradient norm :     0.0059716 Eh/α   predicted    -0.3095537E-03 (   7.14%)
   displ. norm   :     0.7852681 α      lambda       -0.3672976E-03
   maximum displ.:     0.4407673 α      in ANC's #7, #8, #5, ...

........................................................................
.............................. CYCLE   62 ..............................
........................................................................
   1   -190.6226118 -0.190623E+03  0.140E-01    1.09       0.0  T
   2   -190.6226276 -0.157653E-04  0.777E-02    1.09       1.0  T
   3   -190.6225439  0.837075E-04  0.262E-02    1.09       1.0  T
   4   -190.6226354 -0.914781E-04  0.873E-03    1.09       1.1  T
   5   -190.6226386 -0.318652E-05  0.381E-03    1.09       2.5  T
[...]
    55   6 C      1.953     0.123    28.051     8.553
    56   7 N      0.911    -0.245    26.374     7.428
    57   6 C      1.950     0.120    28.133     8.566
    58   7 N      0.911    -0.243    26.348     7.424
    59   6 C      3.023     0.002    27.957     8.673
    60   6 C      3.036    -0.022    28.526     8.760
    61   6 C      2.864     0.225    23.287     7.910
    62   8 O      0.856    -0.396    21.605     6.232
    63   6 C      2.913    -0.020    28.503     8.755
    64   6 C      2.988     0.017    27.628     8.622
    65   6 C      2.987     0.019    27.580     8.615
    66   6 C      2.915    -0.033    28.819     8.803
    67   6 C      2.919    -0.030    28.754     8.793
    68   6 C      2.916    -0.024    28.606     8.770
    69   6 C      2.916    -0.025    28.617     8.772
    70   6 C      2.918    -0.031    28.768     8.795
    71   1 H      0.926     0.061     2.191     2.315
    72   1 H      0.924     0.077     2.008     2.216
    73   1 H      0.924     0.048     2.350     2.397
    74   1 H      0.925     0.053     2.288     2.365
    75   1 H      0.925     0.050     2.314     2.379
    76   1 H      0.925     0.045     2.385     2.415
    77   1 H      0.924     0.042     2.420     2.433
    78   1 H      0.924     0.081     1.970     2.195
    79   1 H      0.925     0.043     2.404     2.425
    80   1 H      0.925     0.048     2.350     2.397
    81   1 H      0.925     0.051     2.311     2.378
    82   1 H      0.925     0.076     2.025     2.225
    83   1 H      0.926     0.057     2.229     2.334
    84   1 H      0.926     0.046     2.365     2.405
    85   1 H      0.925     0.053     2.278     2.360
    86   1 H      0.926     0.060     2.193     2.316
    87   1 H      0.925     0.085     1.926     2.170
    88   1 H      0.924     0.048     2.347     2.396
    89   1 H      0.924     0.043     2.405     2.425
    90   1 H      0.923     0.008     2.931     2.677
    91   1 H      0.860     0.136     1.501     1.919
    92   1 H      0.860     0.138     1.485     1.909
    93   1 H      0.925     0.086     1.921     2.167
    94   1 H      0.925     0.045     2.379     2.412
    95   1 H      0.924     0.037     2.492     2.469
    96   1 H      0.923     0.005     2.966     2.693
    97   1 H      0.860     0.139     1.481     1.907
    98   1 H      0.860     0.138     1.489     1.911
    99   1 H      0.925     0.046     2.365     2.405
   100   1 H      0.926     0.057     2.234     2.337
   101   1 H      0.926     0.045     2.380     2.412
   102   1 H      0.924     0.064     2.153     2.294
   103   1 H      0.925     0.076     2.016     2.220
   104   1 H      0.924     0.060     2.198     2.318
   105   1 H      0.926     0.100     1.784     2.089
   106   1 H      0.925     0.068     2.108     2.270
   107   1 H      0.926     0.056     2.248     2.344
   108   1 H      0.926     0.055     2.254     2.348
   109   1 H      0.926     0.046     2.375     2.410
   110   1 H      0.926     0.041     2.439     2.442
   111   1 H      0.926     0.039     2.455     2.450
   112   1 H      0.926     0.041     2.436     2.441

 Mol. C6AA /au·bohr⁶  :     200434.874160
 Mol. C8AA /au·bohr⁸  :    5414789.962100
 Mol. α(0) /au        :        711.960309


Wiberg/Mayer (AO) data.
largest (>0.10) Wiberg bond orders for each atom
          total WBO             WBO to atom ...
     1  C   3.915        C    8 1.488    N    2 1.248    H   71 0.964
     2  N   3.586        C    1 1.248    C    5 1.047    C    3 0.987    O    6 0.110
     3  C   3.965        C    4 1.006    N    2 0.987    H   73 0.970    H   72 0.966
     4  C   3.990        C    3 1.006    H   74 0.987    H   76 0.987    H   75 0.984
     5  C   3.938        O    6 1.661    C    7 1.101    N    2 1.047
     6  O   1.992        C    5 1.661    N    2 0.110
     7  C   3.933        C   14 1.370    C    8 1.166    C    5 1.101
     8  C   3.968        C    1 1.488    C    7 1.166    C    9 1.076
     9  C   3.949        O   10 1.684    C    8 1.076    N   11 1.069
    10  O   2.022        C    9 1.684    N   11 0.125
    11  N   3.553        C   14 1.168    C    9 1.069    C   12 0.988    O   10 0.125
    12  C   3.964        C   13 1.007    N   11 0.988    H   77 0.962    H   78 0.962
    13  C   3.991        C   12 1.007    H   81 0.987    H   80 0.984    H   79 0.984
    14  C   3.963        C    7 1.370    C   15 1.197    N   11 1.168
    15  C   3.958        C   16 1.627    C   14 1.197    H   82 0.950
    16  C   3.958        C   15 1.627    C   17 1.207    H   83 0.948
    17  C   3.927        C   21 1.456    C   16 1.207    S   18 1.112
    18  S   2.583        C   19 1.159    C   17 1.112
    19  C   3.928        C   20 1.328    C   24 1.232    S   18 1.159
    20  C   3.941        C   19 1.328    C   21 1.295    C   22 1.118
    21  C   3.945        C   17 1.456    C   20 1.295    H   84 0.964
    22  C   3.946        N   23 2.763    C   20 1.118
    23  N   2.986        C   22 2.763
    24  C   3.955        C   25 1.595    C   19 1.232    H   85 0.956
    25  C   3.959        C   24 1.595    C   26 1.233    H   86 0.943
    26  C   3.924        C   28 1.390    C   25 1.233    S   27 1.114
    27  S   2.545        C   36 1.116    C   26 1.114
    28  C   3.945        C   26 1.390    C   32 1.321    C   29 1.016
    29  C   3.990        C   28 1.016    C   30 0.978    H   88 0.964    H   87 0.958
    30  C   3.983        N   31 1.027    C   29 0.978    H   89 0.975    H   90 0.968
    31  N   3.008        C   30 1.027    H   92 0.967    H   91 0.967
    32  C   3.945        C   36 1.401    C   28 1.321    C   33 1.015
    33  C   3.990        C   32 1.015    C   34 0.980    H   94 0.961    H   93 0.958
    34  C   3.985        N   35 1.026    C   33 0.980    H   95 0.976    H   96 0.967
    35  N   3.007        C   34 1.026    H   98 0.967    H   97 0.966
    36  C   3.915        C   32 1.401    C   37 1.216    S   27 1.116
    37  C   3.950        C   38 1.615    C   36 1.216    H   99 0.958
    38  C   3.951        C   37 1.615    C   39 1.208    H  100 0.953
    39  C   3.902        C   43 1.452    C   38 1.208    S   40 1.104
    40  S   2.516        C   41 1.119    C   39 1.104
    41  C   3.920        C   47 1.330    C   42 1.249    S   40 1.119
    42  C   3.922        C   43 1.303    C   41 1.249    N   44 1.167
    43  C   3.937        C   39 1.452    C   42 1.303    H  101 0.959
    44  N   3.573        C   42 1.167    C   46 1.151    C   45 1.001
    45  C   3.965        N   44 1.001    H  103 0.978    H  102 0.977    H  104 0.972
    46  C   3.931        C   50 1.351    C   47 1.222    N   44 1.151
    47  C   3.928        C   41 1.330    C   46 1.222    S   48 1.152
    48  S   2.533        C   47 1.152    C   49 1.064
    49  C   3.914        C   50 1.397    C   51 1.293    S   48 1.064
    50  C   3.947        C   49 1.397    C   46 1.351    H  105 0.934
    51  C   3.944        C   52 1.498    C   49 1.293    H  106 0.941
    52  C   3.945        C   51 1.498    C   53 1.141    C   61 1.049
    53  C   3.970        C   54 1.479    C   52 1.141    C   59 1.088
    54  C   3.930        C   53 1.479    C   57 1.099    C   55 1.097
    55  C   3.944        N   56 2.758    C   54 1.097
    56  N   2.966        C   55 2.758
    57  C   3.945        N   58 2.748    C   54 1.099
    58  N   2.962        C   57 2.748
    59  C   3.983        C   66 1.503    C   60 1.201    C   53 1.088
    60  C   3.982        C   63 1.523    C   59 1.201    C   61 1.028
    61  C   3.918        O   62 1.728    C   52 1.049    C   60 1.028
    62  O   2.026        C   61 1.728
    63  C   3.979        C   60 1.523    C   64 1.269    H  107 0.964
    64  C   3.980        C   70 1.290    C   63 1.269    C   65 1.241
    65  C   3.983        C   67 1.287    C   66 1.273    C   64 1.241
    66  C   3.971        C   59 1.503    C   65 1.273    H  108 0.958
    67  C   3.979        C   68 1.545    C   65 1.287    H  109 0.967    C   70 0.113
    68  C   3.981        C   67 1.545    C   69 1.328    H  110 0.970
    69  C   3.977        C   70 1.543    C   68 1.328    H  111 0.970
    70  C   3.982        C   69 1.543    C   64 1.290    H  112 0.968    C   67 0.113
    71  H   0.996        C    1 0.964
    72  H   0.993        C    3 0.966
    73  H   0.996        C    3 0.970
    74  H   0.997        C    4 0.987
    75  H   0.997        C    4 0.984
    76  H   0.998        C    4 0.987
    77  H   0.997        C   12 0.962
    78  H   0.993        C   12 0.962
    79  H   0.998        C   13 0.984
    80  H   0.997        C   13 0.984
    81  H   0.997        C   13 0.987
    82  H   0.994        C   15 0.950
    83  H   0.996        C   16 0.948
    84  H   0.997        C   21 0.964
    85  H   0.997        C   24 0.956
    86  H   0.996        C   25 0.943
    87  H   0.991        C   29 0.958
    88  H   0.997        C   29 0.964
    89  H   0.997        C   30 0.975
    90  H   1.000        C   30 0.968
    91  H   0.982        N   31 0.967
    92  H   0.981        N   31 0.967
    93  H   0.992        C   33 0.958
    94  H   0.997        C   33 0.961
    95  H   0.998        C   34 0.976
    96  H   1.000        C   34 0.967
    97  H   0.981        N   35 0.966
    98  H   0.981        N   35 0.967
    99  H   0.997        C   37 0.958
   100  H   0.996        C   38 0.953
   101  H   0.997        C   43 0.959
   102  H   0.994        C   45 0.977
   103  H   0.993        C   45 0.978
   104  H   0.993        C   45 0.972
   105  H   0.989        C   50 0.934
   106  H   0.994        C   51 0.941
   107  H   0.996        C   63 0.964
   108  H   0.996        C   66 0.958
   109  H   0.997        C   67 0.967
   110  H   0.998        C   68 0.970
   111  H   0.998        C   69 0.970
   112  H   0.998        C   70 0.968

molecular dipole:
                 x           y           z       tot (Debye)
 q only:       -1.339      -1.199       0.746
   full:       -2.355      -1.655       1.741       8.551
molecular quadrupole (traceless):
                xx          xy          yy          xz          yz          zz
 q only:       79.918    -126.109    -179.884     -24.885      54.789      99.966
  q+dip:       93.914    -169.596    -203.442     -31.669      98.672     109.528
   full:       98.963    -172.581    -209.375     -18.136      95.287     110.412

           -------------------------------------------------
          |                Geometry Summary                 |
           -------------------------------------------------

      molecular mass/u    :      991.2286000
   center of mass at/Å    :       -3.1088151      14.1235247       1.4351675
  moments of inertia/u·Å² :        0.1424536E+05   0.8762024E+05   0.1008786E+06
rotational constants/cm⁻¹ :        0.1183377E-02   0.1923943E-03   0.1671081E-03

 * 111 selected distances

     #   Z        #   Z                                     value/Å
     1   6 C      2   7 N                                 1.3595190
     2   7 N      3   6 C                                 1.4407391
     3   6 C      4   6 C                                 1.5267248
     2   7 N      5   6 C                                 1.4176732
     5   6 C      6   8 O                                 1.2148917
     5   6 C      7   6 C                                 1.4403099
     1   6 C      8   6 C                                 1.3669595
     7   6 C      8   6 C                                 1.4297096
     8   6 C      9   6 C                                 1.4461291
     9   6 C     10   8 O                                 1.2110896
     9   6 C     11   7 N                                 1.4148184
    11   7 N     12   6 C                                 1.4421851
    12   6 C     13   6 C                                 1.5269822
     7   6 C     14   6 C                                 1.3869020
    11   7 N     14   6 C                                 1.3805833
    14   6 C     15   6 C                                 1.4207713
    15   6 C     16   6 C                                 1.3544976
    16   6 C     17   6 C                                 1.4194871
    17   6 C     18  16 S                                 1.7463128
    18  16 S     19   6 C                                 1.7366134
    19   6 C     20   6 C                                 1.3994920
    17   6 C     21   6 C                                 1.3774864
    20   6 C     21   6 C                                 1.4052216
    22   6 C     23   7 N                                 1.1489999
    19   6 C     24   6 C                                 1.4151691
    24   6 C     25   6 C                                 1.3575942
    25   6 C     26   6 C                                 1.4137251
    26   6 C     27  16 S                                 1.7393813
    26   6 C     28   6 C                                 1.3913977
    28   6 C     29   6 C                                 1.4966167
    29   6 C     30   6 C                                 1.5373371
    30   6 C     31   7 N                                 1.4540102
    28   6 C     32   6 C                                 1.4094702
    33   6 C     34   6 C                                 1.5372397
    34   6 C     35   7 N                                 1.4539084
    27  16 S     36   6 C                                 1.7471502 (max)
    32   6 C     36   6 C                                 1.3917850
    36   6 C     37   6 C                                 1.4219017
    37   6 C     38   6 C                                 1.3551659
    38   6 C     39   6 C                                 1.4210378
    40  16 S     41   6 C                                 1.7221051
    41   6 C     42   6 C                                 1.4166884
    39   6 C     43   6 C                                 1.3829024
    42   6 C     43   6 C                                 1.3952468
    42   6 C     44   7 N                                 1.3673786
    44   7 N     45   6 C                                 1.4364929
    44   7 N     46   6 C                                 1.3717064
    41   6 C     47   6 C                                 1.3899742
    46   6 C     47   6 C                                 1.4231852
    47   6 C     48  16 S                                 1.7145760
    46   6 C     50   6 C                                 1.3853598
    49   6 C     50   6 C                                 1.3897148
    49   6 C     51   6 C                                 1.4027775
    51   6 C     52   6 C                                 1.3739126
    53   6 C     54   6 C                                 1.3728638
    55   6 C     56   7 N                                 1.1487034
    57   6 C     58   7 N                                 1.1492567
    59   6 C     60   6 C                                 1.4218459
    61   6 C     62   8 O                                 1.2177611
    60   6 C     63   6 C                                 1.3646185
    63   6 C     64   6 C                                 1.4129101
    64   6 C     65   6 C                                 1.4240781
    59   6 C     66   6 C                                 1.3694675
    65   6 C     66   6 C                                 1.4143036
    65   6 C     67   6 C                                 1.4095664
    67   6 C     68   6 C                                 1.3683782
    68   6 C     69   6 C                                 1.4026530
    64   6 C     70   6 C                                 1.4085152
    69   6 C     70   6 C                                 1.3685765
     1   6 C     71   1 H                                 1.0744569
     3   6 C     72   1 H                                 1.0934077
     3   6 C     73   1 H                                 1.0941327
     4   6 C     74   1 H                                 1.0872275
     4   6 C     75   1 H                                 1.0863778
     4   6 C     76   1 H                                 1.0879131
    12   6 C     77   1 H                                 1.0933383
    12   6 C     78   1 H                                 1.0947718
    13   6 C     79   1 H                                 1.0877264
    13   6 C     80   1 H                                 1.0867311
    13   6 C     81   1 H                                 1.0872445
    15   6 C     82   1 H                                 1.0845870
    16   6 C     83   1 H                                 1.0791748
    21   6 C     84   1 H                                 1.0762656
    24   6 C     85   1 H                                 1.0828940
    25   6 C     86   1 H                                 1.0793350
    29   6 C     87   1 H                                 1.0886576
    29   6 C     88   1 H                                 1.0906898
    30   6 C     89   1 H                                 1.0922296
    30   6 C     90   1 H                                 1.1029081
    31   7 N     91   1 H                                 1.0152423
    31   7 N     92   1 H                                 1.0134510 (min)
    33   6 C     93   1 H                                 1.0893646
    33   6 C     94   1 H                                 1.0900912
    34   6 C     95   1 H                                 1.0932123
    34   6 C     96   1 H                                 1.1031601
    35   7 N     97   1 H                                 1.0150476
    35   7 N     98   1 H                                 1.0135504
    37   6 C     99   1 H                                 1.0827681
    38   6 C    100   1 H                                 1.0774864
    43   6 C    101   1 H                                 1.0738614
    45   6 C    102   1 H                                 1.0909013
    45   6 C    103   1 H                                 1.0879688
    45   6 C    104   1 H                                 1.0938352
    50   6 C    105   1 H                                 1.0740873
    51   6 C    106   1 H                                 1.0836933
    63   6 C    107   1 H                                 1.0800824
    66   6 C    108   1 H                                 1.0780133
    67   6 C    109   1 H                                 1.0802255
    68   6 C    110   1 H                                 1.0798072
    69   6 C    111   1 H                                 1.0799089
    70   6 C    112   1 H                                 1.0804179

 * 6 distinct bonds (by element types)

   Z      Z             #   av. dist./Å        max./Å        min./Å
   1 H    6 C          38     1.0860251     1.1031601     1.0738614
   6 C    6 C          46     1.4118837     1.5373371     1.3544976
   1 H    7 N           4     1.0143228     1.0152423     1.0134510
   6 C    7 N          14     1.3561411     1.4540102     1.1487034
   6 C    8 O           3     1.2145808     1.2177611     1.2110896
   6 C   16 S           6     1.7343565     1.7471502     1.7145760


optimized geometry written to: xtbopt.xyz


           -------------------------------------------------
          | TOTAL ENERGY             -187.651013007760 Eh   |
          | GRADIENT NORM               0.000632833320 Eh/α |
          | HOMO-LUMO GAP               0.968091988446 eV   |
           -------------------------------------------------

------------------------------------------------------------------------
 * finished run on 2021/09/14 at 23:24:24.521     
------------------------------------------------------------------------
 total:
 * wall-time:     0 d,  0 h,  4 min, 57.157 sec
 *  cpu-time:     0 d,  0 h, 38 min,  8.529 sec
 * ratio c/w:     7.701 speedup
 SCF:
 * wall-time:     0 d,  0 h,  0 min,  0.695 sec
 *  cpu-time:     0 d,  0 h,  0 min,  6.321 sec
 * ratio c/w:     9.097 speedup
 ANC optimizer:
 * wall-time:     0 d,  0 h,  4 min, 56.355 sec
 *  cpu-time:     0 d,  0 h, 38 min,  1.410 sec
 * ratio c/w:     7.698 speedup

