      -----------------------------------------------------------      
     |                   =====================                   |     
     |                           x T B                           |     
     |                   =====================                   |     
     |                         S. Grimme                         |     
     |          Mulliken Center for Theoretical Chemistry        |     
     |                    University of Bonn                     |     
     |                Version 6.2 RC2 (SAW190805)                |     
      -----------------------------------------------------------      

   This program is distributed in the hope that it will be useful,
   but WITHOUT ANY WARRANTY; without even the implied warranty of
   MERCHANTABILITY or FITNESS FOR A PARTICULAR PURPOSE.
   
   FOR NON-COMMERCIAL, ACADEMIA USE ONLY.
   
   Cite this work as:
   * S. Grimme, C. Bannwarth, P. Shushkov, J. Chem. Theory Comput., 2017,
     13, 1989-2009. DOI: 10.1021/acs.jctc.7b00118
   * C. Bannwarth, S. Ehlert and S. Grimme., J. Chem. Theory Comput., 2019,
     15, 1652-1671. DOI: 10.1021/acs.jctc.8b01176
   * P. Pracht, E. Caldeweyher, S. Ehlert, S. Grimme, ChemRxiv, 2019, preprint.
     DOI: 10.26434/chemrxiv.8326202.v1
   
   for DFT-D4:
   * E. Caldeweyher, C. Bannwarth and S. Grimme, J. Chem. Phys., 2017,
     147, 034112. DOI: 10.1063/1.4993215
   * E. Caldeweyher, S. Ehlert, A. Hansen, H. Neugebauer, S. Spicher,
     C. Bannwarth and S. Grimme, J. Chem. Phys., 2019, 150, 154122.
     DOI: 10.1063/1.5090222
   
   for sTDA-xTB:
   * S. Grimme and C. Bannwarth, J. Chem. Phys., 2016, 145, 054103.
     DOI: 10.1063/1.4959605
   
   in the mass-spec context:
   * V. Asgeirsson, C. Bauer and S. Grimme, Chem. Sci., 2017, 8, 4879.
     DOI: 10.1039/c7sc00601b
   
   for metadynamics refer to:
   * S. Grimme, J. Chem. Theory Comput., 2019, 155, 2847-2862
     DOI: 10.1021/acs.jctc.9b00143
   
   with help from (in alphabetical order)
   C. Bannwarth, F. Bohle, G. Brandenburg, E. Caldeweyher, M. Checinski,
   S. Dohm, S. Ehlert, S. Ehrlich, F. März, H. Neugebauer, J. Pisarek,
   P. Pracht, P. Shushkov, and S. Spicher.
   
 * started run on 2021/09/13 at 17:16:11.416     

           -------------------------------------------------
          |                Calculation Setup                |
           -------------------------------------------------

          program call               : /ihome/ghutchison/geoffh/xtb/xtb /ihome/ghutchison/blp62/GA/running_GA/v5/generations/4/580_834_102_454_834_02142.xyz -opt
          hostname                   : smp-n10
          coordinate file            : /ihome/ghutchison/blp62/GA/running_GA/v5/generations/4/580_834_102_454_834_02142.xyz
          omp threads                :                    12
          number of atoms            :                   109
          number of electrons        :                   328
          charge                     :                     0
          spin                       :                   0.0
          first test random number   :      0.87760057002122


########################################################################
# WARNING! Please study the warnings concerning your input carefully
#  - XTBPATH is not set, using XTBHOME instead
#  - the use of '-opt' is discouraged, please use '--opt' next time
########################################################################

           ------------------------------------------------- 
          |                 G F N 2 - x T B                 |
          | Geometry, Frequencies, Noncovalent interactions |
          |            JCTC 2019 parametrisation            |
           ------------------------------------------------- 
             KAB for C  - Si     :                1.0500
             KAB for H  - Pd     :                0.9500
             k(s)              :                1.8500
             k(p)              :                2.2300
             k(d)              :                2.2300
             k(f)              :                2.0000
             kEN (H0ij)        :               -2.0000
             D4 a1             :                0.5200
             D4 a2             :                5.0000
             D4 s6             :                1.0000
             D4 s8             :                2.7000
             D4 s9             :                5.0000
             alphaj            :                2.0000

  Z AO/shell   Hii/eV     exponent
  1     Wed Apr 25 08:07:45 CEST 2018   EN: 2.200 GM2: 0.406  GM3: 0.0800  RAES: 1.40
     1s    -10.707211    1.230000
  6     Wed Apr 25 08:07:45 CEST 2018   EN: 2.550 GM2: 0.538  GM3: 0.1500  RAES: 3.00
     2s    -13.970922    2.096432
     2p    -10.063292    1.800000
  7     Wed Apr 25 08:07:45 CEST 2018   EN: 3.040 GM2: 0.461  GM3:-0.0640  RAES: 1.90
     2s    -16.686243    2.339881
     2p    -12.523956    2.014332
  8     Wed Apr 25 08:07:45 CEST 2018   EN: 3.440 GM2: 0.452  GM3:-0.0517  RAES: 1.80
     2s    -20.229985    2.439742
     2p    -15.503117    2.137023
 16     Tue Apr 24 11:44:34 CEST 2018   EN: 2.580 GM2: 0.340  GM3:-0.0502  RAES: 3.10
     3s    -20.029654    1.981333
     3p    -11.377694    2.025643
     3d     -0.420282    1.702555

           ------------------------------------------------- 
          |        Self-Consistent Charge Iterations        |
           ------------------------------------------------- 

          ...................................................
          :                      SETUP                      :
          :.................................................:
          :  # basis functions                 334          :
          :  # atomic orbitals                 330          :
          :  # shells                          180          :
          :  # electrons                       328          :
          :  max. iterations                   250          :
          :  Hamiltonian                  GFN2-xTB          :
          :  restarted?                      false          :
          :  GBSA solvation                  false          :
          :  PC potential                    false          :
          :  electronic temp.          300.0000000     K    :
          :  accuracy                    1.0000000          :
          :  -> integral cutoff          0.2500000E+02      :
          :  -> integral neglect         0.1000000E-07      :
          :  -> SCF convergence          0.1000000E-05 Eh   :
          :  -> wf. convergence          0.1000000E-03 e    :
          :  Broyden damping             0.4000000          :
          ...................................................

 iter      E             dE          RMSdq      gap      omega  full diag
   1   -180.1744409 -0.180174E+03  0.427E+00    0.89       0.0  T
   2   -180.3473251 -0.172884E+00  0.257E+00    0.74       1.0  T
   3   -180.1524059  0.194919E+00  0.166E+00    0.42       1.0  T
   4   -180.2477425 -0.953366E-01  0.105E+00    0.52       1.0  T
   5   -180.4147037 -0.166961E+00  0.342E-01    0.64       1.0  T
   6   -180.4248458 -0.101421E-01  0.143E-01    0.54       1.0  T
   7   -180.4244734  0.372433E-03  0.109E-01    0.57       1.0  T
   8   -180.4258457 -0.137231E-02  0.552E-02    0.55       1.0  T
   9   -180.4261619 -0.316201E-03  0.216E-02    0.56       1.0  T
  10   -180.4261942 -0.323499E-04  0.123E-02    0.55       1.0  T
  11   -180.4262045 -0.103096E-04  0.547E-03    0.55       1.8  T
  12   -180.4262061 -0.158954E-05  0.264E-03    0.55       3.6  T
  13   -180.4262066 -0.484492E-06  0.119E-03    0.55       8.0  T
  14   -180.4262067 -0.876296E-07  0.783E-04    0.55      12.2  T
  15   -180.4262067 -0.444780E-07  0.357E-04    0.55      26.8  T

   *** convergence criteria satisfied after 15 iterations ***

         #    Occupation            Energy/Eh            Energy/eV
      -------------------------------------------------------------
         1        2.0000           -0.7366282             -20.0447
       ...           ...                  ...                  ...
       158        2.0000           -0.3805110             -10.3542
       159        2.0000           -0.3758727             -10.2280
       160        2.0000           -0.3629903              -9.8775
       161        2.0000           -0.3578275              -9.7370
       162        2.0000           -0.3529892              -9.6053
       163        2.0000           -0.3513165              -9.5598
       164        2.0000           -0.3429932              -9.3333 (HOMO)
       165        0.0000           -0.3226186              -8.7789 (LUMO)
       166                         -0.3010737              -8.1926
       167                         -0.2861912              -7.7877
       168                         -0.2805852              -7.6351
       169                         -0.2767784              -7.5315
       ...                                ...                  ...
       330                          0.7754010              21.0997
      -------------------------------------------------------------
                  HL-Gap            0.0203747 Eh            0.5544 eV
             Fermi-level           -0.3328058 Eh           -9.0561 eV

 SCC (total)                   0 d,  0 h,  0 min,  0.206 sec
 SCC setup                      ...        0 min,  0.002 sec (  1.036%)
 Dispersion                     ...        0 min,  0.005 sec (  2.265%)
 integral evaluation            ...        0 min,  0.019 sec (  9.214%)
 zeroth order Hamiltonian       ...        0 min,  0.001 sec (  0.535%)
 iterations                     ...        0 min,  0.161 sec ( 77.955%)
 molecular gradient             ...        0 min,  0.018 sec (  8.549%)
 printout                       ...        0 min,  0.001 sec (  0.403%)

         :::::::::::::::::::::::::::::::::::::::::::::::::::::
         ::                     SUMMARY                     ::
         :::::::::::::::::::::::::::::::::::::::::::::::::::::
         :: total energy            -177.712378171498 Eh    ::
         :: gradient norm              0.240698536894 Eh/a0 ::
         :: HOMO-LUMO gap              0.554423490734 eV    ::
         ::.................................................::
         :: SCC energy              -180.426206747583 Eh    ::
         :: -> isotropic ES            0.102861450208 Eh    ::
         :: -> anisotropic ES          0.014889307812 Eh    ::
         :: -> anisotropic XC          0.107511841239 Eh    ::
         :: -> dispersion             -0.155039384399 Eh    ::
         :: repulsion energy           2.714542839317 Eh    ::
         :: add. restraining           0.000000000000 Eh    ::
         :::::::::::::::::::::::::::::::::::::::::::::::::::::

      ----------------------------------------------------------- 
     |                   =====================                   |
     |                        A N C O P T                        |
     |                   =====================                   |
     |               Approximate Normal Coordinate               |
     |                Rational Function Optimizer                |
      ----------------------------------------------------------- 

          ...................................................
          :                      SETUP                      :
          :.................................................:
          :   optimization level            normal          :
          :   max. optcycles                   327          :
          :   ANC micro-cycles                  20          :
          :   degrees of freedom               321          :
          :.................................................:
          :   RF solver                   davidson          :
          :   input Hessian                  false          :
          :   write xtbopt.log                true          :
          :   linear?                        false          :
          :   energy convergence         0.5000000E-05 Eh   :
          :   grad. convergence          0.1000000E-02 Eh/α :
          :   maximium RF displ.         2.0000000          :
          :   Hlow (freq-cutoff)         0.5000000E-02      :
          :   Hmax (freq-cutoff)         5.0000000          :
          :   S6 in model hess.         20.0000000          :
          ...................................................

generating ANC from model Hessian ...
Using Lindh-Hessian (1995)
 Shifting diagonal of input Hessian by   4.982349420292387E-003
 Lowest  eigenvalues of input Hessian
   -0.000000   -0.000000   -0.000000   -0.000000   -0.000000    0.000000
    0.005000    0.005018    0.005028    0.005078    0.005087    0.005152
    0.005188    0.005287    0.005411    0.005512    0.005590    0.005724
 Highest eigenvalues
    2.104811    2.126169    2.185230    2.185609    2.359174    2.386178
 

........................................................................
.............................. CYCLE    1 ..............................
........................................................................
   1   -180.4262068 -0.180426E+03  0.176E-04    0.55       0.0  T
   2   -180.4262068  0.357034E-09  0.154E-04    0.55      62.1  T
   3   -180.4262068 -0.198642E-08  0.804E-05    0.55     119.1  T
     SCC iter.                  ...        0 min,  0.033 sec
     gradient                   ...        0 min,  0.018 sec
 * total energy  :  -177.7123782 Eh     change        0.2262937E-08 Eh
   gradient norm :     0.2406975 Eh/α   predicted     0.0000000E+00 (-100.00%)
   displ. norm   :     0.4614840 α      lambda       -0.6749459E-01
   maximum displ.:     0.1518905 α      in ANC's #93, #146, #147, ...

........................................................................
.............................. CYCLE    2 ..............................
........................................................................
   1   -180.5312324 -0.180531E+03  0.289E-01    0.64       0.0  T
   2   -180.5315243 -0.291849E-03  0.162E-01    0.62       1.0  T
   3   -180.5300238  0.150051E-02  0.134E-01    0.63       1.0  T
   4   -180.5318563 -0.183253E-02  0.460E-02    0.62       1.0  T
   5   -180.5320293 -0.173010E-03  0.211E-02    0.62       1.0  T
   6   -180.5320425 -0.131628E-04  0.127E-02    0.62       1.0  T
   7   -180.5320554 -0.129746E-04  0.684E-03    0.62       1.4  T
   8   -180.5320630 -0.756621E-05  0.184E-03    0.62       5.2  T
   9   -180.5320632 -0.201661E-06  0.108E-03    0.62       8.9  T
  10   -180.5320632 -0.349028E-07  0.533E-04    0.62      18.0  T
     SCC iter.                  ...        0 min,  0.104 sec
     gradient                   ...        0 min,  0.017 sec
 * total energy  :  -177.7621040 Eh     change       -0.4972584E-01 Eh
   gradient norm :     0.1116291 Eh/α   predicted    -0.4093446E-01 ( -17.68%)
   displ. norm   :     0.4734845 α      lambda       -0.2880070E-01
   maximum displ.:     0.1399806 α      in ANC's #93, #54, #63, ...

........................................................................
.............................. CYCLE    3 ..............................
........................................................................
   1   -180.5972072 -0.180597E+03  0.301E-01    0.66       0.0  T
   2   -180.5974217 -0.214471E-03  0.159E-01    0.66       1.0  T
   3   -180.5956313  0.179040E-02  0.129E-01    0.66       1.0  T
   4   -180.5975241 -0.189282E-02  0.448E-02    0.66       1.0  T
   5   -180.5977206 -0.196500E-03  0.220E-02    0.66       1.0  T
   6   -180.5977407 -0.201284E-04  0.143E-02    0.66       1.0  T
   7   -180.5977657 -0.249719E-04  0.449E-03    0.66       2.1  T
   8   -180.5977680 -0.227175E-05  0.147E-03    0.66       6.5  T
   9   -180.5977680 -0.450025E-07  0.936E-04    0.66      10.2  T
     SCC iter.                  ...        0 min,  0.094 sec
     gradient                   ...        0 min,  0.017 sec
 * total energy  :  -177.7798744 Eh     change       -0.1777039E-01 Eh
   gradient norm :     0.0309257 Eh/α   predicted    -0.1762873E-01 (  -0.80%)
   displ. norm   :     0.4742219 α      lambda       -0.6836996E-02
   maximum displ.:     0.1683736 α      in ANC's #54, #25, #35, ...

........................................................................
.............................. CYCLE    4 ..............................
........................................................................
   1   -180.6019713 -0.180602E+03  0.270E-01    0.64       0.0  T
   2   -180.6019266  0.447688E-04  0.136E-01    0.65       1.0  T
   3   -180.5989921  0.293441E-02  0.139E-01    0.64       1.0  T
   4   -180.6021673 -0.317514E-02  0.246E-02    0.65       1.0  T
   5   -180.6021932 -0.259359E-04  0.147E-02    0.65       1.0  T
   6   -180.6022058 -0.125470E-04  0.560E-03    0.65       1.7  T
   7   -180.6022095 -0.375847E-05  0.219E-03    0.65       4.4  T
   8   -180.6022100 -0.496377E-06  0.111E-03    0.65       8.7  T
     SCC iter.                  ...        0 min,  0.083 sec
     gradient                   ...        0 min,  0.017 sec
 * total energy  :  -177.7850380 Eh     change       -0.5163600E-02 Eh
   gradient norm :     0.0243257 Eh/α   predicted    -0.4187276E-02 ( -18.91%)
   displ. norm   :     0.5628425 α      lambda       -0.4800805E-02
   maximum displ.:     0.2090103 α      in ANC's #25, #54, #35, ...

........................................................................
.............................. CYCLE    5 ..............................
........................................................................
   1   -180.6021142 -0.180602E+03  0.255E-01    0.62       0.0  T
   2   -180.6019819  0.132280E-03  0.137E-01    0.63       1.0  T
   3   -180.5983486  0.363330E-02  0.157E-01    0.61       1.0  T
   4   -180.6022905 -0.394194E-02  0.266E-02    0.63       1.0  T
   5   -180.6023320 -0.414423E-04  0.162E-02    0.63       1.0  T
   6   -180.6023516 -0.196728E-04  0.639E-03    0.63       1.5  T
   7   -180.6023570 -0.533470E-05  0.252E-03    0.63       3.8  T
   8   -180.6023578 -0.865151E-06  0.104E-03    0.63       9.2  T
     SCC iter.                  ...        0 min,  0.083 sec
     gradient                   ...        0 min,  0.017 sec
 * total energy  :  -177.7886854 Eh     change       -0.3647376E-02 Eh
   gradient norm :     0.0195436 Eh/α   predicted    -0.3160831E-02 ( -13.34%)
   displ. norm   :     0.5642773 α      lambda       -0.3266314E-02
   maximum displ.:     0.2270450 α      in ANC's #25, #54, #45, ...

........................................................................
.............................. CYCLE    6 ..............................
........................................................................
   1   -180.6031411 -0.180603E+03  0.240E-01    0.59       0.0  T
   2   -180.6029936  0.147476E-03  0.132E-01    0.60       1.0  T
   3   -180.5994086  0.358507E-02  0.158E-01    0.59       1.0  T
   4   -180.6032909 -0.388231E-02  0.271E-02    0.60       1.0  T
   5   -180.6033446 -0.537410E-04  0.167E-02    0.60       1.0  T
   6   -180.6033688 -0.242039E-04  0.757E-03    0.60       1.3  T
   7   -180.6033771 -0.824277E-05  0.280E-03    0.60       3.4  T
   8   -180.6033782 -0.115122E-05  0.976E-04    0.60       9.8  T
   9   -180.6033783 -0.557509E-07  0.593E-04    0.60      16.2  T
     SCC iter.                  ...        0 min,  0.093 sec
     gradient                   ...        0 min,  0.021 sec
 * total energy  :  -177.7912067 Eh     change       -0.2521314E-02 Eh
   gradient norm :     0.0183309 Eh/α   predicted    -0.2153214E-02 ( -14.60%)
   displ. norm   :     0.5592656 α      lambda       -0.2689463E-02
   maximum displ.:     0.2258593 α      in ANC's #25, #42, #45, ...

........................................................................
.............................. CYCLE    7 ..............................
........................................................................
   1   -180.6072026 -0.180607E+03  0.229E-01    0.57       0.0  T
   2   -180.6070041  0.198558E-03  0.127E-01    0.57       1.0  T
   3   -180.6030032  0.400089E-02  0.165E-01    0.56       1.0  T
   4   -180.6073509 -0.434767E-02  0.265E-02    0.57       1.0  T
   5   -180.6074029 -0.520681E-04  0.166E-02    0.57       1.0  T
   6   -180.6074283 -0.254124E-04  0.835E-03    0.57       1.1  T
   7   -180.6074390 -0.106498E-04  0.291E-03    0.57       3.3  T
   8   -180.6074402 -0.125176E-05  0.103E-03    0.57       9.3  T
   9   -180.6074403 -0.691405E-07  0.633E-04    0.57      15.1  T
     SCC iter.                  ...        0 min,  0.091 sec
     gradient                   ...        0 min,  0.017 sec
 * total energy  :  -177.7932867 Eh     change       -0.2079974E-02 Eh
   gradient norm :     0.0170677 Eh/α   predicted    -0.1765335E-02 ( -15.13%)
   displ. norm   :     0.5904271 α      lambda       -0.2484559E-02
   maximum displ.:     0.2053523 α      in ANC's #25, #14, #42, ...

........................................................................
.............................. CYCLE    8 ..............................
........................................................................
   1   -180.6128533 -0.180613E+03  0.223E-01    0.54       0.0  T
   2   -180.6126739  0.179461E-03  0.123E-01    0.55       1.0  T
   3   -180.6085260  0.414785E-02  0.163E-01    0.54       1.0  T
   4   -180.6129712 -0.444517E-02  0.255E-02    0.55       1.0  T
   5   -180.6130176 -0.463956E-04  0.163E-02    0.55       1.0  T
   6   -180.6130432 -0.255876E-04  0.875E-03    0.55       1.1  T
   7   -180.6130558 -0.126478E-04  0.276E-03    0.55       3.5  T
   8   -180.6130569 -0.107073E-05  0.110E-03    0.55       8.7  T
   9   -180.6130570 -0.754632E-07  0.692E-04    0.55      13.8  T
     SCC iter.                  ...        0 min,  0.090 sec
     gradient                   ...        0 min,  0.017 sec
 * total energy  :  -177.7951772 Eh     change       -0.1890573E-02 Eh
   gradient norm :     0.0170788 Eh/α   predicted    -0.1675348E-02 ( -11.38%)
   displ. norm   :     0.6091422 α      lambda       -0.2297511E-02
   maximum displ.:     0.1802162 α      in ANC's #27, #25, #14, ...

........................................................................
.............................. CYCLE    9 ..............................
........................................................................
   1   -180.6170289 -0.180617E+03  0.218E-01    0.52       0.0  T
   2   -180.6168299  0.198952E-03  0.121E-01    0.53       1.0  T
   3   -180.6120984  0.473152E-02  0.168E-01    0.52       1.0  T
   4   -180.6171387 -0.504029E-02  0.234E-02    0.53       1.0  T
   5   -180.6171659 -0.272290E-04  0.160E-02    0.53       1.0  T
   6   -180.6171928 -0.268539E-04  0.899E-03    0.53       1.1  T
   7   -180.6172066 -0.137571E-04  0.262E-03    0.53       3.7  T
   8   -180.6172074 -0.882624E-06  0.112E-03    0.53       8.5  T
   9   -180.6172075 -0.670281E-07  0.715E-04    0.53      13.4  T
     SCC iter.                  ...        0 min,  0.090 sec
     gradient                   ...        0 min,  0.017 sec
 * total energy  :  -177.7969761 Eh     change       -0.1798835E-02 Eh
   gradient norm :     0.0159582 Eh/α   predicted    -0.1575006E-02 ( -12.44%)
   displ. norm   :     0.6412398 α      lambda       -0.2071471E-02
   maximum displ.:     0.2192114 α      in ANC's #27, #14, #9, ...

........................................................................
.............................. CYCLE   10 ..............................
........................................................................
   1   -180.6186029 -0.180619E+03  0.203E-01    0.51       0.0  T
   2   -180.6183640  0.238880E-03  0.116E-01    0.51       1.0  T
   3   -180.6132467  0.511732E-02  0.170E-01    0.51       1.0  T
   4   -180.6186985 -0.545176E-02  0.222E-02    0.51       1.0  T
   5   -180.6187226 -0.241492E-04  0.155E-02    0.51       1.0  T
   6   -180.6187537 -0.311115E-04  0.840E-03    0.51       1.1  T
   7   -180.6187649 -0.111868E-04  0.260E-03    0.51       3.7  T
   8   -180.6187657 -0.752287E-06  0.108E-03    0.51       8.8  T
   9   -180.6187657 -0.560117E-07  0.692E-04    0.51      13.9  T
     SCC iter.                  ...        0 min,  0.089 sec
     gradient                   ...        0 min,  0.017 sec
 * total energy  :  -177.7986965 Eh     change       -0.1720466E-02 Eh
   gradient norm :     0.0142176 Eh/α   predicted    -0.1461636E-02 ( -15.04%)
   displ. norm   :     0.7075172 α      lambda       -0.2061154E-02
   maximum displ.:     0.2397986 α      in ANC's #27, #18, #9, ...

........................................................................
.............................. CYCLE   11 ..............................
........................................................................
   1   -180.6150214 -0.180615E+03  0.198E-01    0.50       0.0  T
   2   -180.6149105  0.110892E-03  0.113E-01    0.50       1.0  T
   3   -180.6109379  0.397259E-02  0.148E-01    0.50       1.0  T
   4   -180.6150662 -0.412827E-02  0.218E-02    0.50       1.0  T
   5   -180.6150913 -0.250864E-04  0.155E-02    0.50       1.0  T
   6   -180.6151262 -0.348973E-04  0.733E-03    0.50       1.3  T
   7   -180.6151343 -0.810019E-05  0.250E-03    0.50       3.8  T
   8   -180.6151350 -0.744582E-06  0.824E-04    0.50      11.6  T
   9   -180.6151350 -0.207964E-07  0.542E-04    0.50      17.7  T
     SCC iter.                  ...        0 min,  0.089 sec
     gradient                   ...        0 min,  0.017 sec
 * total energy  :  -177.8001881 Eh     change       -0.1491563E-02 Eh
   gradient norm :     0.0201931 Eh/α   predicted    -0.1546464E-02 (   3.68%)
   displ. norm   :     0.6432985 α      lambda       -0.2596743E-02
   maximum displ.:     0.2343064 α      in ANC's #27, #18, #9, ...

........................................................................
.............................. CYCLE   12 ..............................
........................................................................
   1   -180.6270205 -0.180627E+03  0.167E-01    0.50       0.0  T
   2   -180.6269817  0.387866E-04  0.957E-02    0.50       1.0  T
   3   -180.6249152  0.206645E-02  0.101E-01    0.50       1.0  T
   4   -180.6269920 -0.207677E-02  0.272E-02    0.50       1.0  T
   5   -180.6270869 -0.948507E-04  0.129E-02    0.50       1.0  T
   6   -180.6271061 -0.192756E-04  0.513E-03    0.50       1.9  T
   7   -180.6271080 -0.190701E-05  0.302E-03    0.50       3.2  T
   8   -180.6271094 -0.136956E-05  0.931E-04    0.50      10.3  T
     SCC iter.                  ...        0 min,  0.080 sec
     gradient                   ...        0 min,  0.017 sec
 * total energy  :  -177.8010658 Eh     change       -0.8776664E-03 Eh
   gradient norm :     0.0249307 Eh/α   predicted    -0.1835679E-02 ( 109.15%)
   displ. norm   :     0.5061371 α      lambda       -0.2273242E-02
   maximum displ.:     0.1426099 α      in ANC's #27, #9, #14, ...

........................................................................
.............................. CYCLE   13 ..............................
........................................................................
   1   -180.6106640 -0.180611E+03  0.144E-01    0.48       0.0  T
   2   -180.6105699  0.941188E-04  0.850E-02    0.48       1.0  T
   3   -180.6082131  0.235679E-02  0.121E-01    0.49       1.0  T
   4   -180.6106602 -0.244711E-02  0.206E-02    0.48       1.0  T
   5   -180.6107190 -0.587417E-04  0.106E-02    0.48       1.0  T
   6   -180.6107347 -0.156842E-04  0.599E-03    0.48       1.6  T
   7   -180.6107406 -0.591944E-05  0.222E-03    0.48       4.3  T
   8   -180.6107412 -0.658942E-06  0.984E-04    0.48       9.7  T
     SCC iter.                  ...        0 min,  0.081 sec
     gradient                   ...        0 min,  0.017 sec
 * total energy  :  -177.8023759 Eh     change       -0.1310167E-02 Eh
   gradient norm :     0.0226092 Eh/α   predicted    -0.1427789E-02 (   8.98%)
   displ. norm   :     0.3976313 α      lambda       -0.1866468E-02
   maximum displ.:     0.1177414 α      in ANC's #19, #9, #18, ...

........................................................................
.............................. CYCLE   14 ..............................
........................................................................
   1   -180.6109903 -0.180611E+03  0.101E-01    0.48       0.0  T
   2   -180.6109491  0.412132E-04  0.617E-02    0.48       1.0  T
   3   -180.6099508  0.998333E-03  0.816E-02    0.48       1.0  T
   4   -180.6109711 -0.102033E-02  0.188E-02    0.48       1.0  T
   5   -180.6110243 -0.531906E-04  0.866E-03    0.48       1.1  T
   6   -180.6110348 -0.105415E-04  0.416E-03    0.48       2.3  T
   7   -180.6110370 -0.211466E-05  0.230E-03    0.48       4.2  T
   8   -180.6110380 -0.104092E-05  0.748E-04    0.48      12.8  T
     SCC iter.                  ...        0 min,  0.081 sec
     gradient                   ...        0 min,  0.017 sec
 * total energy  :  -177.8029306 Eh     change       -0.5546407E-03 Eh
   gradient norm :     0.0286428 Eh/α   predicted    -0.1080794E-02 (  94.86%)
   displ. norm   :     0.3539604 α      lambda       -0.2248793E-02
   maximum displ.:     0.1131954 α      in ANC's #19, #9, #18, ...

........................................................................
.............................. CYCLE   15 ..............................
........................................................................
   1   -180.6217536 -0.180622E+03  0.939E-02    0.49       0.0  T
   2   -180.6217474  0.622215E-05  0.537E-02    0.49       1.0  T
   3   -180.6210675  0.679849E-03  0.607E-02    0.48       1.0  T
   4   -180.6217565 -0.688976E-03  0.154E-02    0.49       1.0  T
   5   -180.6217777 -0.212453E-04  0.793E-03    0.49       1.2  T
   6   -180.6217833 -0.552475E-05  0.512E-03    0.48       1.9  T
   7   -180.6217883 -0.500185E-05  0.193E-03    0.48       5.0  T
     SCC iter.                  ...        0 min,  0.071 sec
     gradient                   ...        0 min,  0.017 sec
 * total energy  :  -177.8041213 Eh     change       -0.1190715E-02 Eh
   gradient norm :     0.0242870 Eh/α   predicted    -0.1265272E-02 (   6.26%)
   displ. norm   :     0.4691230 α      lambda       -0.2563359E-02
   maximum displ.:     0.1691575 α      in ANC's #19, #9, #18, ...

........................................................................
.............................. CYCLE   16 ..............................
........................................................................
   1   -180.6259859 -0.180626E+03  0.127E-01    0.49       0.0  T
   2   -180.6259735  0.123324E-04  0.734E-02    0.48       1.0  T
   3   -180.6249219  0.105167E-02  0.717E-02    0.49       1.0  T
   4   -180.6259748 -0.105297E-02  0.182E-02    0.49       1.0  T
   5   -180.6260178 -0.429647E-04  0.734E-03    0.49       1.3  T
   6   -180.6260216 -0.384716E-05  0.385E-03    0.49       2.5  T
   7   -180.6260236 -0.194168E-05  0.142E-03    0.49       6.7  T
     SCC iter.                  ...        0 min,  0.071 sec
     gradient                   ...        0 min,  0.017 sec
 * total energy  :  -177.8052728 Eh     change       -0.1151556E-02 Eh
   gradient norm :     0.0251816 Eh/α   predicted    -0.1563749E-02 (  35.79%)
   displ. norm   :     0.5566301 α      lambda       -0.1907237E-02
   maximum displ.:     0.1943988 α      in ANC's #19, #9, #14, ...

........................................................................
.............................. CYCLE   17 ..............................
........................................................................
   1   -180.6141155 -0.180614E+03  0.144E-01    0.48       0.0  T
   2   -180.6140880  0.274847E-04  0.828E-02    0.48       1.0  T
   3   -180.6126549  0.143319E-02  0.892E-02    0.49       1.0  T
   4   -180.6141261 -0.147123E-02  0.140E-02    0.48       1.0  T
   5   -180.6141332 -0.709550E-05  0.985E-03    0.48       1.0  T
   6   -180.6141473 -0.141437E-04  0.542E-03    0.48       1.8  T
   7   -180.6141534 -0.608800E-05  0.136E-03    0.48       7.0  T
   8   -180.6141536 -0.190956E-06  0.566E-04    0.48      16.9  T
   9   -180.6141536 -0.318933E-07  0.247E-04    0.48      38.9  T
     SCC iter.                  ...        0 min,  0.090 sec
     gradient                   ...        0 min,  0.017 sec
 * total energy  :  -177.8065341 Eh     change       -0.1261292E-02 Eh
   gradient norm :     0.0249437 Eh/α   predicted    -0.1249086E-02 (  -0.97%)
   displ. norm   :     0.5207789 α      lambda       -0.3082254E-02
   maximum displ.:     0.1974442 α      in ANC's #15, #24, #19, ...

........................................................................
.............................. CYCLE   18 ..............................
........................................................................
   1   -180.6346414 -0.180635E+03  0.163E-01    0.48       0.0  T
   2   -180.6346375  0.395223E-05  0.881E-02    0.48       1.0  T
   3   -180.6334483  0.118915E-02  0.797E-02    0.49       1.0  T
   4   -180.6346400 -0.119171E-02  0.213E-02    0.48       1.0  T
   5   -180.6346806 -0.405582E-04  0.147E-02    0.48       1.0  T
   6   -180.6347016 -0.209871E-04  0.716E-03    0.48       1.3  T
   7   -180.6347083 -0.676596E-05  0.225E-03    0.48       4.3  T
   8   -180.6347091 -0.767224E-06  0.953E-04    0.48      10.1  T
   9   -180.6347092 -0.116518E-06  0.490E-04    0.48      19.5  T
     SCC iter.                  ...        0 min,  0.090 sec
     gradient                   ...        0 min,  0.017 sec
 * total energy  :  -177.8067258 Eh     change       -0.1916348E-03 Eh
   gradient norm :     0.0373934 Eh/α   predicted    -0.1959100E-02 ( 922.31%)
   displ. norm   :     0.4449932 α      lambda       -0.3756572E-02
   maximum displ.:     0.1615758 α      in ANC's #19, #32, #18, ...

........................................................................
.............................. CYCLE   19 ..............................
........................................................................
   1   -180.6245242 -0.180625E+03  0.111E-01    0.48       0.0  T
   2   -180.6245262 -0.204922E-05  0.655E-02    0.49       1.0  T
   3   -180.6240874  0.438779E-03  0.492E-02    0.48       1.0  T
   4   -180.6245262 -0.438727E-03  0.137E-02    0.49       1.0  T
   5   -180.6245471 -0.209930E-04  0.700E-03    0.48       1.4  T
   6   -180.6245529 -0.576227E-05  0.362E-03    0.48       2.6  T
   7   -180.6245546 -0.166097E-05  0.180E-03    0.48       5.3  T
     SCC iter.                  ...        0 min,  0.070 sec
     gradient                   ...        0 min,  0.017 sec
 * total energy  :  -177.8086020 Eh     change       -0.1876211E-02 Eh
   gradient norm :     0.0259315 Eh/α   predicted    -0.2250222E-02 (  19.93%)
   displ. norm   :     0.4617969 α      lambda       -0.2489825E-02
   maximum displ.:     0.1840986 α      in ANC's #19, #15, #22, ...

........................................................................
.............................. CYCLE   20 ..............................
........................................................................
   1   -180.6132683 -0.180613E+03  0.128E-01    0.48       0.0  T
   2   -180.6132688 -0.522836E-06  0.748E-02    0.48       1.0  T
   3   -180.6125517  0.717147E-03  0.654E-02    0.48       1.0  T
   4   -180.6132340 -0.682313E-03  0.237E-02    0.48       1.0  T
   5   -180.6133193 -0.852544E-04  0.905E-03    0.48       1.1  T
   6   -180.6133284 -0.914110E-05  0.447E-03    0.48       2.1  T
   7   -180.6133306 -0.223099E-05  0.229E-03    0.48       4.2  T
   8   -180.6133315 -0.832033E-06  0.947E-04    0.48      10.1  T
     SCC iter.                  ...        0 min,  0.080 sec
     gradient                   ...        0 min,  0.017 sec
 * total energy  :  -177.8092905 Eh     change       -0.6885464E-03 Eh
   gradient norm :     0.0322821 Eh/α   predicted    -0.1510401E-02 ( 119.36%)
   displ. norm   :     0.4227649 α      lambda       -0.2272130E-02
   maximum displ.:     0.1569614 α      in ANC's #15, #19, #4, ...
 * RMSD in coord.:     0.7486518 α      energy gain  -0.9691236E-01 Eh

generating ANC from model Hessian ...
Using Lindh-Hessian (1995)
 Shifting diagonal of input Hessian by   4.992549102041385E-003
 Lowest  eigenvalues of input Hessian
   -0.000000   -0.000000   -0.000000    0.000000    0.000000    0.000000
    0.005000    0.005021    0.005030    0.005045    0.005088    0.005125
    0.005179    0.005290    0.005345    0.005484    0.005553    0.005718
 Highest eigenvalues
    2.144020    2.151236    2.156873    2.224336    2.390249    2.417347
 

........................................................................
.............................. CYCLE   21 ..............................
........................................................................
   1   -180.6214626 -0.180621E+03  0.101E-01    0.48       0.0  T
   2   -180.6214691 -0.644365E-05  0.578E-02    0.47       1.0  T
   3   -180.6213279  0.141242E-03  0.280E-02    0.48       1.0  T
   4   -180.6214685 -0.140644E-03  0.875E-03    0.47       1.1  T
   5   -180.6214754 -0.691745E-05  0.511E-03    0.48       1.9  T
   6   -180.6214773 -0.184864E-05  0.260E-03    0.47       3.7  T
   7   -180.6214779 -0.604540E-06  0.161E-03    0.47       5.9  T
   8   -180.6214784 -0.519369E-06  0.627E-04    0.47      15.3  T
   9   -180.6214784 -0.465556E-07  0.264E-04    0.47      36.3  T
     SCC iter.                  ...        0 min,  0.090 sec
     gradient                   ...        0 min,  0.018 sec
 * total energy  :  -177.8105751 Eh     change       -0.1284619E-02 Eh
   gradient norm :     0.0255046 Eh/α   predicted     0.0000000E+00 (-100.00%)
   displ. norm   :     0.3157740 α      lambda       -0.1822731E-02
   maximum displ.:     0.1387724 α      in ANC's #20, #30, #11, ...

........................................................................
.............................. CYCLE   22 ..............................
........................................................................
   1   -180.6301587 -0.180630E+03  0.103E-01    0.47       0.0  T
   2   -180.6301566  0.209206E-05  0.569E-02    0.47       1.0  T
   3   -180.6298420  0.314686E-03  0.476E-02    0.47       1.0  T
   4   -180.6301499 -0.307941E-03  0.139E-02    0.47       1.0  T
   5   -180.6301612 -0.112690E-04  0.100E-02    0.47       1.0  T
   6   -180.6301766 -0.154721E-04  0.356E-03    0.47       2.7  T
   7   -180.6301789 -0.226808E-05  0.868E-04    0.47      11.0  T
   8   -180.6301790 -0.764880E-07  0.395E-04    0.47      24.3  T
     SCC iter.                  ...        0 min,  0.082 sec
     gradient                   ...        0 min,  0.019 sec
 * total energy  :  -177.8119927 Eh     change       -0.1417509E-02 Eh
   gradient norm :     0.0092439 Eh/α   predicted    -0.1002241E-02 ( -29.30%)
   displ. norm   :     0.4183488 α      lambda       -0.1440722E-02
   maximum displ.:     0.1698593 α      in ANC's #20, #30, #16, ...

........................................................................
.............................. CYCLE   23 ..............................
........................................................................
   1   -180.6333703 -0.180633E+03  0.125E-01    0.47       0.0  T
   2   -180.6333640  0.633543E-05  0.737E-02    0.47       1.0  T
   3   -180.6328521  0.511905E-03  0.605E-02    0.47       1.0  T
   4   -180.6333519 -0.499840E-03  0.144E-02    0.47       1.0  T
   5   -180.6333807 -0.287800E-04  0.732E-03    0.47       1.3  T
   6   -180.6333898 -0.913431E-05  0.260E-03    0.47       3.7  T
   7   -180.6333908 -0.981074E-06  0.932E-04    0.47      10.3  T
   8   -180.6333909 -0.894125E-07  0.373E-04    0.47      25.7  T
     SCC iter.                  ...        0 min,  0.079 sec
     gradient                   ...        0 min,  0.017 sec
 * total energy  :  -177.8132030 Eh     change       -0.1210361E-02 Eh
   gradient norm :     0.0081588 Eh/α   predicted    -0.8464354E-03 ( -30.07%)
   displ. norm   :     0.7155136 α      lambda       -0.1941400E-02
   maximum displ.:     0.3056892 α      in ANC's #20, #30, #16, ...

........................................................................
.............................. CYCLE   24 ..............................
........................................................................
   1   -180.6282983 -0.180628E+03  0.201E-01    0.47       0.0  T
   2   -180.6282925  0.587563E-05  0.118E-01    0.47       1.0  T
   3   -180.6274631  0.829360E-03  0.788E-02    0.47       1.0  T
   4   -180.6282731 -0.809942E-03  0.176E-02    0.47       1.0  T
   5   -180.6283127 -0.396014E-04  0.100E-02    0.47       1.0  T
   6   -180.6283304 -0.177108E-04  0.360E-03    0.47       2.7  T
   7   -180.6283322 -0.180501E-05  0.125E-03    0.47       7.6  T
   8   -180.6283323 -0.132223E-06  0.580E-04    0.47      16.5  T
     SCC iter.                  ...        0 min,  0.079 sec
     gradient                   ...        0 min,  0.017 sec
 * total energy  :  -177.8146302 Eh     change       -0.1427133E-02 Eh
   gradient norm :     0.0204698 Eh/α   predicted    -0.1467802E-02 (   2.85%)
   displ. norm   :     0.5485002 α      lambda       -0.1550164E-02
   maximum displ.:     0.2140984 α      in ANC's #20, #16, #14, ...

........................................................................
.............................. CYCLE   25 ..............................
........................................................................
   1   -180.6257132 -0.180626E+03  0.154E-01    0.46       0.0  T
   2   -180.6257145 -0.134396E-05  0.904E-02    0.46       1.0  T
   3   -180.6254182  0.296338E-03  0.509E-02    0.47       1.0  T
   4   -180.6257259 -0.307704E-03  0.793E-03    0.46       1.2  T
   5   -180.6257294 -0.350259E-05  0.512E-03    0.46       1.9  T
   6   -180.6257307 -0.128979E-05  0.354E-03    0.46       2.7  T
     SCC iter.                  ...        0 min,  0.061 sec
     gradient                   ...        0 min,  0.017 sec
 * total energy  :  -177.8158297 Eh     change       -0.1199570E-02 Eh
   gradient norm :     0.0222319 Eh/α   predicted    -0.1008268E-02 ( -15.95%)
   displ. norm   :     0.5260806 α      lambda       -0.2055751E-02
   maximum displ.:     0.1998537 α      in ANC's #16, #14, #25, ...

........................................................................
.............................. CYCLE   26 ..............................
........................................................................
   1   -180.6335948 -0.180634E+03  0.133E-01    0.46       0.0  T
   2   -180.6336002 -0.537940E-05  0.768E-02    0.46       1.0  T
   3   -180.6334479  0.152291E-03  0.342E-02    0.46       1.0  T
   4   -180.6336034 -0.155463E-03  0.865E-03    0.46       1.1  T
   5   -180.6336086 -0.525614E-05  0.566E-03    0.46       1.7  T
   6   -180.6336121 -0.345551E-05  0.271E-03    0.46       3.5  T
     SCC iter.                  ...        0 min,  0.060 sec
     gradient                   ...        0 min,  0.017 sec
 * total energy  :  -177.8170857 Eh     change       -0.1255997E-02 Eh
   gradient norm :     0.0151991 Eh/α   predicted    -0.1312356E-02 (   4.49%)
   displ. norm   :     0.6984746 α      lambda       -0.1756394E-02
   maximum displ.:     0.2898582 α      in ANC's #20, #16, #11, ...

........................................................................
.............................. CYCLE   27 ..............................
........................................................................
   1   -180.6263378 -0.180626E+03  0.180E-01    0.46       0.0  T
   2   -180.6263355  0.231241E-05  0.105E-01    0.46       1.0  T
   3   -180.6256739  0.661544E-03  0.574E-02    0.46       1.0  T
   4   -180.6263140 -0.640037E-03  0.158E-02    0.46       1.0  T
   5   -180.6263539 -0.399549E-04  0.511E-03    0.46       1.9  T
   6   -180.6263549 -0.991241E-06  0.301E-03    0.46       3.2  T
   7   -180.6263563 -0.140494E-05  0.127E-03    0.46       7.5  T
   8   -180.6263566 -0.220266E-06  0.636E-04    0.46      15.1  T
     SCC iter.                  ...        0 min,  0.079 sec
     gradient                   ...        0 min,  0.017 sec
 * total energy  :  -177.8181795 Eh     change       -0.1093753E-02 Eh
   gradient norm :     0.0198408 Eh/α   predicted    -0.1306642E-02 (  19.46%)
   displ. norm   :     0.4412308 α      lambda       -0.1324915E-02
   maximum displ.:     0.1782675 α      in ANC's #11, #16, #14, ...

........................................................................
.............................. CYCLE   28 ..............................
........................................................................
   1   -180.6310951 -0.180631E+03  0.121E-01    0.46       0.0  T
   2   -180.6310775  0.175582E-04  0.718E-02    0.45       1.0  T
   3   -180.6303119  0.765592E-03  0.749E-02    0.46       1.0  T
   4   -180.6310953 -0.783370E-03  0.133E-02    0.45       1.0  T
   5   -180.6311057 -0.104042E-04  0.102E-02    0.45       1.0  T
   6   -180.6311255 -0.197685E-04  0.447E-03    0.45       2.1  T
   7   -180.6311278 -0.233050E-05  0.208E-03    0.45       4.6  T
   8   -180.6311285 -0.734886E-06  0.801E-04    0.45      12.0  T
     SCC iter.                  ...        0 min,  0.079 sec
     gradient                   ...        0 min,  0.017 sec
 * total energy  :  -177.8188942 Eh     change       -0.7147632E-03 Eh
   gradient norm :     0.0240269 Eh/α   predicted    -0.7914293E-03 (  10.73%)
   displ. norm   :     0.4543456 α      lambda       -0.1337347E-02
   maximum displ.:     0.1911245 α      in ANC's #11, #14, #16, ...

........................................................................
.............................. CYCLE   29 ..............................
........................................................................
   1   -180.6347058 -0.180635E+03  0.113E-01    0.46       0.0  T
   2   -180.6347061 -0.252588E-06  0.662E-02    0.45       1.0  T
   3   -180.6343405  0.365560E-03  0.440E-02    0.46       1.0  T
   4   -180.6346620 -0.321529E-03  0.170E-02    0.46       1.0  T
   5   -180.6347190 -0.569823E-04  0.445E-03    0.46       2.2  T
   6   -180.6347203 -0.125447E-05  0.213E-03    0.46       4.5  T
   7   -180.6347207 -0.463394E-06  0.134E-03    0.45       7.2  T
     SCC iter.                  ...        0 min,  0.070 sec
     gradient                   ...        0 min,  0.017 sec
 * total energy  :  -177.8197925 Eh     change       -0.8982408E-03 Eh
   gradient norm :     0.0134477 Eh/α   predicted    -0.8067094E-03 ( -10.19%)
   displ. norm   :     0.5544815 α      lambda       -0.1082367E-02
   maximum displ.:     0.2406700 α      in ANC's #11, #14, #16, ...

........................................................................
.............................. CYCLE   30 ..............................
........................................................................
   1   -180.6386947 -0.180639E+03  0.129E-01    0.46       0.0  T
   2   -180.6386954 -0.698499E-06  0.752E-02    0.45       1.0  T
   3   -180.6383232  0.372241E-03  0.411E-02    0.46       1.0  T
   4   -180.6386734 -0.350195E-03  0.137E-02    0.46       1.0  T
   5   -180.6387053 -0.318990E-04  0.638E-03    0.46       1.5  T
   6   -180.6387086 -0.330516E-05  0.374E-03    0.46       2.6  T
   7   -180.6387108 -0.220236E-05  0.123E-03    0.46       7.8  T
   8   -180.6387110 -0.152298E-06  0.578E-04    0.46      16.6  T
     SCC iter.                  ...        0 min,  0.079 sec
     gradient                   ...        0 min,  0.017 sec
 * total energy  :  -177.8204273 Eh     change       -0.6348563E-03 Eh
   gradient norm :     0.0152381 Eh/α   predicted    -0.7075716E-03 (  11.45%)
   displ. norm   :     0.5786983 α      lambda       -0.9035015E-03
   maximum displ.:     0.2674791 α      in ANC's #11, #14, #16, ...

........................................................................
.............................. CYCLE   31 ..............................
........................................................................
   1   -180.6332598 -0.180633E+03  0.142E-01    0.46       0.0  T
   2   -180.6332607 -0.841780E-06  0.831E-02    0.45       1.0  T
   3   -180.6329562  0.304413E-03  0.405E-02    0.46       1.0  T
   4   -180.6332431 -0.286877E-03  0.125E-02    0.45       1.0  T
   5   -180.6332695 -0.263397E-04  0.520E-03    0.45       1.8  T
   6   -180.6332707 -0.128244E-05  0.375E-03    0.46       2.6  T
   7   -180.6332731 -0.235747E-05  0.845E-04    0.45      11.3  T
   8   -180.6332732 -0.781309E-07  0.391E-04    0.45      24.5  T
     SCC iter.                  ...        0 min,  0.080 sec
     gradient                   ...        0 min,  0.017 sec
 * total energy  :  -177.8210012 Eh     change       -0.5738852E-03 Eh
   gradient norm :     0.0145171 Eh/α   predicted    -0.6030420E-03 (   5.08%)
   displ. norm   :     0.4307921 α      lambda       -0.1195328E-02
   maximum displ.:     0.2288855 α      in ANC's #11, #14, #1, ...

........................................................................
.............................. CYCLE   32 ..............................
........................................................................
   1   -180.6532844 -0.180653E+03  0.103E-01    0.46       0.0  T
   2   -180.6532706  0.138091E-04  0.595E-02    0.46       1.0  T
   3   -180.6525088  0.761788E-03  0.628E-02    0.47       1.0  T
   4   -180.6532752 -0.766334E-03  0.145E-02    0.46       1.0  T
   5   -180.6532996 -0.244216E-04  0.796E-03    0.46       1.2  T
   6   -180.6533066 -0.701363E-05  0.432E-03    0.46       2.2  T
   7   -180.6533089 -0.226521E-05  0.171E-03    0.46       5.6  T
   8   -180.6533092 -0.364317E-06  0.844E-04    0.46      11.4  T
     SCC iter.                  ...        0 min,  0.080 sec
     gradient                   ...        0 min,  0.017 sec
 * total energy  :  -177.8207518 Eh     change        0.2493972E-03 Eh
   gradient norm :     0.0326807 Eh/α   predicted    -0.7085837E-03 (-384.12%)
   displ. norm   :     0.3431478 α      lambda       -0.2154649E-02
   maximum displ.:     0.1372839 α      in ANC's #11, #24, #25, ...

........................................................................
.............................. CYCLE   33 ..............................
........................................................................
   1   -180.6366262 -0.180637E+03  0.989E-02    0.46       0.0  T
   2   -180.6366325 -0.634538E-05  0.589E-02    0.45       1.0  T
   3   -180.6364174  0.215182E-03  0.442E-02    0.46       1.0  T
   4   -180.6366356 -0.218212E-03  0.106E-02    0.45       1.0  T
   5   -180.6366461 -0.105025E-04  0.540E-03    0.46       1.8  T
   6   -180.6366480 -0.188920E-05  0.381E-03    0.46       2.5  T
   7   -180.6366506 -0.261362E-05  0.186E-03    0.46       5.1  T
     SCC iter.                  ...        0 min,  0.070 sec
     gradient                   ...        0 min,  0.017 sec
 * total energy  :  -177.8212903 Eh     change       -0.5384998E-03 Eh
   gradient norm :     0.0261083 Eh/α   predicted    -0.1204183E-02 ( 123.62%)
   displ. norm   :     0.2232667 α      lambda       -0.1939700E-02
   maximum displ.:     0.0804677 α      in ANC's #30, #36, #34, ...

........................................................................
.............................. CYCLE   34 ..............................
........................................................................
   1   -180.6373009 -0.180637E+03  0.627E-02    0.45       0.0  T
   2   -180.6372956  0.534563E-05  0.375E-02    0.46       1.0  T
   3   -180.6370793  0.216315E-03  0.451E-02    0.45       1.0  T
   4   -180.6373107 -0.231414E-03  0.121E-02    0.45       1.0  T
   5   -180.6373158 -0.514450E-05  0.954E-03    0.45       1.0  T
   6   -180.6373332 -0.173793E-04  0.361E-03    0.45       2.7  T
   7   -180.6373346 -0.138252E-05  0.195E-03    0.45       4.9  T
   8   -180.6373350 -0.462807E-06  0.101E-03    0.45       9.5  T
     SCC iter.                  ...        0 min,  0.079 sec
     gradient                   ...        0 min,  0.017 sec
 * total energy  :  -177.8211698 Eh     change        0.1205293E-03 Eh
   gradient norm :     0.0290410 Eh/α   predicted    -0.1018201E-02 (-944.77%)
   displ. norm   :     0.2429222 α      lambda       -0.1867201E-02
   maximum displ.:     0.0994901 α      in ANC's #11, #36, #24, ...

........................................................................
.............................. CYCLE   35 ..............................
........................................................................
   1   -180.6378859 -0.180638E+03  0.590E-02    0.45       0.0  T
   2   -180.6378939 -0.802101E-05  0.356E-02    0.45       1.0  T
   3   -180.6376766  0.217252E-03  0.372E-02    0.46       1.0  T
   4   -180.6378749 -0.198269E-03  0.130E-02    0.45       1.0  T
   5   -180.6379013 -0.263785E-04  0.548E-03    0.45       1.7  T
   6   -180.6379057 -0.442610E-05  0.261E-03    0.45       3.7  T
   7   -180.6379066 -0.902058E-06  0.141E-03    0.45       6.8  T
     SCC iter.                  ...        0 min,  0.070 sec
     gradient                   ...        0 min,  0.017 sec
 * total energy  :  -177.8217557 Eh     change       -0.5859065E-03 Eh
   gradient norm :     0.0229478 Eh/α   predicted    -0.9886952E-03 (  68.75%)
   displ. norm   :     0.2606523 α      lambda       -0.1532002E-02
   maximum displ.:     0.1261516 α      in ANC's #11, #20, #1, ...

........................................................................
.............................. CYCLE   36 ..............................
........................................................................
   1   -180.6473500 -0.180647E+03  0.775E-02    0.46       0.0  T
   2   -180.6472924  0.575992E-04  0.514E-02    0.45       1.0  T
   3   -180.6468184  0.474041E-03  0.646E-02    0.46       1.0  T
   4   -180.6473306 -0.512240E-03  0.203E-02    0.46       1.0  T
   5   -180.6473924 -0.618034E-04  0.103E-02    0.45       1.0  T
   6   -180.6474127 -0.202752E-04  0.278E-03    0.46       3.4  T
   7   -180.6474126  0.539663E-07  0.205E-03    0.45       4.7  T
   8   -180.6474132 -0.528423E-06  0.102E-03    0.46       9.4  T
     SCC iter.                  ...        0 min,  0.079 sec
     gradient                   ...        0 min,  0.017 sec
 * total energy  :  -177.8215214 Eh     change        0.2343222E-03 Eh
   gradient norm :     0.0306943 Eh/α   predicted    -0.8180448E-03 (-449.11%)
   displ. norm   :     0.2199240 α      lambda       -0.1628468E-02
   maximum displ.:     0.1024942 α      in ANC's #11, #30, #20, ...

........................................................................
.............................. CYCLE   37 ..............................
........................................................................
   1   -180.6392186 -0.180639E+03  0.564E-02    0.45       0.0  T
   2   -180.6392009  0.176505E-04  0.351E-02    0.45       1.0  T
   3   -180.6388589  0.342040E-03  0.496E-02    0.45       1.0  T
   4   -180.6392118 -0.352938E-03  0.117E-02    0.45       1.0  T
   5   -180.6392323 -0.204465E-04  0.574E-03    0.45       1.7  T
   6   -180.6392383 -0.602041E-05  0.178E-03    0.45       5.4  T
   7   -180.6392384 -0.743109E-07  0.119E-03    0.45       8.0  T
   8   -180.6392386 -0.193658E-06  0.550E-04    0.45      17.4  T
     SCC iter.                  ...        0 min,  0.079 sec
     gradient                   ...        0 min,  0.018 sec
 * total energy  :  -177.8223088 Eh     change       -0.7874231E-03 Eh
   gradient norm :     0.0115343 Eh/α   predicted    -0.8536170E-03 (   8.41%)
   displ. norm   :     0.3004107 α      lambda       -0.6174626E-03
   maximum displ.:     0.1466423 α      in ANC's #11, #14, #30, ...

........................................................................
.............................. CYCLE   38 ..............................
........................................................................
   1   -180.6383964 -0.180638E+03  0.696E-02    0.45       0.0  T
   2   -180.6383992 -0.286154E-05  0.400E-02    0.45       1.0  T
   3   -180.6382489  0.150318E-03  0.322E-02    0.45       1.0  T
   4   -180.6383943 -0.145332E-03  0.852E-03    0.45       1.1  T
   5   -180.6383992 -0.499017E-05  0.630E-03    0.45       1.5  T
   6   -180.6384062 -0.699851E-05  0.229E-03    0.45       4.2  T
   7   -180.6384068 -0.595592E-06  0.105E-03    0.45       9.1  T
   8   -180.6384070 -0.119635E-06  0.553E-04    0.45      17.3  T
     SCC iter.                  ...        0 min,  0.080 sec
     gradient                   ...        0 min,  0.017 sec
 * total energy  :  -177.8221833 Eh     change        0.1255029E-03 Eh
   gradient norm :     0.0197215 Eh/α   predicted    -0.3365929E-03 (-368.20%)
   displ. norm   :     0.1905647 α      lambda       -0.8315117E-03
   maximum displ.:     0.1101754 α      in ANC's #11, #25, #1, ...

........................................................................
.............................. CYCLE   39 ..............................
........................................................................
   1   -180.6395228 -0.180640E+03  0.420E-02    0.45       0.0  T
   2   -180.6395248 -0.196722E-05  0.245E-02    0.45       1.0  T
   3   -180.6394898  0.350322E-04  0.148E-02    0.45       1.0  T
   4   -180.6395234 -0.335955E-04  0.450E-03    0.45       2.1  T
   5   -180.6395259 -0.249042E-05  0.237E-03    0.45       4.0  T
   6   -180.6395263 -0.446145E-06  0.168E-03    0.45       5.7  T
     SCC iter.                  ...        0 min,  0.065 sec
     gradient                   ...        0 min,  0.019 sec
 * total energy  :  -177.8226646 Eh     change       -0.4812862E-03 Eh
   gradient norm :     0.0075615 Eh/α   predicted    -0.4308549E-03 ( -10.48%)
   displ. norm   :     0.3670340 α      lambda       -0.3883757E-03
   maximum displ.:     0.2232904 α      in ANC's #11, #1, #14, ...

........................................................................
.............................. CYCLE   40 ..............................
........................................................................
   1   -180.6393187 -0.180639E+03  0.841E-02    0.45       0.0  T
   2   -180.6393213 -0.257599E-05  0.490E-02    0.45       1.0  T
   3   -180.6392000  0.121220E-03  0.306E-02    0.45       1.0  T
   4   -180.6393237 -0.123634E-03  0.594E-03    0.45       1.6  T
   5   -180.6393253 -0.159846E-05  0.408E-03    0.45       2.3  T
   6   -180.6393268 -0.152715E-05  0.274E-03    0.45       3.5  T
   7   -180.6393282 -0.142022E-05  0.133E-03    0.45       7.2  T
     SCC iter.                  ...        0 min,  0.070 sec
     gradient                   ...        0 min,  0.017 sec
 * total energy  :  -177.8227749 Eh     change       -0.1102747E-03 Eh
   gradient norm :     0.0162693 Eh/α   predicted    -0.2203483E-03 (  99.82%)
   displ. norm   :     0.3118039 α      lambda       -0.4641596E-03
   maximum displ.:     0.1891370 α      in ANC's #11, #3, #10, ...

........................................................................
.............................. CYCLE   41 ..............................
........................................................................
   1   -180.6436807 -0.180644E+03  0.586E-02    0.45       0.0  T
   2   -180.6436814 -0.731594E-06  0.338E-02    0.45       1.0  T
   3   -180.6435855  0.959179E-04  0.259E-02    0.45       1.0  T
   4   -180.6436788 -0.933215E-04  0.614E-03    0.45       1.6  T
   5   -180.6436818 -0.299372E-05  0.443E-03    0.45       2.2  T
   6   -180.6436855 -0.372133E-05  0.146E-03    0.45       6.5  T
   7   -180.6436858 -0.228383E-06  0.598E-04    0.45      16.0  T
   8   -180.6436858 -0.323630E-07  0.328E-04    0.45      29.2  T
     SCC iter.                  ...        0 min,  0.080 sec
     gradient                   ...        0 min,  0.017 sec
 * total energy  :  -177.8230732 Eh     change       -0.2983620E-03 Eh
   gradient norm :     0.0084586 Eh/α   predicted    -0.2546455E-03 ( -14.65%)
   displ. norm   :     0.5648510 α      lambda       -0.6501797E-03
   maximum displ.:     0.3391140 α      in ANC's #11, #10, #3, ...

........................................................................
.............................. CYCLE   42 ..............................
........................................................................
   1   -180.6408606 -0.180641E+03  0.115E-01    0.45       0.0  T
   2   -180.6408386  0.219946E-04  0.675E-02    0.45       1.0  T
   3   -180.6395494  0.128923E-02  0.835E-02    0.45       1.0  T
   4   -180.6408605 -0.131110E-02  0.114E-02    0.45       1.0  T
   5   -180.6408751 -0.146615E-04  0.687E-03    0.45       1.4  T
   6   -180.6408816 -0.643835E-05  0.281E-03    0.45       3.4  T
   7   -180.6408825 -0.990633E-06  0.113E-03    0.45       8.4  T
   8   -180.6408827 -0.119391E-06  0.635E-04    0.45      15.1  T
     SCC iter.                  ...        0 min,  0.080 sec
     gradient                   ...        0 min,  0.017 sec
 * total energy  :  -177.8231094 Eh     change       -0.3616367E-04 Eh
   gradient norm :     0.0237891 Eh/α   predicted    -0.4288127E-03 (1085.76%)
   displ. norm   :     0.2673724 α      lambda       -0.7047452E-03
   maximum displ.:     0.1654746 α      in ANC's #11, #1, #10, ...
 * RMSD in coord.:     0.7347652 α      energy gain  -0.1381885E-01 Eh

generating ANC from model Hessian ...
Using Lindh-Hessian (1995)
 Shifting diagonal of input Hessian by   4.981786664711398E-003
 Lowest  eigenvalues of input Hessian
   -0.000000   -0.000000   -0.000000    0.000000    0.000000    0.000000
    0.005000    0.005013    0.005018    0.005056    0.005081    0.005130
    0.005184    0.005306    0.005370    0.005405    0.005544    0.005715
 Highest eigenvalues
    2.153857    2.158218    2.163302    2.227193    2.389485    2.418389
 

........................................................................
.............................. CYCLE   43 ..............................
........................................................................
   1   -180.6376798 -0.180638E+03  0.580E-02    0.45       0.0  T
   2   -180.6376804 -0.593171E-06  0.339E-02    0.45       1.0  T
   3   -180.6375202  0.160184E-03  0.286E-02    0.45       1.0  T
   4   -180.6376801 -0.159975E-03  0.544E-03    0.45       1.8  T
   5   -180.6376831 -0.298197E-05  0.369E-03    0.45       2.6  T
   6   -180.6376850 -0.189932E-05  0.137E-03    0.45       7.0  T
   7   -180.6376852 -0.167024E-06  0.754E-04    0.45      12.7  T
   8   -180.6376853 -0.940120E-07  0.306E-04    0.45      31.3  T
     SCC iter.                  ...        0 min,  0.079 sec
     gradient                   ...        0 min,  0.018 sec
 * total energy  :  -177.8234886 Eh     change       -0.3792167E-03 Eh
   gradient norm :     0.0072001 Eh/α   predicted     0.0000000E+00 (-100.00%)
   displ. norm   :     0.1112116 α      lambda       -0.1808037E-03
   maximum displ.:     0.0402922 α      in ANC's #10, #11, #3, ...

........................................................................
.............................. CYCLE   44 ..............................
........................................................................
   1   -180.6412186 -0.180641E+03  0.224E-02    0.45       0.0  T
   2   -180.6412187 -0.652871E-07  0.129E-02    0.45       1.0  T
   3   -180.6412044  0.142706E-04  0.911E-03    0.45       1.1  T
   4   -180.6412186 -0.141179E-04  0.223E-03    0.45       4.3  T
   5   -180.6412188 -0.241340E-06  0.175E-03    0.45       5.5  T
   6   -180.6412192 -0.443144E-06  0.974E-04    0.45       9.8  T
     SCC iter.                  ...        0 min,  0.060 sec
     gradient                   ...        0 min,  0.017 sec
 * total energy  :  -177.8236215 Eh     change       -0.1328955E-03 Eh
   gradient norm :     0.0024759 Eh/α   predicted    -0.9154022E-04 ( -31.12%)
   displ. norm   :     0.1212283 α      lambda       -0.1101692E-03
   maximum displ.:     0.0376090 α      in ANC's #10, #11, #30, ...

........................................................................
.............................. CYCLE   45 ..............................
........................................................................
   1   -180.6433218 -0.180643E+03  0.271E-02    0.45       0.0  T
   2   -180.6433220 -0.190333E-06  0.156E-02    0.45       1.0  T
   3   -180.6433112  0.107929E-04  0.837E-03    0.45       1.1  T
   4   -180.6433210 -0.981806E-05  0.287E-03    0.45       3.3  T
   5   -180.6433221 -0.109560E-05  0.168E-03    0.45       5.7  T
   6   -180.6433224 -0.293690E-06  0.109E-03    0.45       8.8  T
   7   -180.6433226 -0.197650E-06  0.275E-04    0.45      34.8  T
   8   -180.6433226 -0.106241E-07  0.126E-04    0.45      75.7  T
     SCC iter.                  ...        0 min,  0.080 sec
     gradient                   ...        0 min,  0.018 sec
 * total energy  :  -177.8237072 Eh     change       -0.8566996E-04 Eh
   gradient norm :     0.0024390 Eh/α   predicted    -0.5589426E-04 ( -34.76%)
   displ. norm   :     0.3126427 α      lambda       -0.2012442E-03
   maximum displ.:     0.0963908 α      in ANC's #10, #11, #21, ...

........................................................................
.............................. CYCLE   46 ..............................
........................................................................
   1   -180.6443657 -0.180644E+03  0.669E-02    0.45       0.0  T
   2   -180.6443667 -0.989058E-06  0.385E-02    0.45       1.0  T
   3   -180.6443214  0.452988E-04  0.165E-02    0.45       1.0  T
   4   -180.6443660 -0.446274E-04  0.475E-03    0.45       2.0  T
   5   -180.6443684 -0.240742E-05  0.263E-03    0.45       3.6  T
   6   -180.6443691 -0.678530E-06  0.897E-04    0.45      10.7  T
   7   -180.6443692 -0.888031E-07  0.525E-04    0.45      18.2  T
     SCC iter.                  ...        0 min,  0.070 sec
     gradient                   ...        0 min,  0.018 sec
 * total energy  :  -177.8238659 Eh     change       -0.1587139E-03 Eh
   gradient norm :     0.0064841 Eh/α   predicted    -0.1104931E-03 ( -30.38%)
   displ. norm   :     0.4881155 α      lambda       -0.2623036E-03
   maximum displ.:     0.1503212 α      in ANC's #10, #11, #3, ...

........................................................................
.............................. CYCLE   47 ..............................
........................................................................
   1   -180.6415675 -0.180642E+03  0.106E-01    0.45       0.0  T
   2   -180.6415706 -0.308494E-05  0.609E-02    0.45       1.0  T
   3   -180.6415041  0.664468E-04  0.213E-02    0.45       1.0  T
   4   -180.6415667 -0.625535E-04  0.771E-03    0.45       1.2  T
   5   -180.6415711 -0.441830E-05  0.501E-03    0.45       1.9  T
   6   -180.6415728 -0.168990E-05  0.287E-03    0.45       3.3  T
   7   -180.6415747 -0.191224E-05  0.873E-04    0.45      11.0  T
     SCC iter.                  ...        0 min,  0.070 sec
     gradient                   ...        0 min,  0.017 sec
 * total energy  :  -177.8240655 Eh     change       -0.1996275E-03 Eh
   gradient norm :     0.0086399 Eh/α   predicted    -0.1624142E-03 ( -18.64%)
   displ. norm   :     0.4397015 α      lambda       -0.2186411E-03
   maximum displ.:     0.1366296 α      in ANC's #10, #11, #3, ...

........................................................................
.............................. CYCLE   48 ..............................
........................................................................
   1   -180.6384384 -0.180638E+03  0.944E-02    0.45       0.0  T
   2   -180.6384404 -0.197330E-05  0.540E-02    0.45       1.0  T
   3   -180.6383430  0.974107E-04  0.245E-02    0.45       1.0  T
   4   -180.6384372 -0.941975E-04  0.703E-03    0.45       1.4  T
   5   -180.6384388 -0.163793E-05  0.520E-03    0.45       1.8  T
   6   -180.6384434 -0.458768E-05  0.198E-03    0.45       4.8  T
   7   -180.6384443 -0.869726E-06  0.631E-04    0.45      15.2  T
   8   -180.6384443 -0.580542E-07  0.304E-04    0.45      31.6  T
     SCC iter.                  ...        0 min,  0.080 sec
     gradient                   ...        0 min,  0.017 sec
 * total energy  :  -177.8242155 Eh     change       -0.1499579E-03 Eh
   gradient norm :     0.0076416 Eh/α   predicted    -0.1304567E-03 ( -13.00%)
   displ. norm   :     0.2480652 α      lambda       -0.1833094E-03
   maximum displ.:     0.0927383 α      in ANC's #3, #11, #10, ...

........................................................................
.............................. CYCLE   49 ..............................
........................................................................
   1   -180.6399225 -0.180640E+03  0.559E-02    0.45       0.0  T
   2   -180.6399245 -0.197185E-05  0.311E-02    0.45       1.0  T
   3   -180.6399094  0.150876E-04  0.106E-02    0.45       1.0  T
   4   -180.6399203 -0.108630E-04  0.587E-03    0.45       1.6  T
   5   -180.6399227 -0.249071E-05  0.395E-03    0.45       2.4  T
   6   -180.6399253 -0.254887E-05  0.142E-03    0.45       6.7  T
   7   -180.6399256 -0.347730E-06  0.465E-04    0.45      20.6  T
     SCC iter.                  ...        0 min,  0.070 sec
     gradient                   ...        0 min,  0.017 sec
 * total energy  :  -177.8243358 Eh     change       -0.1203116E-03 Eh
   gradient norm :     0.0040141 Eh/α   predicted    -0.9730793E-04 ( -19.12%)
   displ. norm   :     0.2978747 α      lambda       -0.1140005E-03
   maximum displ.:     0.1129514 α      in ANC's #3, #11, #10, ...

........................................................................
.............................. CYCLE   50 ..............................
........................................................................
   1   -180.6401265 -0.180640E+03  0.635E-02    0.45       0.0  T
   2   -180.6401282 -0.165293E-05  0.357E-02    0.45       1.0  T
   3   -180.6400952  0.329735E-04  0.139E-02    0.45       1.0  T
   4   -180.6401233 -0.281319E-04  0.635E-03    0.45       1.5  T
   5   -180.6401284 -0.502134E-05  0.293E-03    0.45       3.3  T
   6   -180.6401294 -0.105025E-05  0.128E-03    0.45       7.5  T
   7   -180.6401298 -0.363400E-06  0.410E-04    0.45      23.3  T
     SCC iter.                  ...        0 min,  0.070 sec
     gradient                   ...        0 min,  0.017 sec
 * total energy  :  -177.8244184 Eh     change       -0.8265021E-04 Eh
   gradient norm :     0.0042042 Eh/α   predicted    -0.6205909E-04 ( -24.91%)
   displ. norm   :     0.3078365 α      lambda       -0.1259150E-03
   maximum displ.:     0.1302583 α      in ANC's #3, #11, #9, ...

........................................................................
.............................. CYCLE   51 ..............................
........................................................................
   1   -180.6419838 -0.180642E+03  0.653E-02    0.45       0.0  T
   2   -180.6419864 -0.266720E-05  0.364E-02    0.45       1.0  T
   3   -180.6419827  0.371131E-05  0.684E-03    0.45       1.4  T
   4   -180.6419824  0.363798E-06  0.565E-03    0.45       1.7  T
   5   -180.6419839 -0.149866E-05  0.425E-03    0.45       2.3  T
   6   -180.6419872 -0.332601E-05  0.129E-03    0.45       7.4  T
   7   -180.6419875 -0.281671E-06  0.387E-04    0.45      24.7  T
   8   -180.6419875 -0.141602E-07  0.189E-04    0.45      50.6  T
     SCC iter.                  ...        0 min,  0.079 sec
     gradient                   ...        0 min,  0.017 sec
 * total energy  :  -177.8245112 Eh     change       -0.9281550E-04 Eh
   gradient norm :     0.0045858 Eh/α   predicted    -0.6892509E-04 ( -25.74%)
   displ. norm   :     0.3463156 α      lambda       -0.1237618E-03
   maximum displ.:     0.1545004 α      in ANC's #3, #11, #9, ...

........................................................................
.............................. CYCLE   52 ..............................
........................................................................
   1   -180.6429749 -0.180643E+03  0.682E-02    0.45       0.0  T
   2   -180.6429772 -0.230781E-05  0.383E-02    0.45       1.0  T
   3   -180.6429595  0.176331E-04  0.111E-02    0.45       1.0  T
   4   -180.6429707 -0.111051E-04  0.715E-03    0.45       1.3  T
   5   -180.6429760 -0.529900E-05  0.395E-03    0.45       2.4  T
   6   -180.6429778 -0.188359E-05  0.186E-03    0.45       5.2  T
   7   -180.6429786 -0.798118E-06  0.593E-04    0.45      16.1  T
     SCC iter.                  ...        0 min,  0.076 sec
     gradient                   ...        0 min,  0.020 sec
 * total energy  :  -177.8246063 Eh     change       -0.9510065E-04 Eh
   gradient norm :     0.0045424 Eh/α   predicted    -0.6930379E-04 ( -27.13%)
   displ. norm   :     0.4364055 α      lambda       -0.1376383E-03
   maximum displ.:     0.1973440 α      in ANC's #3, #11, #9, ...

........................................................................
.............................. CYCLE   53 ..............................
........................................................................
   1   -180.6413899 -0.180641E+03  0.830E-02    0.45       0.0  T
   2   -180.6413924 -0.251844E-05  0.475E-02    0.45       1.0  T
   3   -180.6413691  0.232512E-04  0.128E-02    0.45       1.0  T
   4   -180.6413883 -0.191105E-04  0.644E-03    0.45       1.5  T
   5   -180.6413921 -0.385781E-05  0.396E-03    0.45       2.4  T
   6   -180.6413937 -0.155445E-05  0.173E-03    0.45       5.5  T
   7   -180.6413942 -0.547255E-06  0.824E-04    0.45      11.6  T
     SCC iter.                  ...        0 min,  0.070 sec
     gradient                   ...        0 min,  0.017 sec
 * total energy  :  -177.8247027 Eh     change       -0.9638138E-04 Eh
   gradient norm :     0.0049453 Eh/α   predicted    -0.8195634E-04 ( -14.97%)
   displ. norm   :     0.4049012 α      lambda       -0.1927060E-03
   maximum displ.:     0.1901060 α      in ANC's #3, #5, #9, ...

........................................................................
.............................. CYCLE   54 ..............................
........................................................................
   1   -180.6451909 -0.180645E+03  0.733E-02    0.45       0.0  T
   2   -180.6451926 -0.161641E-05  0.427E-02    0.45       1.0  T
   3   -180.6451252  0.673677E-04  0.174E-02    0.45       1.0  T
   4   -180.6451877 -0.625560E-04  0.593E-03    0.45       1.6  T
   5   -180.6451931 -0.537076E-05  0.372E-03    0.45       2.6  T
   6   -180.6451949 -0.180151E-05  0.182E-03    0.45       5.3  T
   7   -180.6451954 -0.446909E-06  0.746E-04    0.45      12.8  T
     SCC iter.                  ...        0 min,  0.070 sec
     gradient                   ...        0 min,  0.017 sec
 * total energy  :  -177.8247774 Eh     change       -0.7467190E-04 Eh
   gradient norm :     0.0076184 Eh/α   predicted    -0.1121628E-03 (  50.21%)
   displ. norm   :     0.3246316 α      lambda       -0.1459346E-03
   maximum displ.:     0.1497205 α      in ANC's #3, #9, #11, ...

........................................................................
.............................. CYCLE   55 ..............................
........................................................................
   1   -180.6414516 -0.180641E+03  0.579E-02    0.45       0.0  T
   2   -180.6414521 -0.493484E-06  0.335E-02    0.45       1.0  T
   3   -180.6414048  0.472945E-04  0.169E-02    0.45       1.0  T
   4   -180.6414515 -0.466874E-04  0.431E-03    0.45       2.2  T
   5   -180.6414528 -0.123607E-05  0.282E-03    0.45       3.4  T
   6   -180.6414535 -0.749918E-06  0.174E-03    0.45       5.5  T
     SCC iter.                  ...        0 min,  0.060 sec
     gradient                   ...        0 min,  0.017 sec
 * total energy  :  -177.8248703 Eh     change       -0.9293089E-04 Eh
   gradient norm :     0.0050765 Eh/α   predicted    -0.8065765E-04 ( -13.21%)
   displ. norm   :     0.1806886 α      lambda       -0.9329819E-04
   maximum displ.:     0.0941116 α      in ANC's #3, #5, #1, ...

........................................................................
.............................. CYCLE   56 ..............................
........................................................................
   1   -180.6411334 -0.180641E+03  0.321E-02    0.45       0.0  T
   2   -180.6411339 -0.479256E-06  0.185E-02    0.45       1.0  T
   3   -180.6411201  0.137620E-04  0.869E-03    0.45       1.1  T
   4   -180.6411330 -0.128497E-04  0.292E-03    0.45       3.3  T
   5   -180.6411339 -0.987634E-06  0.201E-03    0.45       4.8  T
   6   -180.6411345 -0.547232E-06  0.114E-03    0.45       8.4  T
     SCC iter.                  ...        0 min,  0.060 sec
     gradient                   ...        0 min,  0.017 sec
 * total energy  :  -177.8249361 Eh     change       -0.6576351E-04 Eh
   gradient norm :     0.0039335 Eh/α   predicted    -0.4817731E-04 ( -26.74%)
   displ. norm   :     0.2357054 α      lambda       -0.9470004E-04
   maximum displ.:     0.1175752 α      in ANC's #3, #5, #1, ...

........................................................................
.............................. CYCLE   57 ..............................
........................................................................
   1   -180.6424383 -0.180642E+03  0.460E-02    0.45       0.0  T
   2   -180.6424394 -0.110462E-05  0.261E-02    0.45       1.0  T
   3   -180.6424148  0.246235E-04  0.115E-02    0.45       1.0  T
   4   -180.6424362 -0.214247E-04  0.471E-03    0.45       2.0  T
   5   -180.6424387 -0.249914E-05  0.345E-03    0.45       2.8  T
   6   -180.6424404 -0.164653E-05  0.169E-03    0.45       5.7  T
   7   -180.6424408 -0.450947E-06  0.492E-04    0.45      19.5  T
   8   -180.6424409 -0.300018E-07  0.213E-04    0.45      45.0  T
     SCC iter.                  ...        0 min,  0.079 sec
     gradient                   ...        0 min,  0.018 sec
 * total energy  :  -177.8249930 Eh     change       -0.5691636E-04 Eh
   gradient norm :     0.0037290 Eh/α   predicted    -0.4998256E-04 ( -12.18%)
   displ. norm   :     0.2248861 α      lambda       -0.6260812E-04
   maximum displ.:     0.1219787 α      in ANC's #3, #5, #1, ...

........................................................................
.............................. CYCLE   58 ..............................
........................................................................
   1   -180.6419727 -0.180642E+03  0.383E-02    0.45       0.0  T
   2   -180.6419731 -0.418871E-06  0.222E-02    0.45       1.0  T
   3   -180.6419588  0.142899E-04  0.854E-03    0.45       1.1  T
   4   -180.6419726 -0.138137E-04  0.250E-03    0.45       3.8  T
   5   -180.6419732 -0.620792E-06  0.180E-03    0.45       5.3  T
   6   -180.6419736 -0.371468E-06  0.113E-03    0.45       8.5  T
   7   -180.6419738 -0.192432E-06  0.369E-04    0.45      26.0  T
   8   -180.6419738 -0.156699E-07  0.174E-04    0.45      55.2  T
     SCC iter.                  ...        0 min,  0.079 sec
     gradient                   ...        0 min,  0.018 sec
 * total energy  :  -177.8250288 Eh     change       -0.3575977E-04 Eh
   gradient norm :     0.0037504 Eh/α   predicted    -0.3289046E-04 (  -8.02%)
   displ. norm   :     0.1945301 α      lambda       -0.5141583E-04
   maximum displ.:     0.1094684 α      in ANC's #3, #5, #1, ...

........................................................................
.............................. CYCLE   59 ..............................
[...]
    52   6 C      3.778    -0.108    22.583     6.770
    53  16 S      2.248    -0.073   144.095    20.203
    54   6 C      3.017     0.014    27.686     8.631
    55  16 S      2.430    -0.001   141.114    19.993
    56   6 C      2.975     0.018    27.602     8.618
    57   6 C      3.153    -0.005    27.843     8.629
    58   6 C      3.139    -0.004    27.882     8.641
    59   6 C      2.918    -0.041    29.015     8.833
    60   6 C      2.973     0.009    27.809     8.650
    61   6 C      2.896    -0.030    28.751     8.791
    62   6 C      2.838    -0.086    30.145     8.998
    63   6 C      2.965     0.014    27.691     8.632
    64   6 C      3.758    -0.107    22.602     6.778
    65   6 C      2.916    -0.045    29.109     8.847
    66   6 C      2.922    -0.030    28.740     8.791
    67   6 C      2.841    -0.088    30.194     9.005
    68   1 H      0.926     0.055     2.261     2.351
    69   1 H      0.924     0.044     2.390     2.418
    70   1 H      0.924     0.075     2.028     2.227
    71   1 H      0.925     0.044     2.400     2.422
    72   1 H      0.925     0.048     2.348     2.396
    73   1 H      0.925     0.052     2.301     2.372
    74   1 H      0.924     0.077     2.015     2.220
    75   1 H      0.924     0.043     2.414     2.430
    76   1 H      0.925     0.049     2.328     2.386
    77   1 H      0.925     0.045     2.378     2.412
    78   1 H      0.925     0.044     2.391     2.418
    79   1 H      0.926     0.073     2.055     2.242
    80   1 H      0.926     0.053     2.282     2.362
    81   1 H      0.926     0.055     2.253     2.347
    82   1 H      0.925     0.038     2.476     2.461
    83   1 H      0.926     0.068     2.111     2.272
    84   1 H      0.926     0.040     2.451     2.448
    85   1 H      0.924     0.049     2.329     2.387
    86   1 H      0.925     0.043     2.407     2.426
    87   1 H      0.925     0.050     2.323     2.383
    88   1 H      0.926     0.044     2.395     2.420
    89   1 H      0.926     0.077     2.008     2.216
    90   1 H      0.926     0.069     2.095     2.264
    91   1 H      0.925     0.035     2.520     2.483
    92   1 H      0.925     0.037     2.491     2.468
    93   1 H      0.925     0.042     2.416     2.431
    94   1 H      0.926     0.047     2.354     2.399
    95   1 H      0.926     0.057     2.234     2.337
    96   1 H      0.925     0.059     2.211     2.325
    97   1 H      0.925     0.053     2.287     2.365
    98   1 H      0.925     0.058     2.226     2.333
    99   1 H      0.926     0.051     2.303     2.373
   100   1 H      0.925     0.042     2.427     2.436
   101   1 H      0.926     0.041     2.431     2.438
   102   1 H      0.926     0.038     2.478     2.462
   103   1 H      0.925     0.049     2.335     2.390
   104   1 H      0.925     0.048     2.340     2.392
   105   1 H      0.925     0.042     2.429     2.437
   106   1 H      0.926     0.032     2.562     2.503
   107   1 H      0.925     0.044     2.391     2.418
   108   1 H      0.926     0.048     2.343     2.393
   109   1 H      0.926     0.044     2.399     2.422

 Mol. C6AA /au·bohr⁶  :     190511.715569
 Mol. C8AA /au·bohr⁸  :    5172908.899463
 Mol. α(0) /au        :        699.024344


Wiberg/Mayer (AO) data.
largest (>0.10) Wiberg bond orders for each atom
          total WBO             WBO to atom ...
     1  C   3.892        C    8 1.484    N    2 1.240    H   68 0.965
     2  N   3.579        C    1 1.240    C    5 1.053    C    3 0.989    O    6 0.109
     3  C   3.967        C    4 1.006    N    2 0.989    H   69 0.970    H   70 0.966
     4  C   3.991        C    3 1.006    H   73 0.987    H   71 0.987    H   72 0.985
     5  C   3.926        O    6 1.627    C    7 1.120    N    2 1.053
     6  O   1.948        C    5 1.627    N    2 0.109
     7  C   3.901        C   14 1.330    C    8 1.176    C    5 1.120
     8  C   3.965        C    1 1.484    C    7 1.176    C    9 1.072
     9  C   3.946        O   10 1.679    N   11 1.078    C    8 1.072
    10  O   2.012        C    9 1.679    N   11 0.128
    11  N   3.546        C   14 1.156    C    9 1.078    C   12 0.989    O   10 0.128
    12  C   3.966        C   13 1.006    N   11 0.989    H   75 0.964    H   74 0.963
    13  C   3.991        C   12 1.006    H   76 0.987    H   77 0.985    H   78 0.984
    14  C   3.955        C    7 1.330    C   15 1.247    N   11 1.156
    15  C   3.924        C   16 1.529    C   14 1.247    H   79 0.946
    16  C   3.953        C   15 1.529    C   17 1.294    H   80 0.953
    17  C   3.869        C   16 1.294    C   21 1.252    S   18 1.134
    18  S   2.576        C   19 1.146    C   17 1.134
    19  C   3.897        C   29 1.289    C   20 1.261    S   18 1.146
    20  C   3.958        C   28 1.285    C   19 1.261    C   21 1.214
    21  C   3.969        C   22 1.304    C   17 1.252    C   20 1.214
    22  C   3.974        C   23 1.470    C   21 1.304    H   81 0.952
    23  C   3.970        C   22 1.470    C   26 1.243    C   24 1.084
    24  C   3.988        C   25 1.906    C   23 1.084    H   82 0.959
    25  C   3.968        C   24 1.906    H   84 0.978    H   83 0.969
    26  C   3.962        C   28 1.523    C   23 1.243    C   27 1.028
    27  C   3.994        C   26 1.028    H   86 0.984    H   87 0.973    H   85 0.966
    28  C   3.976        C   26 1.523    C   20 1.285    H   88 0.957
    29  C   3.897        C   30 1.528    C   19 1.289    H   89 0.943
    30  C   3.939        C   29 1.528    C   31 1.261    H   90 0.948
    31  C   3.905        C   30 1.261    C   32 1.216    C   40 1.212
    32  C   3.958        N   37 1.315    C   31 1.216    C   33 1.200
    33  C   3.967        N   34 1.323    C   38 1.204    C   32 1.200
    34  N   3.061        C   35 1.517    C   33 1.323
    35  C   3.951        N   34 1.517    C   36 1.305    H   91 0.962
    36  C   3.953        N   37 1.523    C   35 1.305    H   92 0.962
    37  N   3.064        C   36 1.523    C   32 1.315
    38  C   3.909        C   45 1.264    C   39 1.209    C   33 1.204
    39  C   3.963        N   44 1.316    C   38 1.209    C   40 1.204
    40  C   3.957        N   41 1.316    C   31 1.212    C   39 1.204
    41  N   3.051        C   42 1.522    C   40 1.316
    42  C   3.946        N   41 1.522    C   43 1.308    H   93 0.962
    43  C   3.941        N   44 1.498    C   42 1.308    H   94 0.962
    44  N   3.249        C   43 1.498    C   39 1.316    S   46 0.214
    45  C   3.915        C   49 1.294    C   38 1.264    S   46 1.111
    46  S   2.746        C   45 1.111    C   47 1.082    N   44 0.214
    47  C   3.901        C   48 1.368    C   54 1.250    S   46 1.082
    48  C   3.929        C   47 1.368    C   49 1.246    S   53 1.092
    49  C   3.939        C   45 1.294    C   48 1.246    C   50 1.207
    50  C   3.972        C   51 1.633    C   49 1.207    H   95 0.950
    51  C   3.924        C   50 1.633    S   53 1.103    C   52 1.041
    52  C   3.992        C   51 1.041    H   97 0.980    H   98 0.968    H   96 0.967
    53  S   2.500        C   51 1.103    C   48 1.092
    54  C   3.928        C   58 1.282    C   47 1.250    S   55 1.143
    55  S   2.647        C   56 1.165    C   54 1.143
    56  C   3.869        C   57 1.326    C   66 1.174    S   55 1.165
    57  C   3.984        C   56 1.326    C   65 1.255    C   58 1.191
    58  C   3.963        C   59 1.291    C   54 1.282    C   57 1.191
    59  C   3.980        C   60 1.487    C   58 1.291    H   99 0.951
    60  C   3.963        C   59 1.487    C   63 1.224    C   61 1.083
    61  C   3.988        C   62 1.907    C   60 1.083    H  100 0.959
    62  C   3.963        C   61 1.907    H  102 0.978    H  101 0.974
    63  C   3.966        C   65 1.553    C   60 1.224    C   64 1.028
    64  C   3.994        C   63 1.028    H  105 0.984    H  103 0.973    H  104 0.967
    65  C   3.971        C   63 1.553    C   57 1.255    H  106 0.962
    66  C   3.989        C   67 1.815    C   56 1.174    H  107 0.955
    67  C   3.905        C   66 1.815    H  109 0.979    H  108 0.972
    68  H   0.997        C    1 0.965
    69  H   0.996        C    3 0.970
    70  H   0.994        C    3 0.966
    71  H   0.998        C    4 0.987
    72  H   0.997        C    4 0.985
    73  H   0.997        C    4 0.987
    74  H   0.994        C   12 0.963
    75  H   0.997        C   12 0.964
    76  H   0.998        C   13 0.987
    77  H   0.997        C   13 0.985
    78  H   0.998        C   13 0.984
    79  H   0.994        C   15 0.946
    80  H   0.996        C   16 0.953
    81  H   0.996        C   22 0.952
    82  H   0.997        C   24 0.959
    83  H   0.995        C   25 0.969
    84  H   0.998        C   25 0.978
    85  H   0.994        C   27 0.966
    86  H   0.998        C   27 0.984
    87  H   0.995        C   27 0.973
    88  H   0.997        C   28 0.957
    89  H   0.992        C   29 0.943
    90  H   0.994        C   30 0.948
    91  H   0.998        C   35 0.962
    92  H   0.998        C   36 0.962
    93  H   0.996        C   42 0.962
    94  H   0.997        C   43 0.962
    95  H   0.996        C   50 0.950
    96  H   0.992        C   52 0.967
    97  H   0.997        C   52 0.980
    98  H   0.992        C   52 0.968
    99  H   0.997        C   59 0.951
   100  H   0.997        C   61 0.959
   101  H   0.998        C   62 0.974
   102  H   0.998        C   62 0.978
   103  H   0.995        C   64 0.973
   104  H   0.994        C   64 0.967
   105  H   0.998        C   64 0.984
   106  H   0.998        C   65 0.962
   107  H   0.998        C   66 0.955
   108  H   0.998        C   67 0.972
   109  H   0.997        C   67 0.979

molecular dipole:
                 x           y           z       tot (Debye)
 q only:        1.432       1.362       2.500
   full:        1.300       1.454       2.322       7.708
molecular quadrupole (traceless):
                xx          xy          yy          xz          yz          zz
 q only:      -64.170      -4.020      54.643     -55.909      76.117       9.528
  q+dip:      -62.941     -17.468      52.218     -56.363      79.899      10.723
   full:      -67.702     -12.999      61.717     -58.117      69.746       5.985

           -------------------------------------------------
          |                Geometry Summary                 |
           -------------------------------------------------

      molecular mass/u    :      947.2158000
   center of mass at/Å    :       -3.8119014       9.7494328       0.0579669
  moments of inertia/u·Å² :        0.6205072E+04   0.6252206E+05   0.6636452E+05
rotational constants/cm⁻¹ :        0.2716750E-02   0.2696269E-03   0.2540157E-03

 * 114 selected distances

     #   Z        #   Z                                     value/Å
     1   6 C      2   7 N                                 1.3621141
     2   7 N      3   6 C                                 1.4400068
     3   6 C      4   6 C                                 1.5269462
     2   7 N      5   6 C                                 1.4150477
     5   6 C      6   8 O                                 1.2200321
     5   6 C      7   6 C                                 1.4340518
     1   6 C      8   6 C                                 1.3679383
     7   6 C      8   6 C                                 1.4265987
     9   6 C     10   8 O                                 1.2121995
     9   6 C     11   7 N                                 1.4115645
    11   7 N     12   6 C                                 1.4419691
    12   6 C     13   6 C                                 1.5272408
     7   6 C     14   6 C                                 1.3927486
    11   7 N     14   6 C                                 1.3824374
    14   6 C     15   6 C                                 1.4092791
    15   6 C     16   6 C                                 1.3663458
    16   6 C     17   6 C                                 1.4052689
    17   6 C     18  16 S                                 1.7409763
    18  16 S     19   6 C                                 1.7354579
    19   6 C     20   6 C                                 1.4131012
    17   6 C     21   6 C                                 1.4157094
    20   6 C     21   6 C                                 1.4275403
    21   6 C     22   6 C                                 1.4016139
    22   6 C     23   6 C                                 1.3794757
    24   6 C     25   6 C                                 1.3278993
    23   6 C     26   6 C                                 1.4225901
    20   6 C     28   6 C                                 1.4048725
    26   6 C     28   6 C                                 1.3716385
    19   6 C     29   6 C                                 1.4053355
    29   6 C     30   6 C                                 1.3661036
    30   6 C     31   6 C                                 1.4154410
    31   6 C     32   6 C                                 1.4241593
    32   6 C     33   6 C                                 1.4350286
    33   6 C     34   7 N                                 1.3424224
    34   7 N     35   6 C                                 1.3085141
    35   6 C     36   6 C                                 1.4005760
    32   6 C     37   7 N                                 1.3460036
    36   6 C     37   7 N                                 1.3075614
    33   6 C     38   6 C                                 1.4251573
    38   6 C     39   6 C                                 1.4216624
    31   6 C     40   6 C                                 1.4240500
    39   6 C     40   6 C                                 1.4243128
    40   6 C     41   7 N                                 1.3461683
    41   7 N     42   6 C                                 1.3086425
    42   6 C     43   6 C                                 1.4024947
    39   6 C     44   7 N                                 1.3385085
    43   6 C     44   7 N                                 1.3080394
    38   6 C     45   6 C                                 1.4121258
    45   6 C     46  16 S                                 1.7509154
    46  16 S     47   6 C                                 1.7660969 (max)
    47   6 C     48   6 C                                 1.3835121
    45   6 C     49   6 C                                 1.4017024
    48   6 C     49   6 C                                 1.4183471
    49   6 C     50   6 C                                 1.4200635
    50   6 C     51   6 C                                 1.3534753
    51   6 C     52   6 C                                 1.4849558
    48   6 C     53  16 S                                 1.7393267
    51   6 C     53  16 S                                 1.7514753
    47   6 C     54   6 C                                 1.4078248
    54   6 C     55  16 S                                 1.7379500
    55  16 S     56   6 C                                 1.7300770
    56   6 C     57   6 C                                 1.3985800
    54   6 C     58   6 C                                 1.4071574
    57   6 C     58   6 C                                 1.4290219
    58   6 C     59   6 C                                 1.4009574
    59   6 C     60   6 C                                 1.3767131
    61   6 C     62   6 C                                 1.3271355
    60   6 C     63   6 C                                 1.4275793
    57   6 C     65   6 C                                 1.4094527
    63   6 C     65   6 C                                 1.3674370
    56   6 C     66   6 C                                 1.4281519
    66   6 C     67   6 C                                 1.3349650
     1   6 C     68   1 H                                 1.0741721
     3   6 C     69   1 H                                 1.0944192
     3   6 C     70   1 H                                 1.0936243
     4   6 C     71   1 H                                 1.0879237
     4   6 C     72   1 H                                 1.0865436
     4   6 C     73   1 H                                 1.0872631
    12   6 C     74   1 H                                 1.0946737
    12   6 C     75   1 H                                 1.0931099
    13   6 C     76   1 H                                 1.0872879
    13   6 C     77   1 H                                 1.0867799
    13   6 C     78   1 H                                 1.0877165
    15   6 C     79   1 H                                 1.0789611
    16   6 C     80   1 H                                 1.0803038
    22   6 C     81   1 H                                 1.0755741
    24   6 C     82   1 H                                 1.0821807
    25   6 C     83   1 H                                 1.0770552
    25   6 C     84   1 H                                 1.0771598
    27   6 C     85   1 H                                 1.0903007
    27   6 C     86   1 H                                 1.0872375
    27   6 C     87   1 H                                 1.0888286
    28   6 C     88   1 H                                 1.0777442
    29   6 C     89   1 H                                 1.0810049
    30   6 C     90   1 H                                 1.0801077
    35   6 C     91   1 H                                 1.0820423
    36   6 C     92   1 H                                 1.0819318
    42   6 C     93   1 H                                 1.0815764
    43   6 C     94   1 H                                 1.0803403
    50   6 C     95   1 H                                 1.0719950 (min)
    52   6 C     96   1 H                                 1.0899359
    52   6 C     97   1 H                                 1.0871760
    52   6 C     98   1 H                                 1.0899548
    59   6 C     99   1 H                                 1.0756354
    61   6 C    100   1 H                                 1.0814896
    62   6 C    101   1 H                                 1.0768653
    62   6 C    102   1 H                                 1.0766143
    64   6 C    103   1 H                                 1.0890207
    64   6 C    104   1 H                                 1.0901003
    64   6 C    105   1 H                                 1.0872596
    65   6 C    106   1 H                                 1.0799408
    66   6 C    107   1 H                                 1.0818067
    67   6 C    108   1 H                                 1.0772739
    67   6 C    109   1 H                                 1.0751138

 * 5 distinct bonds (by element types)

   Z      Z             #   av. dist./Å        max./Å        min./Å
   1 H    6 C          42     1.0834773     1.0946737     1.0719950
   6 C    6 C          48     1.4073820     1.5272408     1.3271355
   6 C    7 N          14     1.3613571     1.4419691     1.3075614
   6 C    8 O           2     1.2161158     1.2200321     1.2121995
   6 C   16 S           8     1.7440344     1.7660969     1.7300770


optimized geometry written to: xtbopt.xyz


           -------------------------------------------------
          | TOTAL ENERGY             -177.827627779429 Eh   |
          | GRADIENT NORM               0.000369805886 Eh/α |
          | HOMO-LUMO GAP               0.417685333944 eV   |
           -------------------------------------------------

------------------------------------------------------------------------
 * finished run on 2021/09/13 at 17:16:30.421     
------------------------------------------------------------------------
 total:
 * wall-time:     0 d,  0 h,  0 min, 19.004 sec
 *  cpu-time:     0 d,  0 h,  3 min, 47.860 sec
 * ratio c/w:    11.990 speedup
 SCF:
 * wall-time:     0 d,  0 h,  0 min,  0.207 sec
 *  cpu-time:     0 d,  0 h,  0 min,  2.476 sec
 * ratio c/w:    11.973 speedup
 ANC optimizer:
 * wall-time:     0 d,  0 h,  0 min, 18.752 sec
 *  cpu-time:     0 d,  0 h,  3 min, 44.933 sec
 * ratio c/w:    11.995 speedup

