      -----------------------------------------------------------      
     |                   =====================                   |     
     |                           x T B                           |     
     |                   =====================                   |     
     |                         S. Grimme                         |     
     |          Mulliken Center for Theoretical Chemistry        |     
     |                    University of Bonn                     |     
     |                Version 6.2 RC2 (SAW190805)                |     
      -----------------------------------------------------------      

   This program is distributed in the hope that it will be useful,
   but WITHOUT ANY WARRANTY; without even the implied warranty of
   MERCHANTABILITY or FITNESS FOR A PARTICULAR PURPOSE.
   
   FOR NON-COMMERCIAL, ACADEMIA USE ONLY.
   
   Cite this work as:
   * S. Grimme, C. Bannwarth, P. Shushkov, J. Chem. Theory Comput., 2017,
     13, 1989-2009. DOI: 10.1021/acs.jctc.7b00118
   * C. Bannwarth, S. Ehlert and S. Grimme., J. Chem. Theory Comput., 2019,
     15, 1652-1671. DOI: 10.1021/acs.jctc.8b01176
   * P. Pracht, E. Caldeweyher, S. Ehlert, S. Grimme, ChemRxiv, 2019, preprint.
     DOI: 10.26434/chemrxiv.8326202.v1
   
   for DFT-D4:
   * E. Caldeweyher, C. Bannwarth and S. Grimme, J. Chem. Phys., 2017,
     147, 034112. DOI: 10.1063/1.4993215
   * E. Caldeweyher, S. Ehlert, A. Hansen, H. Neugebauer, S. Spicher,
     C. Bannwarth and S. Grimme, J. Chem. Phys., 2019, 150, 154122.
     DOI: 10.1063/1.5090222
   
   for sTDA-xTB:
   * S. Grimme and C. Bannwarth, J. Chem. Phys., 2016, 145, 054103.
     DOI: 10.1063/1.4959605
   
   in the mass-spec context:
   * V. Asgeirsson, C. Bauer and S. Grimme, Chem. Sci., 2017, 8, 4879.
     DOI: 10.1039/c7sc00601b
   
   for metadynamics refer to:
   * S. Grimme, J. Chem. Theory Comput., 2019, 155, 2847-2862
     DOI: 10.1021/acs.jctc.9b00143
   
   with help from (in alphabetical order)
   C. Bannwarth, F. Bohle, G. Brandenburg, E. Caldeweyher, M. Checinski,
   S. Dohm, S. Ehlert, S. Ehrlich, F. März, H. Neugebauer, J. Pisarek,
   P. Pracht, P. Shushkov, and S. Spicher.
   
 * started run on 2021/09/13 at 17:16:57.771     

           -------------------------------------------------
          |                Calculation Setup                |
           -------------------------------------------------

          program call               : /ihome/ghutchison/geoffh/xtb/xtb /ihome/ghutchison/blp62/GA/running_GA/v5/generations/4/723_30_723_30_723_01010.xyz -opt
          hostname                   : smp-n12
          coordinate file            : /ihome/ghutchison/blp62/GA/running_GA/v5/generations/4/723_30_723_30_723_01010.xyz
          omp threads                :                    12
          number of atoms            :                   106
          number of electrons        :                   340
          charge                     :                     0
          spin                       :                   0.0
          first test random number   :      0.98081628762622


########################################################################
# WARNING! Please study the warnings concerning your input carefully
#  - XTBPATH is not set, using XTBHOME instead
#  - the use of '-opt' is discouraged, please use '--opt' next time
########################################################################

           ------------------------------------------------- 
          |                 G F N 2 - x T B                 |
          | Geometry, Frequencies, Noncovalent interactions |
          |            JCTC 2019 parametrisation            |
           ------------------------------------------------- 
             KAB for C  - Si     :                1.0500
             KAB for H  - Pd     :                0.9500
             k(s)              :                1.8500
             k(p)              :                2.2300
             k(d)              :                2.2300
             k(f)              :                2.0000
             kEN (H0ij)        :               -2.0000
             D4 a1             :                0.5200
             D4 a2             :                5.0000
             D4 s6             :                1.0000
             D4 s8             :                2.7000
             D4 s9             :                5.0000
             alphaj            :                2.0000

  Z AO/shell   Hii/eV     exponent
  1     Wed Apr 25 08:07:45 CEST 2018   EN: 2.200 GM2: 0.406  GM3: 0.0800  RAES: 1.40
     1s    -10.707211    1.230000
  6     Wed Apr 25 08:07:45 CEST 2018   EN: 2.550 GM2: 0.538  GM3: 0.1500  RAES: 3.00
     2s    -13.970922    2.096432
     2p    -10.063292    1.800000
  7     Wed Apr 25 08:07:45 CEST 2018   EN: 3.040 GM2: 0.461  GM3:-0.0640  RAES: 1.90
     2s    -16.686243    2.339881
     2p    -12.523956    2.014332
  8     Wed Apr 25 08:07:45 CEST 2018   EN: 3.440 GM2: 0.452  GM3:-0.0517  RAES: 1.80
     2s    -20.229985    2.439742
     2p    -15.503117    2.137023
  9     Mon Apr 23 13:58:50 CEST 2018   EN: 3.980 GM2: 0.532  GM3: 0.1426  RAES: 2.40
     2s    -23.458179    2.416361
     2p    -15.746583    2.308399
 16     Tue Apr 24 11:44:34 CEST 2018   EN: 2.580 GM2: 0.340  GM3:-0.0502  RAES: 3.10
     3s    -20.029654    1.981333
     3p    -11.377694    2.025643
     3d     -0.420282    1.702555

           ------------------------------------------------- 
          |        Self-Consistent Charge Iterations        |
           ------------------------------------------------- 

          ...................................................
          :                      SETUP                      :
          :.................................................:
          :  # basis functions                 325          :
          :  # atomic orbitals                 322          :
          :  # shells                          176          :
          :  # electrons                       340          :
          :  max. iterations                   250          :
          :  Hamiltonian                  GFN2-xTB          :
          :  restarted?                      false          :
          :  GBSA solvation                  false          :
          :  PC potential                    false          :
          :  electronic temp.          300.0000000     K    :
          :  accuracy                    1.0000000          :
          :  -> integral cutoff          0.2500000E+02      :
          :  -> integral neglect         0.1000000E-07      :
          :  -> SCF convergence          0.1000000E-05 Eh   :
          :  -> wf. convergence          0.1000000E-03 e    :
          :  Broyden damping             0.4000000          :
          ...................................................

 iter      E             dE          RMSdq      gap      omega  full diag
   1   -192.2895083 -0.192290E+03  0.465E+00    1.30       0.0  T
   2   -192.4621784 -0.172670E+00  0.286E+00    1.14       1.0  T
   3   -192.3452764  0.116902E+00  0.185E+00    1.23       1.0  T
   4   -192.5411852 -0.195909E+00  0.718E-01    0.83       1.0  T
   5   -192.5808817 -0.396965E-01  0.252E-01    0.75       1.0  T
   6   -192.5841931 -0.331134E-02  0.142E-01    0.80       1.0  T
   7   -192.5856174 -0.142434E-02  0.610E-02    0.83       1.0  T
   8   -192.5858343 -0.216928E-03  0.199E-02    0.83       1.0  T
   9   -192.5858463 -0.119636E-04  0.101E-02    0.82       1.0  T
  10   -192.5858506 -0.431254E-05  0.560E-03    0.83       1.7  T
  11   -192.5858516 -0.946049E-06  0.319E-03    0.83       3.0  T
  12   -192.5858524 -0.827161E-06  0.113E-03    0.83       8.6  T
  13   -192.5858525 -0.710256E-07  0.508E-04    0.83      19.1  T
  14   -192.5858525 -0.695408E-08  0.284E-04    0.83      34.2  T

   *** convergence criteria satisfied after 14 iterations ***

         #    Occupation            Energy/Eh            Energy/eV
      -------------------------------------------------------------
         1        2.0000           -0.8983026             -24.4441
       ...           ...                  ...                  ...
       164        2.0000           -0.3903236             -10.6212
       165        2.0000           -0.3863552             -10.5133
       166        2.0000           -0.3832240             -10.4281
       167        2.0000           -0.3810497             -10.3689
       168        2.0000           -0.3777954             -10.2803
       169        2.0000           -0.3734155             -10.1612
       170        2.0000           -0.3696719             -10.0593 (HOMO)
       171        0.0000           -0.3392839              -9.2324 (LUMO)
       172                         -0.3240649              -8.8183
       173                         -0.3151632              -8.5760
       174                         -0.3079371              -8.3794
       175                         -0.2916956              -7.9374
       ...                                ...                  ...
       322                          1.0942265              29.7754
      -------------------------------------------------------------
                  HL-Gap            0.0303881 Eh            0.8269 eV
             Fermi-level           -0.3544687 Eh           -9.6456 eV

 SCC (total)                   0 d,  0 h,  0 min,  0.179 sec
 SCC setup                      ...        0 min,  0.002 sec (  1.118%)
 Dispersion                     ...        0 min,  0.004 sec (  2.284%)
 integral evaluation            ...        0 min,  0.018 sec (  9.816%)
 zeroth order Hamiltonian       ...        0 min,  0.001 sec (  0.528%)
 iterations                     ...        0 min,  0.138 sec ( 76.830%)
 molecular gradient             ...        0 min,  0.016 sec (  8.922%)
 printout                       ...        0 min,  0.001 sec (  0.454%)

         :::::::::::::::::::::::::::::::::::::::::::::::::::::
         ::                     SUMMARY                     ::
         :::::::::::::::::::::::::::::::::::::::::::::::::::::
         :: total energy            -190.131672025086 Eh    ::
         :: gradient norm              0.234431344251 Eh/a0 ::
         :: HOMO-LUMO gap              0.826902106717 eV    ::
         ::.................................................::
         :: SCC energy              -192.585852467543 Eh    ::
         :: -> isotropic ES            0.183860547719 Eh    ::
         :: -> anisotropic ES          0.010920852081 Eh    ::
         :: -> anisotropic XC          0.096274861537 Eh    ::
         :: -> dispersion             -0.132579607474 Eh    ::
         :: repulsion energy           2.454731450121 Eh    ::
         :: add. restraining           0.000000000000 Eh    ::
         :::::::::::::::::::::::::::::::::::::::::::::::::::::

      ----------------------------------------------------------- 
     |                   =====================                   |
     |                        A N C O P T                        |
     |                   =====================                   |
     |               Approximate Normal Coordinate               |
     |                Rational Function Optimizer                |
      ----------------------------------------------------------- 

          ...................................................
          :                      SETUP                      :
          :.................................................:
          :   optimization level            normal          :
          :   max. optcycles                   318          :
          :   ANC micro-cycles                  20          :
          :   degrees of freedom               312          :
          :.................................................:
          :   RF solver                   davidson          :
          :   input Hessian                  false          :
          :   write xtbopt.log                true          :
          :   linear?                        false          :
          :   energy convergence         0.5000000E-05 Eh   :
          :   grad. convergence          0.1000000E-02 Eh/α :
          :   maximium RF displ.         2.0000000          :
          :   Hlow (freq-cutoff)         0.5000000E-02      :
          :   Hmax (freq-cutoff)         5.0000000          :
          :   S6 in model hess.         20.0000000          :
          ...................................................

generating ANC from model Hessian ...
Using Lindh-Hessian (1995)
 Shifting diagonal of input Hessian by   4.986322678558165E-003
 Lowest  eigenvalues of input Hessian
   -0.000000   -0.000000   -0.000000   -0.000000   -0.000000    0.000000
    0.005000    0.005029    0.005038    0.005048    0.005071    0.005159
    0.005190    0.005251    0.005293    0.005343    0.005368    0.005454
 Highest eigenvalues
    2.104439    2.113107    2.119742    2.125187    2.542809    2.554861
 

........................................................................
.............................. CYCLE    1 ..............................
........................................................................
   1   -192.5858525 -0.192586E+03  0.132E-04    0.83       0.0  T
   2   -192.5858525  0.944453E-10  0.118E-04    0.83      82.5  T
   3   -192.5858525 -0.120986E-08  0.497E-05    0.83     195.6  T
     SCC iter.                  ...        0 min,  0.030 sec
     gradient                   ...        0 min,  0.016 sec
 * total energy  :  -190.1316720 Eh     change        0.3825949E-07 Eh
   gradient norm :     0.2344320 Eh/α   predicted     0.0000000E+00 (-100.00%)
   displ. norm   :     0.3596235 α      lambda       -0.5386153E-01
   maximum displ.:     0.0788457 α      in ANC's #204, #82, #46, ...

........................................................................
.............................. CYCLE    2 ..............................
........................................................................
   1   -192.7099705 -0.192710E+03  0.276E-01    1.13       0.0  T
   2   -192.7105117 -0.541268E-03  0.169E-01    1.06       1.0  T
   3   -192.7107639 -0.252136E-03  0.113E-01    1.07       1.0  T
   4   -192.7115007 -0.736843E-03  0.315E-02    1.06       1.0  T
   5   -192.7115517 -0.509850E-04  0.171E-02    1.06       1.0  T
   6   -192.7115718 -0.200440E-04  0.816E-03    1.06       1.2  T
   7   -192.7115763 -0.451637E-05  0.287E-03    1.06       3.4  T
   8   -192.7115767 -0.403262E-06  0.129E-03    1.06       7.5  T
     SCC iter.                  ...        0 min,  0.074 sec
     gradient                   ...        0 min,  0.016 sec
 * total energy  :  -190.1701982 Eh     change       -0.3852623E-01 Eh
   gradient norm :     0.1112607 Eh/α   predicted    -0.3041377E-01 ( -21.06%)
   displ. norm   :     0.4030872 α      lambda       -0.2185666E-01
   maximum displ.:     0.1303522 α      in ANC's #46, #48, #64, ...

........................................................................
.............................. CYCLE    3 ..............................
........................................................................
   1   -192.7699654 -0.192770E+03  0.245E-01    1.12       0.0  T
   2   -192.7704779 -0.512443E-03  0.144E-01    1.09       1.0  T
   3   -192.7705631 -0.852580E-04  0.956E-02    1.08       1.0  T
   4   -192.7710609 -0.497790E-03  0.231E-02    1.08       1.0  T
   5   -192.7710870 -0.261358E-04  0.124E-02    1.08       1.0  T
   6   -192.7710965 -0.947321E-05  0.612E-03    1.08       1.6  T
   7   -192.7710988 -0.230434E-05  0.259E-03    1.08       3.8  T
   8   -192.7710992 -0.370553E-06  0.113E-03    1.08       8.6  T
     SCC iter.                  ...        0 min,  0.074 sec
     gradient                   ...        0 min,  0.016 sec
 * total energy  :  -190.1828851 Eh     change       -0.1268693E-01 Eh
   gradient norm :     0.0282528 Eh/α   predicted    -0.1270397E-01 (   0.13%)
   displ. norm   :     0.4994016 α      lambda       -0.5400468E-02
   maximum displ.:     0.1700660 α      in ANC's #46, #31, #28, ...

........................................................................
.............................. CYCLE    4 ..............................
........................................................................
   1   -192.7725034 -0.192773E+03  0.153E-01    1.05       0.0  T
   2   -192.7725421 -0.386533E-04  0.882E-02    1.05       1.0  T
   3   -192.7724391  0.102953E-03  0.360E-02    1.06       1.0  T
   4   -192.7725475 -0.108415E-03  0.122E-02    1.06       1.0  T
   5   -192.7725589 -0.114129E-04  0.537E-03    1.06       1.8  T
   6   -192.7725607 -0.176311E-05  0.225E-03    1.06       4.3  T
   7   -192.7725609 -0.246068E-06  0.970E-04    1.06      10.0  T
     SCC iter.                  ...        0 min,  0.066 sec
     gradient                   ...        0 min,  0.016 sec
 * total energy  :  -190.1873647 Eh     change       -0.4479511E-02 Eh
   gradient norm :     0.0185416 Eh/α   predicted    -0.3373681E-02 ( -24.69%)
   displ. norm   :     0.7304195 α      lambda       -0.5909352E-02
   maximum displ.:     0.2994338 α      in ANC's #46, #31, #30, ...

........................................................................
.............................. CYCLE    5 ..............................
........................................................................
   1   -192.7612873 -0.192761E+03  0.236E-01    1.05       0.0  T
   2   -192.7613354 -0.481037E-04  0.136E-01    1.05       1.0  T
   3   -192.7611568  0.178556E-03  0.443E-02    1.06       1.0  T
   4   -192.7613486 -0.191755E-03  0.139E-02    1.06       1.0  T
   5   -192.7613610 -0.124749E-04  0.660E-03    1.05       1.5  T
   6   -192.7613631 -0.204363E-05  0.303E-03    1.05       3.2  T
   7   -192.7613635 -0.467421E-06  0.124E-03    1.05       7.8  T
   8   -192.7613636 -0.510194E-07  0.749E-04    1.05      13.0  T
     SCC iter.                  ...        0 min,  0.075 sec
     gradient                   ...        0 min,  0.016 sec
 * total energy  :  -190.1915391 Eh     change       -0.4174461E-02 Eh
   gradient norm :     0.0248564 Eh/α   predicted    -0.4531036E-02 (   8.54%)
   displ. norm   :     0.7292767 α      lambda       -0.5811334E-02
   maximum displ.:     0.2169962 α      in ANC's #30, #31, #28, ...

........................................................................
.............................. CYCLE    6 ..............................
........................................................................
   1   -192.7514424 -0.192751E+03  0.323E-01    1.06       0.0  T
   2   -192.7515385 -0.961806E-04  0.182E-01    1.06       1.0  T
   3   -192.7514130  0.125568E-03  0.413E-02    1.07       1.0  T
   4   -192.7515773 -0.164357E-03  0.140E-02    1.07       1.0  T
   5   -192.7515853 -0.800799E-05  0.812E-03    1.06       1.2  T
   6   -192.7515884 -0.311871E-05  0.350E-03    1.06       2.8  T
   7   -192.7515891 -0.698962E-06  0.134E-03    1.06       7.2  T
     SCC iter.                  ...        0 min,  0.065 sec
     gradient                   ...        0 min,  0.016 sec
 * total energy  :  -190.1941428 Eh     change       -0.2603706E-02 Eh
   gradient norm :     0.0356184 Eh/α   predicted    -0.4451035E-02 (  70.95%)
   displ. norm   :     0.4310493 α      lambda       -0.4221307E-02
   maximum displ.:     0.1593759 α      in ANC's #30, #31, #28, ...

........................................................................
.............................. CYCLE    7 ..............................
........................................................................
   1   -192.7664748 -0.192766E+03  0.180E-01    1.08       0.0  T
   2   -192.7665075 -0.326992E-04  0.102E-01    1.08       1.0  T
   3   -192.7664859  0.216252E-04  0.185E-02    1.08       1.0  T
   4   -192.7665200 -0.340895E-04  0.660E-03    1.08       1.5  T
   5   -192.7665204 -0.466009E-06  0.438E-03    1.08       2.2  T
   6   -192.7665214 -0.962032E-06  0.213E-03    1.08       4.6  T
     SCC iter.                  ...        0 min,  0.057 sec
     gradient                   ...        0 min,  0.016 sec
 * total energy  :  -190.1970208 Eh     change       -0.2877934E-02 Eh
   gradient norm :     0.0350623 Eh/α   predicted    -0.2502821E-02 ( -13.03%)
   displ. norm   :     0.5548092 α      lambda       -0.4712892E-02
   maximum displ.:     0.1792789 α      in ANC's #46, #30, #21, ...

........................................................................
.............................. CYCLE    8 ..............................
........................................................................
   1   -192.7878012 -0.192788E+03  0.233E-01    1.10       0.0  T
   2   -192.7878701 -0.689708E-04  0.131E-01    1.11       1.0  T
   3   -192.7878197  0.504538E-04  0.291E-02    1.09       1.0  T
   4   -192.7878895 -0.697966E-04  0.118E-02    1.10       1.0  T
   5   -192.7878953 -0.581597E-05  0.638E-03    1.10       1.5  T
   6   -192.7878976 -0.225579E-05  0.264E-03    1.10       3.7  T
   7   -192.7878979 -0.352166E-06  0.109E-03    1.10       8.9  T
     SCC iter.                  ...        0 min,  0.069 sec
     gradient                   ...        0 min,  0.018 sec
 * total energy  :  -190.1995337 Eh     change       -0.2512966E-02 Eh
   gradient norm :     0.0251033 Eh/α   predicted    -0.3081806E-02 (  22.64%)
   displ. norm   :     0.6415250 α      lambda       -0.3566492E-02
   maximum displ.:     0.2368914 α      in ANC's #30, #40, #31, ...

........................................................................
.............................. CYCLE    9 ..............................
........................................................................
   1   -192.7768724 -0.192777E+03  0.210E-01    1.09       0.0  T
   2   -192.7769055 -0.330950E-04  0.121E-01    1.10       1.0  T
   3   -192.7768528  0.527495E-04  0.287E-02    1.10       1.0  T
   4   -192.7769181 -0.653677E-04  0.104E-02    1.10       1.0  T
   5   -192.7769180  0.863833E-07  0.723E-03    1.10       1.3  T
   6   -192.7769228 -0.473418E-05  0.233E-03    1.10       4.2  T
   7   -192.7769231 -0.335900E-06  0.982E-04    1.10       9.9  T
     SCC iter.                  ...        0 min,  0.065 sec
     gradient                   ...        0 min,  0.016 sec
 * total energy  :  -190.2021441 Eh     change       -0.2610363E-02 Eh
   gradient norm :     0.0256967 Eh/α   predicted    -0.2517155E-02 (  -3.57%)
   displ. norm   :     0.5859247 α      lambda       -0.3468567E-02
   maximum displ.:     0.2309088 α      in ANC's #30, #33, #36, ...

........................................................................
.............................. CYCLE   10 ..............................
........................................................................
   1   -192.7751119 -0.192775E+03  0.221E-01    1.09       0.0  T
   2   -192.7751627 -0.508240E-04  0.125E-01    1.10       1.0  T
   3   -192.7749746  0.188099E-03  0.472E-02    1.10       1.0  T
   4   -192.7751917 -0.217169E-03  0.127E-02    1.10       1.0  T
   5   -192.7751922 -0.439772E-06  0.921E-03    1.10       1.1  T
   6   -192.7751983 -0.614584E-05  0.364E-03    1.10       2.7  T
   7   -192.7751994 -0.104443E-05  0.128E-03    1.10       7.6  T
   8   -192.7751994 -0.307313E-07  0.783E-04    1.10      12.4  T
     SCC iter.                  ...        0 min,  0.074 sec
     gradient                   ...        0 min,  0.016 sec
 * total energy  :  -190.2039563 Eh     change       -0.1812166E-02 Eh
   gradient norm :     0.0389273 Eh/α   predicted    -0.2329682E-02 (  28.56%)
   displ. norm   :     0.5747225 α      lambda       -0.2972902E-02
   maximum displ.:     0.1966385 α      in ANC's #30, #40, #36, ...

........................................................................
.............................. CYCLE   11 ..............................
........................................................................
   1   -192.7705087 -0.192771E+03  0.188E-01    1.09       0.0  T
   2   -192.7705384 -0.297612E-04  0.107E-01    1.10       1.0  T
   3   -192.7704673  0.710967E-04  0.302E-02    1.10       1.0  T
   4   -192.7705524 -0.850172E-04  0.945E-03    1.10       1.0  T
   5   -192.7705539 -0.150912E-05  0.484E-03    1.10       2.0  T
   6   -192.7705553 -0.139480E-05  0.238E-03    1.10       4.1  T
     SCC iter.                  ...        0 min,  0.056 sec
     gradient                   ...        0 min,  0.016 sec
 * total energy  :  -190.2057995 Eh     change       -0.1843228E-02 Eh
   gradient norm :     0.0257458 Eh/α   predicted    -0.1977438E-02 (   7.28%)
   displ. norm   :     0.4202639 α      lambda       -0.2075817E-02
   maximum displ.:     0.1265057 α      in ANC's #30, #32, #36, ...

........................................................................
.............................. CYCLE   12 ..............................
........................................................................
   1   -192.7873368 -0.192787E+03  0.144E-01    1.15       0.0  T
   2   -192.7873608 -0.239969E-04  0.802E-02    1.14       1.0  T
   3   -192.7872310  0.129809E-03  0.374E-02    1.14       1.0  T
   4   -192.7873683 -0.137308E-03  0.118E-02    1.14       1.0  T
   5   -192.7873756 -0.724596E-05  0.571E-03    1.14       1.7  T
   6   -192.7873772 -0.159855E-05  0.260E-03    1.14       3.7  T
   7   -192.7873778 -0.568353E-06  0.828E-04    1.14      11.7  T
     SCC iter.                  ...        0 min,  0.064 sec
     gradient                   ...        0 min,  0.016 sec
 * total energy  :  -190.2071061 Eh     change       -0.1306647E-02 Eh
   gradient norm :     0.0208236 Eh/α   predicted    -0.1221232E-02 (  -6.54%)
   displ. norm   :     0.6289849 α      lambda       -0.2424036E-02
   maximum displ.:     0.1960647 α      in ANC's #30, #36, #42, ...

........................................................................
.............................. CYCLE   13 ..............................
........................................................................
   1   -192.7875614 -0.192788E+03  0.200E-01    1.09       0.0  T
   2   -192.7875900 -0.285300E-04  0.116E-01    1.11       1.0  T
   3   -192.7873262  0.263762E-03  0.542E-02    1.11       1.0  T
   4   -192.7876190 -0.292835E-03  0.110E-02    1.12       1.0  T
   5   -192.7876188  0.274529E-06  0.868E-03    1.11       1.1  T
   6   -192.7876248 -0.602569E-05  0.274E-03    1.11       3.5  T
   7   -192.7876253 -0.522482E-06  0.111E-03    1.11       8.7  T
   8   -192.7876253 -0.263121E-07  0.666E-04    1.11      14.6  T
     SCC iter.                  ...        0 min,  0.074 sec
     gradient                   ...        0 min,  0.016 sec
 * total energy  :  -190.2080627 Eh     change       -0.9565810E-03 Eh
   gradient norm :     0.0284126 Eh/α   predicted    -0.1691520E-02 (  76.83%)
   displ. norm   :     0.3650178 α      lambda       -0.2035385E-02
   maximum displ.:     0.1349139 α      in ANC's #30, #22, #23, ...

........................................................................
.............................. CYCLE   14 ..............................
........................................................................
   1   -192.7879701 -0.192788E+03  0.124E-01    1.09       0.0  T
   2   -192.7879887 -0.185769E-04  0.698E-02    1.09       1.0  T
   3   -192.7878587  0.129969E-03  0.366E-02    1.09       1.0  T
   4   -192.7879996 -0.140897E-03  0.101E-02    1.09       1.0  T
   5   -192.7880029 -0.329070E-05  0.550E-03    1.09       1.8  T
   6   -192.7880044 -0.157201E-05  0.257E-03    1.09       3.8  T
     SCC iter.                  ...        0 min,  0.056 sec
     gradient                   ...        0 min,  0.016 sec
 * total energy  :  -190.2087992 Eh     change       -0.7364814E-03 Eh
   gradient norm :     0.0269747 Eh/α   predicted    -0.1153289E-02 (  56.59%)
   displ. norm   :     0.3908326 α      lambda       -0.2104927E-02
   maximum displ.:     0.1131214 α      in ANC's #33, #22, #23, ...

........................................................................
.............................. CYCLE   15 ..............................
........................................................................
   1   -192.7814375 -0.192781E+03  0.113E-01    1.15       0.0  T
   2   -192.7814517 -0.142074E-04  0.656E-02    1.16       1.0  T
   3   -192.7812278  0.223904E-03  0.498E-02    1.15       1.0  T
   4   -192.7814701 -0.242216E-03  0.102E-02    1.16       1.0  T
   5   -192.7814774 -0.739225E-05  0.450E-03    1.16       2.2  T
   6   -192.7814785 -0.101876E-05  0.190E-03    1.16       5.1  T
   7   -192.7814787 -0.199499E-06  0.692E-04    1.16      14.0  T
     SCC iter.                  ...        0 min,  0.065 sec
     gradient                   ...        0 min,  0.016 sec
 * total energy  :  -190.2093252 Eh     change       -0.5259707E-03 Eh
   gradient norm :     0.0260747 Eh/α   predicted    -0.1213231E-02 ( 130.67%)
   displ. norm   :     0.2860066 α      lambda       -0.1883027E-02
   maximum displ.:     0.0873767 α      in ANC's #8, #36, #39, ...

........................................................................
.............................. CYCLE   16 ..............................
........................................................................
   1   -192.8024961 -0.192802E+03  0.814E-02    1.18       0.0  T
   2   -192.8025079 -0.117908E-04  0.475E-02    1.18       1.0  T
   3   -192.8024691  0.388234E-04  0.213E-02    1.18       1.0  T
   4   -192.8025132 -0.441073E-04  0.517E-03    1.18       1.9  T
   5   -192.8025143 -0.109413E-05  0.312E-03    1.18       3.1  T
   6   -192.8025148 -0.525668E-06  0.157E-03    1.18       6.2  T
     SCC iter.                  ...        0 min,  0.056 sec
     gradient                   ...        0 min,  0.016 sec
 * total energy  :  -190.2097978 Eh     change       -0.4726444E-03 Eh
   gradient norm :     0.0308904 Eh/α   predicted    -0.1018534E-02 ( 115.50%)
   displ. norm   :     0.3257654 α      lambda       -0.1885646E-02
   maximum displ.:     0.1288148 α      in ANC's #30, #36, #23, ...

........................................................................
.............................. CYCLE   17 ..............................
........................................................................
   1   -192.7934434 -0.192793E+03  0.107E-01    1.06       0.0  T
   2   -192.7934739 -0.305806E-04  0.634E-02    1.08       1.0  T
   3   -192.7933827  0.912720E-04  0.336E-02    1.09       1.0  T
   4   -192.7934860 -0.103355E-03  0.872E-03    1.09       1.1  T
   5   -192.7934907 -0.463892E-05  0.436E-03    1.10       2.2  T
   6   -192.7934916 -0.956170E-06  0.236E-03    1.09       4.1  T
     SCC iter.                  ...        0 min,  0.056 sec
     gradient                   ...        0 min,  0.016 sec
 * total energy  :  -190.2102759 Eh     change       -0.4781288E-03 Eh
   gradient norm :     0.0268950 Eh/α   predicted    -0.1042880E-02 ( 118.12%)
   displ. norm   :     0.2476009 α      lambda       -0.1468641E-02
   maximum displ.:     0.0794962 α      in ANC's #22, #27, #31, ...

........................................................................
.............................. CYCLE   18 ..............................
........................................................................
   1   -192.7952335 -0.192795E+03  0.805E-02    1.16       0.0  T
   2   -192.7952513 -0.178334E-04  0.478E-02    1.16       1.0  T
   3   -192.7951700  0.813004E-04  0.290E-02    1.16       1.0  T
   4   -192.7952561 -0.861201E-04  0.958E-03    1.16       1.0  T
   5   -192.7952630 -0.682141E-05  0.385E-03    1.16       2.5  T
   6   -192.7952635 -0.528336E-06  0.204E-03    1.16       4.8  T
   7   -192.7952637 -0.224739E-06  0.718E-04    1.16      13.5  T
     SCC iter.                  ...        0 min,  0.065 sec
     gradient                   ...        0 min,  0.016 sec
 * total energy  :  -190.2107721 Eh     change       -0.4961457E-03 Eh
   gradient norm :     0.0249889 Eh/α   predicted    -0.7793400E-03 (  57.08%)
   displ. norm   :     0.2675011 α      lambda       -0.1257656E-02
   maximum displ.:     0.0963614 α      in ANC's #8, #15, #5, ...

........................................................................
.............................. CYCLE   19 ..............................
........................................................................
   1   -192.7926207 -0.192793E+03  0.732E-02    1.16       0.0  T
   2   -192.7926278 -0.708147E-05  0.432E-02    1.17       1.0  T
   3   -192.7924868  0.141045E-03  0.399E-02    1.16       1.0  T
   4   -192.7926466 -0.159808E-03  0.687E-03    1.16       1.4  T
   5   -192.7926496 -0.304488E-05  0.334E-03    1.16       2.9  T
   6   -192.7926503 -0.633391E-06  0.146E-03    1.16       6.6  T
     SCC iter.                  ...        0 min,  0.057 sec
     gradient                   ...        0 min,  0.016 sec
 * total energy  :  -190.2112469 Eh     change       -0.4747995E-03 Eh
   gradient norm :     0.0188111 Eh/α   predicted    -0.6738309E-03 (  41.92%)
   displ. norm   :     0.3273562 α      lambda       -0.1054557E-02
   maximum displ.:     0.1395681 α      in ANC's #8, #15, #7, ...

........................................................................
.............................. CYCLE   20 ..............................
........................................................................
   1   -192.7966104 -0.192797E+03  0.847E-02    1.15       0.0  T
   2   -192.7966212 -0.108358E-04  0.488E-02    1.16       1.0  T
   3   -192.7965669  0.542990E-04  0.254E-02    1.15       1.0  T
   4   -192.7966283 -0.613606E-04  0.547E-03    1.16       1.8  T
   5   -192.7966294 -0.113481E-05  0.303E-03    1.16       3.2  T
   6   -192.7966299 -0.473401E-06  0.135E-03    1.16       7.2  T
   7   -192.7966300 -0.902060E-07  0.528E-04    1.16      18.4  T
     SCC iter.                  ...        0 min,  0.065 sec
     gradient                   ...        0 min,  0.016 sec
 * total energy  :  -190.2115431 Eh     change       -0.2962407E-03 Eh
   gradient norm :     0.0261054 Eh/α   predicted    -0.5837869E-03 (  97.07%)
   displ. norm   :     0.3414156 α      lambda       -0.1336406E-02
   maximum displ.:     0.1568527 α      in ANC's #8, #15, #7, ...
 * RMSD in coord.:     0.6707315 α      energy gain  -0.7987109E-01 Eh

generating ANC from model Hessian ...
Using Lindh-Hessian (1995)
 Shifting diagonal of input Hessian by   4.987008673086241E-003
 Lowest  eigenvalues of input Hessian
   -0.000000    0.000000    0.000000    0.000000    0.000000    0.000000
    0.005000    0.005021    0.005036    0.005044    0.005078    0.005167
    0.005229    0.005286    0.005340    0.005388    0.005459    0.005524
 Highest eigenvalues
    2.145953    2.198727    2.264486    2.264833    2.665777    2.676767
 

........................................................................
.............................. CYCLE   21 ..............................
........................................................................
   1   -192.8021843 -0.192802E+03  0.896E-02    1.16       0.0  T
   2   -192.8021969 -0.125487E-04  0.522E-02    1.15       1.0  T
   3   -192.8021377  0.591824E-04  0.245E-02    1.16       1.0  T
   4   -192.8022033 -0.656443E-04  0.616E-03    1.16       1.6  T
   5   -192.8022054 -0.204074E-05  0.342E-03    1.16       2.8  T
   6   -192.8022060 -0.605124E-06  0.178E-03    1.16       5.5  T
   7   -192.8022062 -0.169866E-06  0.644E-04    1.16      15.1  T
   8   -192.8022062 -0.157917E-07  0.334E-04    1.16      29.1  T
     SCC iter.                  ...        0 min,  0.074 sec
     gradient                   ...        0 min,  0.016 sec
 * total energy  :  -190.2121788 Eh     change       -0.6357175E-03 Eh
   gradient norm :     0.0210490 Eh/α   predicted     0.0000000E+00 (-100.00%)
   displ. norm   :     0.2197570 α      lambda       -0.8954019E-03
   maximum displ.:     0.1275852 α      in ANC's #11, #40, #12, ...

........................................................................
.............................. CYCLE   22 ..............................
........................................................................
   1   -192.7959525 -0.192796E+03  0.680E-02    1.14       0.0  T
   2   -192.7959568 -0.426599E-05  0.394E-02    1.15       1.0  T
   3   -192.7959271  0.296475E-04  0.178E-02    1.14       1.0  T
   4   -192.7959604 -0.332566E-04  0.322E-03    1.15       3.0  T
   5   -192.7959607 -0.278818E-06  0.198E-03    1.15       4.9  T
   6   -192.7959609 -0.177608E-06  0.931E-04    1.15      10.4  T
     SCC iter.                  ...        0 min,  0.056 sec
     gradient                   ...        0 min,  0.016 sec
 * total energy  :  -190.2128034 Eh     change       -0.6245908E-03 Eh
   gradient norm :     0.0068151 Eh/α   predicted    -0.4693225E-03 ( -24.86%)
   displ. norm   :     0.2665825 α      lambda       -0.5974997E-03
   maximum displ.:     0.1278046 α      in ANC's #11, #40, #29, ...

........................................................................
.............................. CYCLE   23 ..............................
........................................................................
   1   -192.7920812 -0.192792E+03  0.111E-01    1.13       0.0  T
   2   -192.7920926 -0.113995E-04  0.626E-02    1.14       1.0  T
   3   -192.7920613  0.313132E-04  0.196E-02    1.13       1.0  T
   4   -192.7920997 -0.384415E-04  0.419E-03    1.14       2.3  T
   5   -192.7920999 -0.185944E-06  0.282E-03    1.14       3.4  T
   6   -192.7921003 -0.400891E-06  0.108E-03    1.14       9.0  T
     SCC iter.                  ...        0 min,  0.056 sec
     gradient                   ...        0 min,  0.016 sec
 * total energy  :  -190.2130779 Eh     change       -0.2744314E-03 Eh
   gradient norm :     0.0106246 Eh/α   predicted    -0.3199848E-03 (  16.60%)
   displ. norm   :     0.2922292 α      lambda       -0.5561905E-03
   maximum displ.:     0.1475367 α      in ANC's #11, #40, #22, ...

........................................................................
.............................. CYCLE   24 ..............................
........................................................................
   1   -192.7927355 -0.192793E+03  0.952E-02    1.13       0.0  T
   2   -192.7927421 -0.653922E-05  0.548E-02    1.13       1.0  T
   3   -192.7927252  0.169036E-04  0.144E-02    1.13       1.0  T
   4   -192.7927456 -0.204213E-04  0.393E-03    1.13       2.5  T
   5   -192.7927459 -0.274815E-06  0.216E-03    1.13       4.5  T
   6   -192.7927461 -0.239802E-06  0.827E-04    1.13      11.7  T
     SCC iter.                  ...        0 min,  0.056 sec
     gradient                   ...        0 min,  0.016 sec
 * total energy  :  -190.2134545 Eh     change       -0.3765963E-03 Eh
   gradient norm :     0.0109100 Eh/α   predicted    -0.3018475E-03 ( -19.85%)
   displ. norm   :     0.3501216 α      lambda       -0.4853834E-03
   maximum displ.:     0.1985656 α      in ANC's #11, #12, #14, ...

........................................................................
.............................. CYCLE   25 ..............................
........................................................................
   1   -192.7929589 -0.192793E+03  0.989E-02    1.13       0.0  T
   2   -192.7929650 -0.607511E-05  0.569E-02    1.13       1.0  T
   3   -192.7929478  0.171896E-04  0.151E-02    1.13       1.0  T
   4   -192.7929683 -0.205105E-04  0.416E-03    1.13       2.3  T
   5   -192.7929685 -0.199634E-06  0.232E-03    1.13       4.2  T
   6   -192.7929689 -0.368774E-06  0.748E-04    1.13      13.0  T
     SCC iter.                  ...        0 min,  0.056 sec
     gradient                   ...        0 min,  0.016 sec
 * total energy  :  -190.2138203 Eh     change       -0.3658923E-03 Eh
   gradient norm :     0.0087272 Eh/α   predicted    -0.2724429E-03 ( -25.54%)
   displ. norm   :     0.4657356 α      lambda       -0.6041570E-03
   maximum displ.:     0.2662516 α      in ANC's #11, #12, #14, ...

........................................................................
.............................. CYCLE   26 ..............................
........................................................................
   1   -192.7948881 -0.192795E+03  0.127E-01    1.15       0.0  T
   2   -192.7948981 -0.100776E-04  0.726E-02    1.15       1.0  T
   3   -192.7948800  0.181418E-04  0.156E-02    1.15       1.0  T
   4   -192.7949023 -0.223221E-04  0.556E-03    1.15       1.7  T
   5   -192.7949031 -0.778829E-06  0.275E-03    1.14       3.5  T
   6   -192.7949036 -0.503377E-06  0.964E-04    1.15      10.1  T
     SCC iter.                  ...        0 min,  0.056 sec
     gradient                   ...        0 min,  0.016 sec
 * total energy  :  -190.2142027 Eh     change       -0.3823290E-03 Eh
   gradient norm :     0.0077779 Eh/α   predicted    -0.3676030E-03 (  -3.85%)
   displ. norm   :     0.4075321 α      lambda       -0.4721876E-03
   maximum displ.:     0.2443953 α      in ANC's #11, #12, #14, ...

........................................................................
.............................. CYCLE   27 ..............................
........................................................................
   1   -192.7976584 -0.192798E+03  0.113E-01    1.15       0.0  T
   2   -192.7976673 -0.894433E-05  0.639E-02    1.15       1.0  T
   3   -192.7976593  0.802908E-05  0.119E-02    1.15       1.0  T
   4   -192.7976711 -0.118093E-04  0.450E-03    1.15       2.2  T
   5   -192.7976713 -0.187965E-06  0.240E-03    1.15       4.0  T
   6   -192.7976718 -0.505804E-06  0.771E-04    1.15      12.6  T
     SCC iter.                  ...        0 min,  0.056 sec
     gradient                   ...        0 min,  0.016 sec
 * total energy  :  -190.2145586 Eh     change       -0.3559600E-03 Eh
   gradient norm :     0.0075565 Eh/α   predicted    -0.2753051E-03 ( -22.66%)
   displ. norm   :     0.4442040 α      lambda       -0.4251125E-03
   maximum displ.:     0.2691597 α      in ANC's #11, #12, #14, ...

........................................................................
.............................. CYCLE   28 ..............................
........................................................................
   1   -192.7976510 -0.192798E+03  0.114E-01    1.15       0.0  T
   2   -192.7976593 -0.829326E-05  0.649E-02    1.15       1.0  T
   3   -192.7976584  0.947134E-06  0.786E-03    1.15       1.2  T
   4   -192.7976618 -0.348045E-05  0.457E-03    1.15       2.1  T
   5   -192.7976627 -0.879565E-06  0.193E-03    1.15       5.0  T
   6   -192.7976630 -0.273743E-06  0.646E-04    1.15      15.0  T
     SCC iter.                  ...        0 min,  0.057 sec
     gradient                   ...        0 min,  0.017 sec
 * total energy  :  -190.2149007 Eh     change       -0.3420570E-03 Eh
   gradient norm :     0.0065883 Eh/α   predicted    -0.2544992E-03 ( -25.60%)
   displ. norm   :     0.5202807 α      lambda       -0.4597224E-03
   maximum displ.:     0.3196958 α      in ANC's #11, #12, #14, ...

........................................................................
.............................. CYCLE   29 ..............................
........................................................................
   1   -192.7978166 -0.192798E+03  0.127E-01    1.15       0.0  T
   2   -192.7978263 -0.968954E-05  0.731E-02    1.16       1.0  T
   3   -192.7978184  0.787056E-05  0.117E-02    1.16       1.0  T
   4   -192.7978298 -0.113870E-04  0.506E-03    1.16       1.9  T
   5   -192.7978303 -0.524901E-06  0.307E-03    1.16       3.2  T
   6   -192.7978310 -0.712408E-06  0.933E-04    1.16      10.4  T
   7   -192.7978310 -0.409649E-07  0.536E-04    1.16      18.1  T
     SCC iter.                  ...        0 min,  0.065 sec
     gradient                   ...        0 min,  0.016 sec
 * total energy  :  -190.2152852 Eh     change       -0.3844781E-03 Eh
   gradient norm :     0.0068503 Eh/α   predicted    -0.2920893E-03 ( -24.03%)
   displ. norm   :     0.6001032 α      lambda       -0.5118982E-03
   maximum displ.:     0.3706010 α      in ANC's #11, #12, #2, ...

........................................................................
.............................. CYCLE   30 ..............................
........................................................................
   1   -192.7985083 -0.192799E+03  0.143E-01    1.16       0.0  T
   2   -192.7985202 -0.119088E-04  0.824E-02    1.16       1.0  T
   3   -192.7985135  0.668712E-05  0.116E-02    1.16       1.0  T
   4   -192.7985247 -0.111622E-04  0.541E-03    1.16       1.8  T
   5   -192.7985250 -0.391264E-06  0.345E-03    1.16       2.8  T
   6   -192.7985260 -0.935721E-06  0.103E-03    1.16       9.4  T
   7   -192.7985260 -0.405372E-07  0.585E-04    1.16      16.6  T
     SCC iter.                  ...        0 min,  0.065 sec
     gradient                   ...        0 min,  0.016 sec
 * total energy  :  -190.2157226 Eh     change       -0.4374505E-03 Eh
   gradient norm :     0.0069430 Eh/α   predicted    -0.3481302E-03 ( -20.42%)
   displ. norm   :     0.6543968 α      lambda       -0.5289038E-03
   maximum displ.:     0.4070041 α      in ANC's #11, #12, #2, ...

........................................................................
.............................. CYCLE   31 ..............................
........................................................................
   1   -192.7961834 -0.192796E+03  0.162E-01    1.15       0.0  T
   2   -192.7962000 -0.165657E-04  0.933E-02    1.16       1.0  T
   3   -192.7961967  0.326524E-05  0.123E-02    1.16       1.0  T
   4   -192.7962056 -0.887872E-05  0.647E-03    1.16       1.5  T
   5   -192.7962064 -0.794212E-06  0.346E-03    1.16       2.8  T
   6   -192.7962074 -0.101319E-05  0.129E-03    1.16       7.5  T
   7   -192.7962075 -0.888239E-07  0.619E-04    1.16      15.7  T
     SCC iter.                  ...        0 min,  0.065 sec
     gradient                   ...        0 min,  0.016 sec
 * total energy  :  -190.2161644 Eh     change       -0.4417990E-03 Eh
   gradient norm :     0.0080590 Eh/α   predicted    -0.3777003E-03 ( -14.51%)
   displ. norm   :     0.6667798 α      lambda       -0.5394009E-03
   maximum displ.:     0.4084676 α      in ANC's #11, #12, #6, ...

........................................................................
.............................. CYCLE   32 ..............................
........................................................................
   1   -192.7986511 -0.192799E+03  0.163E-01    1.15       0.0  T
   2   -192.7986677 -0.166204E-04  0.936E-02    1.15       1.0  T
   3   -192.7986490  0.187034E-04  0.185E-02    1.15       1.0  T
   4   -192.7986743 -0.252193E-04  0.762E-03    1.15       1.3  T
   5   -192.7986756 -0.135694E-05  0.281E-03    1.15       3.5  T
   6   -192.7986762 -0.610767E-06  0.130E-03    1.15       7.5  T
     SCC iter.                  ...        0 min,  0.056 sec
     gradient                   ...        0 min,  0.016 sec
 * total energy  :  -190.2165552 Eh     change       -0.3907644E-03 Eh
   gradient norm :     0.0090111 Eh/α   predicted    -0.3896162E-03 (  -0.29%)
   displ. norm   :     0.6941276 α      lambda       -0.4468675E-03
   maximum displ.:     0.4356574 α      in ANC's #11, #12, #6, ...

........................................................................
.............................. CYCLE   33 ..............................
........................................................................
   1   -192.7905933 -0.192791E+03  0.179E-01    1.15       0.0  T
   2   -192.7906154 -0.220873E-04  0.102E-01    1.15       1.0  T
   3   -192.7905903  0.251021E-04  0.207E-02    1.15       1.0  T
   4   -192.7906233 -0.329812E-04  0.837E-03    1.15       1.2  T
   5   -192.7906236 -0.376860E-06  0.544E-03    1.15       1.8  T
   6   -192.7906263 -0.261112E-05  0.137E-03    1.15       7.1  T
   7   -192.7906263 -0.800113E-07  0.803E-04    1.15      12.1  T
     SCC iter.                  ...        0 min,  0.065 sec
     gradient                   ...        0 min,  0.016 sec
 * total energy  :  -190.2168400 Eh     change       -0.2848522E-03 Eh
   gradient norm :     0.0134424 Eh/α   predicted    -0.3310915E-03 (  16.23%)
   displ. norm   :     0.4037048 α      lambda       -0.3487641E-03
   maximum displ.:     0.2351002 α      in ANC's #11, #6, #2, ...

........................................................................
.............................. CYCLE   34 ..............................
........................................................................
   1   -192.7965289 -0.192797E+03  0.104E-01    1.15       0.0  T
   2   -192.7965397 -0.108248E-04  0.579E-02    1.15       1.0  T
   3   -192.7965227  0.169938E-04  0.163E-02    1.15       1.0  T
   4   -192.7965426 -0.198888E-04  0.683E-03    1.15       1.4  T
   5   -192.7965430 -0.362185E-06  0.454E-03    1.15       2.1  T
   6   -192.7965448 -0.181959E-05  0.115E-03    1.15       8.5  T
   7   -192.7965449 -0.101177E-06  0.448E-04    1.15      21.7  T
     SCC iter.                  ...        0 min,  0.065 sec
     gradient                   ...        0 min,  0.016 sec
 * total energy  :  -190.2170883 Eh     change       -0.2482247E-03 Eh
   gradient norm :     0.0122019 Eh/α   predicted    -0.2028029E-03 ( -18.30%)
   displ. norm   :     0.5791884 α      lambda       -0.4556107E-03
   maximum displ.:     0.3456884 α      in ANC's #11, #6, #2, ...

........................................................................
.............................. CYCLE   35 ..............................
........................................................................
   1   -192.7975222 -0.192798E+03  0.145E-01    1.15       0.0  T
   2   -192.7975383 -0.160983E-04  0.828E-02    1.15       1.0  T
   3   -192.7974985  0.398697E-04  0.232E-02    1.15       1.0  T
   4   -192.7975455 -0.470535E-04  0.796E-03    1.15       1.2  T
   5   -192.7975448  0.686386E-06  0.561E-03    1.15       1.7  T
   6   -192.7975477 -0.291276E-05  0.156E-03    1.15       6.2  T
   7   -192.7975479 -0.173659E-06  0.709E-04    1.15      13.7  T
     SCC iter.                  ...        0 min,  0.065 sec
     gradient                   ...        0 min,  0.016 sec
 * total energy  :  -190.2173281 Eh     change       -0.2397974E-03 Eh
   gradient norm :     0.0118170 Eh/α   predicted    -0.3042288E-03 (  26.87%)
   displ. norm   :     0.4560599 α      lambda       -0.3356496E-03
   maximum displ.:     0.2690322 α      in ANC's #11, #6, #2, ...

........................................................................
.............................. CYCLE   36 ..............................
........................................................................
   1   -192.7972874 -0.192797E+03  0.117E-01    1.15       0.0  T
   2   -192.7972994 -0.120487E-04  0.654E-02    1.15       1.0  T
   3   -192.7972846  0.148277E-04  0.156E-02    1.16       1.0  T
   4   -192.7973028 -0.181747E-04  0.691E-03    1.16       1.4  T
   5   -192.7973041 -0.130867E-05  0.330E-03    1.16       2.9  T
   6   -192.7973051 -0.100951E-05  0.816E-04    1.16      11.9  T
   7   -192.7973051 -0.185062E-07  0.515E-04    1.16      18.8  T
     SCC iter.                  ...        0 min,  0.066 sec
     gradient                   ...        0 min,  0.016 sec
 * total energy  :  -190.2175823 Eh     change       -0.2542110E-03 Eh
   gradient norm :     0.0062994 Eh/α   predicted    -0.2027340E-03 ( -20.25%)
   displ. norm   :     0.4811917 α      lambda       -0.3260868E-03
   maximum displ.:     0.2578863 α      in ANC's #11, #6, #2, ...

........................................................................
.............................. CYCLE   37 ..............................
........................................................................
   1   -192.7992965 -0.192799E+03  0.118E-01    1.15       0.0  T
   2   -192.7993104 -0.139579E-04  0.657E-02    1.16       1.0  T
   3   -192.7993024  0.803578E-05  0.135E-02    1.16       1.0  T
   4   -192.7993134 -0.110532E-04  0.715E-03    1.16       1.4  T
   5   -192.7993153 -0.184708E-05  0.359E-03    1.16       2.7  T
   6   -192.7993164 -0.111080E-05  0.109E-03    1.16       8.9  T
   7   -192.7993165 -0.588668E-07  0.626E-04    1.16      15.5  T
     SCC iter.                  ...        0 min,  0.065 sec
     gradient                   ...        0 min,  0.016 sec
 * total energy  :  -190.2177936 Eh     change       -0.2112811E-03 Eh
   gradient norm :     0.0080537 Eh/α   predicted    -0.2007999E-03 (  -4.96%)
   displ. norm   :     0.6263707 α      lambda       -0.2704406E-03
   maximum displ.:     0.3755402 α      in ANC's #11, #2, #6, ...

........................................................................
.............................. CYCLE   38 ..............................
........................................................................
   1   -192.7941330 -0.192794E+03  0.154E-01    1.16       0.0  T
   2   -192.7941520 -0.190351E-04  0.869E-02    1.16       1.0  T
   3   -192.7941435  0.855910E-05  0.155E-02    1.16       1.0  T
   4   -192.7941562 -0.126777E-04  0.846E-03    1.16       1.1  T
   5   -192.7941578 -0.165774E-05  0.508E-03    1.16       1.9  T
   6   -192.7941602 -0.240777E-05  0.101E-03    1.16       9.6  T
   7   -192.7941602 -0.457723E-08  0.697E-04    1.16      13.9  T
     SCC iter.                  ...        0 min,  0.065 sec
     gradient                   ...        0 min,  0.016 sec
 * total energy  :  -190.2179488 Eh     change       -0.1552878E-03 Eh
   gradient norm :     0.0107815 Eh/α   predicted    -0.1882767E-03 (  21.24%)
   displ. norm   :     0.3497280 α      lambda       -0.2687392E-03
   maximum displ.:     0.1642803 α      in ANC's #11, #2, #6, ...

........................................................................
.............................. CYCLE   39 ..............................
........................................................................
   1   -192.8005635 -0.192801E+03  0.762E-02    1.17       0.0  T
   2   -192.8005694 -0.593354E-05  0.428E-02    1.17       1.0  T
   3   -192.8005502  0.192005E-04  0.159E-02    1.17       1.0  T
   4   -192.8005719 -0.216673E-04  0.531E-03    1.17       1.8  T
   5   -192.8005721 -0.194798E-06  0.363E-03    1.17       2.7  T
   6   -192.8005732 -0.109817E-05  0.855E-04    1.17      11.4  T
   7   -192.8005732 -0.415104E-07  0.469E-04    1.17      20.7  T
     SCC iter.                  ...        0 min,  0.065 sec
     gradient                   ...        0 min,  0.016 sec
 * total energy  :  -190.2180847 Eh     change       -0.1358454E-03 Eh
   gradient norm :     0.0103862 Eh/α   predicted    -0.1508077E-03 (  11.01%)
   displ. norm   :     0.4576314 α      lambda       -0.2247356E-03
   maximum displ.:     0.2698610 α      in ANC's #11, #2, #6, ...

........................................................................
.............................. CYCLE   40 ..............................
........................................................................
   1   -192.7947373 -0.192795E+03  0.994E-02    1.17       0.0  T
   2   -192.7947458 -0.849963E-05  0.565E-02    1.17       1.0  T
   3   -192.7947426  0.321276E-05  0.952E-03    1.17       1.0  T
   4   -192.7947476 -0.493600E-05  0.550E-03    1.17       1.8  T
   5   -192.7947487 -0.116349E-05  0.296E-03    1.17       3.3  T
   6   -192.7947495 -0.755407E-06  0.844E-04    1.17      11.5  T
     SCC iter.                  ...        0 min,  0.056 sec
     gradient                   ...        0 min,  0.016 sec
 * total energy  :  -190.2181988 Eh     change       -0.1140782E-03 Eh
   gradient norm :     0.0066392 Eh/α   predicted    -0.1359033E-03 (  19.13%)
   displ. norm   :     0.3025314 α      lambda       -0.2063451E-03
   maximum displ.:     0.1501380 α      in ANC's #11, #2, #6, ...

........................................................................
.............................. CYCLE   41 ..............................
........................................................................
   1   -192.7987489 -0.192799E+03  0.684E-02    1.17       0.0  T
   2   -192.7987537 -0.484581E-05  0.388E-02    1.17       1.0  T
   3   -192.7987459  0.779093E-05  0.102E-02    1.17       1.0  T
   4   -192.7987551 -0.920373E-05  0.432E-03    1.17       2.2  T
   5   -192.7987558 -0.732407E-06  0.209E-03    1.17       4.6  T
   6   -192.7987561 -0.254348E-06  0.678E-04    1.17      14.3  T
     SCC iter.                  ...        0 min,  0.056 sec
     gradient                   ...        0 min,  0.016 sec
 * total energy  :  -190.2183219 Eh     change       -0.1231573E-03 Eh
   gradient norm :     0.0090991 Eh/α   predicted    -0.1126169E-03 (  -8.56%)
   displ. norm   :     0.4882727 α      lambda       -0.1740635E-03
   maximum displ.:     0.2720961 α      in ANC's #11, #2, #6, ...

........................................................................
.............................. CYCLE   42 ..............................
........................................................................
   1   -192.7981771 -0.192798E+03  0.108E-01    1.17       0.0  T
   2   -192.7981877 -0.105444E-04  0.606E-02    1.17       1.0  T
   3   -192.7981828  0.489163E-05  0.119E-02    1.17       1.0  T
   4   -192.7981895 -0.667837E-05  0.689E-03    1.17       1.4  T
   5   -192.7981911 -0.159567E-05  0.342E-03    1.17       2.8  T
   6   -192.7981922 -0.109980E-05  0.857E-04    1.17      11.3  T
   7   -192.7981922 -0.199212E-07  0.527E-04    1.17      18.4  T
     SCC iter.                  ...        0 min,  0.065 sec
     gradient                   ...        0 min,  0.016 sec
 * total energy  :  -190.2184464 Eh     change       -0.1245129E-03 Eh
   gradient norm :     0.0066461 Eh/α   predicted    -0.1077826E-03 ( -13.44%)
   displ. norm   :     0.4278897 α      lambda       -0.1726428E-03
   maximum displ.:     0.2122964 α      in ANC's #11, #2, #6, ...
 * RMSD in coord.:     0.8876241 α      energy gain  -0.6903314E-02 Eh

generating ANC from model Hessian ...
Using Lindh-Hessian (1995)
 Shifting diagonal of input Hessian by   4.989219381226632E-003
 Lowest  eigenvalues of input Hessian
   -0.000000   -0.000000   -0.000000    0.000000    0.000000    0.000000
    0.005000    0.005018    0.005036    0.005057    0.005076    0.005161
    0.005245    0.005280    0.005342    0.005428    0.005498    0.005545
 Highest eigenvalues
    2.135667    2.186251    2.265425    2.267319    2.661956    2.662191
 

........................................................................
.............................. CYCLE   43 ..............................
........................................................................
   1   -192.8018511 -0.192802E+03  0.864E-02    1.17       0.0  T
   2   -192.8018577 -0.662064E-05  0.493E-02    1.17       1.0  T
   3   -192.8018517  0.598385E-05  0.107E-02    1.17       1.0  T
   4   -192.8018596 -0.784210E-05  0.513E-03    1.17       1.9  T
   5   -192.8018601 -0.539905E-06  0.306E-03    1.17       3.2  T
   6   -192.8018609 -0.787213E-06  0.931E-04    1.17      10.4  T
   7   -192.8018610 -0.513497E-07  0.437E-04    1.17      22.2  T
     SCC iter.                  ...        0 min,  0.065 sec
     gradient                   ...        0 min,  0.016 sec
 * total energy  :  -190.2185720 Eh     change       -0.1256013E-03 Eh
   gradient norm :     0.0047927 Eh/α   predicted     0.0000000E+00 (-100.00%)
   displ. norm   :     0.0770293 α      lambda       -0.8055938E-04
   maximum displ.:     0.0324757 α      in ANC's #2, #6, #19, ...

........................................................................
.............................. CYCLE   44 ..............................
........................................................................
   1   -192.8006486 -0.192801E+03  0.231E-02    1.17       0.0  T
   2   -192.8006492 -0.675993E-06  0.132E-02    1.17       1.0  T
   3   -192.8006471  0.216979E-05  0.537E-03    1.17       1.8  T
   4   -192.8006496 -0.256365E-05  0.128E-03    1.17       7.6  T
   5   -192.8006497 -0.332872E-07  0.874E-04    1.17      11.1  T
     SCC iter.                  ...        0 min,  0.047 sec
     gradient                   ...        0 min,  0.016 sec
 * total energy  :  -190.2186310 Eh     change       -0.5893073E-04 Eh
   gradient norm :     0.0023844 Eh/α   predicted    -0.4052860E-04 ( -31.23%)
   displ. norm   :     0.0992682 α      lambda       -0.7219745E-04
   maximum displ.:     0.0373609 α      in ANC's #19, #2, #6, ...

........................................................................
.............................. CYCLE   45 ..............................
........................................................................
   1   -192.7997051 -0.192800E+03  0.346E-02    1.17       0.0  T
   2   -192.7997066 -0.151567E-05  0.196E-02    1.17       1.0  T
   3   -192.7997055  0.110380E-05  0.446E-03    1.17       2.2  T
   4   -192.7997072 -0.167508E-05  0.159E-03    1.17       6.1  T
   5   -192.7997073 -0.582996E-07  0.103E-03    1.17       9.4  T
   6   -192.7997073 -0.594000E-07  0.412E-04    1.17      23.6  T
   7   -192.7997073 -0.784831E-08  0.191E-04    1.17      50.9  T
     SCC iter.                  ...        0 min,  0.065 sec
     gradient                   ...        0 min,  0.016 sec
 * total energy  :  -190.2186711 Eh     change       -0.4013504E-04 Eh
   gradient norm :     0.0025394 Eh/α   predicted    -0.3645682E-04 (  -9.16%)
   displ. norm   :     0.1262572 α      lambda       -0.6274059E-04
   maximum displ.:     0.0486574 α      in ANC's #19, #2, #6, ...

........................................................................
.............................. CYCLE   46 ..............................
........................................................................
   1   -192.7995645 -0.192800E+03  0.340E-02    1.17       0.0  T
   2   -192.7995657 -0.126185E-05  0.195E-02    1.17       1.0  T
   3   -192.7995634  0.231811E-05  0.573E-03    1.17       1.7  T
   4   -192.7995664 -0.295486E-05  0.150E-03    1.17       6.5  T
   5   -192.7995664 -0.224585E-07  0.104E-03    1.17       9.4  T
   6   -192.7995665 -0.664766E-07  0.395E-04    1.17      24.6  T
   7   -192.7995665 -0.822436E-08  0.179E-04    1.17      54.2  T
     SCC iter.                  ...        0 min,  0.065 sec
     gradient                   ...        0 min,  0.016 sec
 * total energy  :  -190.2187126 Eh     change       -0.4152776E-04 Eh
   gradient norm :     0.0033007 Eh/α   predicted    -0.3187211E-04 ( -23.25%)
   displ. norm   :     0.2440943 α      lambda       -0.1042615E-03
   maximum displ.:     0.0946803 α      in ANC's #19, #2, #6, ...

........................................................................
.............................. CYCLE   47 ..............................
........................................................................
   1   -192.7993007 -0.192799E+03  0.604E-02    1.17       0.0  T
   2   -192.7993039 -0.320766E-05  0.348E-02    1.17       1.0  T
   3   -192.7992982  0.570546E-05  0.899E-03    1.17       1.1  T
   4   -192.7993056 -0.746333E-05  0.237E-03    1.17       4.1  T
   5   -192.7993056  0.423726E-07  0.173E-03    1.17       5.6  T
   6   -192.7993058 -0.202738E-06  0.623E-04    1.17      15.6  T
   7   -192.7993058 -0.229792E-07  0.265E-04    1.17      36.6  T
     SCC iter.                  ...        0 min,  0.065 sec
     gradient                   ...        0 min,  0.016 sec
 * total energy  :  -190.2187543 Eh     change       -0.4163358E-04 Eh
   gradient norm :     0.0049407 Eh/α   predicted    -0.5523795E-04 (  32.68%)
   displ. norm   :     0.1405137 α      lambda       -0.8135194E-04
   maximum displ.:     0.0568926 α      in ANC's #2, #19, #6, ...

........................................................................
.............................. CYCLE   48 ..............................
........................................................................
   1   -192.7997081 -0.192800E+03  0.359E-02    1.17       0.0  T
   2   -192.7997093 -0.123405E-05  0.204E-02    1.17       1.0  T
   3   -192.7997089  0.413726E-06  0.332E-03    1.17       2.9  T
   4   -192.7997098 -0.960613E-06  0.126E-03    1.17       7.7  T
   5   -192.7997098  0.140785E-07  0.903E-04    1.17      10.8  T
     SCC iter.                  ...        0 min,  0.049 sec
     gradient                   ...        0 min,  0.017 sec
 * total energy  :  -190.2188168 Eh     change       -0.6255816E-04 Eh
   gradient norm :     0.0037913 Eh/α   predicted    -0.4148105E-04 ( -33.69%)
   displ. norm   :     0.2335172 α      lambda       -0.9830501E-04
   maximum displ.:     0.1002788 α      in ANC's #2, #6, #19, ...

........................................................................
.............................. CYCLE   49 ..............................
........................................................................
   1   -192.8008300 -0.192801E+03  0.507E-02    1.17       0.0  T
   2   -192.8008324 -0.233148E-05  0.292E-02    1.17       1.0  T
   3   -192.8008297  0.267749E-05  0.654E-03    1.17       1.5  T
   4   -192.8008334 -0.367803E-05  0.223E-03    1.17       4.3  T
   5   -192.8008334 -0.197854E-07  0.151E-03    1.17       6.4  T
   6   -192.8008336 -0.163400E-06  0.484E-04    1.17      20.1  T
   7   -192.8008336 -0.118272E-07  0.244E-04    1.17      39.8  T
     SCC iter.                  ...        0 min,  0.065 sec
     gradient                   ...        0 min,  0.016 sec
 * total energy  :  -190.2188880 Eh     change       -0.7115548E-04 Eh
   gradient norm :     0.0028711 Eh/α   predicted    -0.5183264E-04 ( -27.16%)
   displ. norm   :     0.2813521 α      lambda       -0.7625117E-04
   maximum displ.:     0.1239610 α      in ANC's #2, #6, #19, ...

........................................................................
.............................. CYCLE   50 ..............................
........................................................................
   1   -192.8010770 -0.192801E+03  0.554E-02    1.16       0.0  T
   2   -192.8010794 -0.242427E-05  0.320E-02    1.16       1.0  T
   3   -192.8010779  0.150400E-05  0.572E-03    1.16       1.7  T
   4   -192.8010802 -0.228883E-05  0.268E-03    1.16       3.6  T
   5   -192.8010804 -0.125462E-06  0.163E-03    1.16       6.0  T
   6   -192.8010806 -0.222660E-06  0.459E-04    1.16      21.2  T
   7   -192.8010806 -0.827924E-08  0.269E-04    1.16      36.1  T
     SCC iter.                  ...        0 min,  0.065 sec
     gradient                   ...        0 min,  0.016 sec
 * total energy  :  -190.2189462 Eh     change       -0.5821859E-04 Eh
   gradient norm :     0.0032707 Eh/α   predicted    -0.4114418E-04 ( -29.33%)
   displ. norm   :     0.3049861 α      lambda       -0.8315731E-04
   maximum displ.:     0.1414558 α      in ANC's #2, #6, #19, ...

........................................................................
.............................. CYCLE   51 ..............................
........................................................................
   1   -192.8014844 -0.192801E+03  0.591E-02    1.16       0.0  T
   2   -192.8014873 -0.289346E-05  0.339E-02    1.16       1.0  T
   3   -192.8014864  0.926529E-06  0.569E-03    1.16       1.7  T
   4   -192.8014878 -0.138632E-05  0.347E-03    1.16       2.8  T
   5   -192.8014883 -0.465181E-06  0.179E-03    1.16       5.4  T
   6   -192.8014886 -0.293575E-06  0.461E-04    1.16      21.1  T
   7   -192.8014886 -0.709335E-08  0.284E-04    1.16      34.2  T
     SCC iter.                  ...        0 min,  0.065 sec
     gradient                   ...        0 min,  0.016 sec
 * total energy  :  -190.2190101 Eh     change       -0.6390259E-04 Eh
   gradient norm :     0.0035021 Eh/α   predicted    -0.4544641E-04 ( -28.88%)
   displ. norm   :     0.3346561 α      lambda       -0.8559071E-04
   maximum displ.:     0.1611581 α      in ANC's #2, #6, #19, ...

........................................................................
.............................. CYCLE   52 ..............................
........................................................................
   1   -192.8012730 -0.192801E+03  0.645E-02    1.16       0.0  T
   2   -192.8012765 -0.346951E-05  0.366E-02    1.16       1.0  T
   3   -192.8012771 -0.631921E-06  0.477E-03    1.16       2.0  T
   4   -192.8012768  0.353527E-06  0.350E-03    1.16       2.8  T
   5   -192.8012777 -0.923639E-06  0.125E-03    1.16       7.8  T
   6   -192.8012778 -0.132467E-06  0.507E-04    1.16      19.2  T
   7   -192.8012778 -0.128161E-07  0.261E-04    1.16      37.2  T
     SCC iter.                  ...        0 min,  0.065 sec
     gradient                   ...        0 min,  0.016 sec
 * total energy  :  -190.2190768 Eh     change       -0.6673236E-04 Eh
   gradient norm :     0.0033627 Eh/α   predicted    -0.4759092E-04 ( -28.68%)
   displ. norm   :     0.3425462 α      lambda       -0.8363759E-04
   maximum displ.:     0.1718668 α      in ANC's #2, #6, #1, ...

........................................................................
.............................. CYCLE   53 ..............................
........................................................................
   1   -192.8010636 -0.192801E+03  0.662E-02    1.16       0.0  T
   2   -192.8010674 -0.381696E-05  0.373E-02    1.16       1.0  T
   3   -192.8010671  0.266798E-06  0.608E-03    1.16       1.6  T
   4   -192.8010677 -0.613828E-06  0.421E-03    1.16       2.3  T
   5   -192.8010688 -0.101769E-05  0.136E-03    1.16       7.2  T
   6   -192.8010689 -0.156956E-06  0.491E-04    1.16      19.8  T
   7   -192.8010689 -0.897833E-08  0.268E-04    1.16      36.2  T
     SCC iter.                  ...        0 min,  0.065 sec
     gradient                   ...        0 min,  0.016 sec
 * total energy  :  -190.2191427 Eh     change       -0.6586961E-04 Eh
   gradient norm :     0.0031027 Eh/α   predicted    -0.4672701E-04 ( -29.06%)
   displ. norm   :     0.3483834 α      lambda       -0.7997284E-04
   maximum displ.:     0.1819741 α      in ANC's #2, #6, #1, ...

........................................................................
.............................. CYCLE   54 ..............................
........................................................................
   1   -192.8015931 -0.192802E+03  0.680E-02    1.16       0.0  T
   2   -192.8015976 -0.442582E-05  0.378E-02    1.16       1.0  T
   3   -192.8015963  0.124112E-05  0.730E-03    1.16       1.3  T
   4   -192.8015980 -0.162684E-05  0.476E-03    1.16       2.0  T
   5   -192.8015990 -0.104777E-05  0.184E-03    1.16       5.3  T
   6   -192.8015993 -0.328834E-06  0.537E-04    1.16      18.1  T
   7   -192.8015993 -0.765829E-08  0.323E-04    1.16      30.1  T
     SCC iter.                  ...        0 min,  0.065 sec
     gradient                   ...        0 min,  0.016 sec
 * total energy  :  -190.2192063 Eh     change       -0.6359620E-04 Eh
   gradient norm :     0.0028834 Eh/α   predicted    -0.4483982E-04 ( -29.49%)
   displ. norm   :     0.4274662 α      lambda       -0.7944830E-04
   maximum displ.:     0.2202826 α      in ANC's #2, #6, #1, ...

........................................................................
.............................. CYCLE   55 ..............................
........................................................................
   1   -192.7993728 -0.192799E+03  0.816E-02    1.16       0.0  T
   2   -192.7993791 -0.626452E-05  0.456E-02    1.16       1.0  T
   3   -192.7993768  0.230432E-05  0.896E-03    1.16       1.1  T
   4   -192.7993796 -0.280725E-05  0.570E-03    1.16       1.7  T
   5   -192.7993811 -0.157838E-05  0.216E-03    1.16       4.5  T
   6   -192.7993816 -0.445410E-06  0.651E-04    1.16      14.9  T
   7   -192.7993816 -0.119251E-07  0.384E-04    1.16      25.3  T
     SCC iter.                  ...        0 min,  0.065 sec
     gradient                   ...        0 min,  0.016 sec
 * total energy  :  -190.2192565 Eh     change       -0.5021749E-04 Eh
   gradient norm :     0.0037094 Eh/α   predicted    -0.4698359E-04 (  -6.44%)
   displ. norm   :     0.3308950 α      lambda       -0.1075398E-03
   maximum displ.:     0.1818187 α      in ANC's #2, #6, #1, ...

........................................................................
.............................. CYCLE   56 ..............................
........................................................................
   1   -192.8027366 -0.192803E+03  0.682E-02    1.16       0.0  T
   2   -192.8027423 -0.568645E-05  0.369E-02    1.16       1.0  T
   3   -192.8027391  0.320295E-05  0.898E-03    1.16       1.1  T
   4   -192.8027431 -0.403803E-05  0.510E-03    1.16       1.9  T
   5   -192.8027440 -0.858098E-06  0.242E-03    1.16       4.0  T
   6   -192.8027445 -0.549929E-06  0.658E-04    1.16      14.8  T
   7   -192.8027445 -0.154322E-07  0.382E-04    1.16      25.4  T
     SCC iter.                  ...        0 min,  0.065 sec
     gradient                   ...        0 min,  0.016 sec
 * total energy  :  -190.2193123 Eh     change       -0.5578076E-04 Eh
   gradient norm :     0.0038179 Eh/α   predicted    -0.5965796E-04 (   6.95%)
   displ. norm   :     0.2776942 α      lambda       -0.4949941E-04
   maximum displ.:     0.1494510 α      in ANC's #2, #6, #1, ...

........................................................................
.............................. CYCLE   57 ..............................
........................................................................
   1   -192.8017389 -0.192802E+03  0.520E-02    1.16       0.0  T
   2   -192.8017415 -0.262548E-05  0.286E-02    1.16       1.0  T
   3   -192.8017412  0.290061E-06  0.518E-03    1.16       1.9  T
   4   -192.8017414 -0.195356E-06  0.374E-03    1.16       2.6  T
   5   -192.8017424 -0.913639E-06  0.129E-03    1.16       7.5  T
   6   -192.8017425 -0.147035E-06  0.389E-04    1.16      25.0  T
   7   -192.8017425 -0.407903E-08  0.242E-04    1.16      40.1  T
     SCC iter.                  ...        0 min,  0.065 sec
     gradient                   ...        0 min,  0.016 sec
 * total energy  :  -190.2193547 Eh     change       -0.4245130E-04 Eh
   gradient norm :     0.0031299 Eh/α   predicted    -0.2666189E-04 ( -37.19%)
   displ. norm   :     0.3200204 α      lambda       -0.7839305E-04
   maximum displ.:     0.1755564 α      in ANC's #2, #6, #1, ...

........................................................................
.............................. CYCLE   58 ..............................
........................................................................
   1   -192.8015420 -0.192802E+03  0.588E-02    1.16       0.0  T
   2   -192.8015456 -0.361585E-05  0.322E-02    1.16       1.0  T
   3   -192.8015447  0.859824E-06  0.626E-03    1.16       1.6  T
   4   -192.8015459 -0.120762E-05  0.395E-03    1.16       2.5  T
   5   -192.8015466 -0.652903E-06  0.183E-03    1.16       5.3  T
   6   -192.8015469 -0.285847E-06  0.588E-04    1.16      16.5  T
   7   -192.8015469 -0.237787E-07  0.281E-04    1.16      34.6  T
     SCC iter.                  ...        0 min,  0.065 sec
     gradient                   ...        0 min,  0.016 sec
 * total energy  :  -190.2194175 Eh     change       -0.6275668E-04 Eh
   gradient norm :     0.0028213 Eh/α   predicted    -0.4321205E-04 ( -31.14%)
   displ. norm   :     0.3810610 α      lambda       -0.8168232E-04
   maximum displ.:     0.2104893 α      in ANC's #2, #6, #1, ...

........................................................................
.............................. CYCLE   59 ..............................
........................................................................
   1   -192.8014750 -0.192801E+03  0.703E-02    1.16       0.0  T
   2   -192.8014802 -0.515123E-05  0.383E-02    1.16       1.0  T
   3   -192.8014786  0.158462E-05  0.781E-03    1.16       1.2  T
   4   -192.8014805 -0.192607E-05  0.496E-03    1.16       2.0  T
   5   -192.8014816 -0.112381E-05  0.225E-03    1.16       4.3  T
   6   -192.8014821 -0.459162E-06  0.625E-04    1.16      15.5  T
   7   -192.8014821 -0.210264E-07  0.336E-04    1.16      28.9  T
     SCC iter.                  ...        0 min,  0.065 sec
     gradient                   ...        0 min,  0.016 sec
 * total energy  :  -190.2194826 Eh     change       -0.6506415E-04 Eh
   gradient norm :     0.0034651 Eh/α   predicted    -0.4677355E-04 ( -28.11%)
   displ. norm   :     0.4000607 α      lambda       -0.7761938E-04
   maximum displ.:     0.2215675 α      in ANC's #2, #6, #1, ...

........................................................................
.............................. CYCLE   60 ..............................
........................................................................
   1   -192.8015179 -0.192802E+03  0.726E-02    1.16       0.0  T
   2   -192.8015232 -0.531598E-05  0.393E-02    1.16       1.0  T
   3   -192.8015212  0.204302E-05  0.829E-03    1.16       1.2  T
   4   -192.8015235 -0.226558E-05  0.528E-03    1.16       1.8  T
   5   -192.8015250 -0.153009E-05  0.195E-03    1.16       5.0  T
   6   -192.8015253 -0.338120E-06  0.519E-04    1.16      18.7  T
   7   -192.8015253 -0.334373E-08  0.348E-04    1.16      27.9  T
     SCC iter.                  ...        0 min,  0.065 sec
     gradient                   ...        0 min,  0.016 sec
 * total energy  :  -190.2195451 Eh     change       -0.6255615E-04 Eh
   gradient norm :     0.0034496 Eh/α   predicted    -0.4502691E-04 ( -28.02%)
   displ. norm   :     0.4660820 α      lambda       -0.8300084E-04
   maximum displ.:     0.2591046 α      in ANC's #2, #6, #1, ...

........................................................................
.............................. CYCLE   61 ..............................
........................................................................
   1   -192.8012511 -0.192801E+03  0.834E-02    1.16       0.0  T
   2   -192.8012582 -0.701460E-05  0.453E-02    1.16       1.0  T
   3   -192.8012550  0.315396E-05  0.980E-03    1.16       1.0  T
   4   -192.8012586 -0.359826E-05  0.608E-03    1.16       1.6  T
   5   -192.8012606 -0.198377E-05  0.213E-03    1.16       4.6  T
   6   -192.8012610 -0.399218E-06  0.568E-04    1.16      17.1  T
   7   -192.8012610 -0.457732E-08  0.317E-04    1.16      30.6  T
     SCC iter.                  ...        0 min,  0.065 sec
     gradient                   ...        0 min,  0.016 sec
 * total energy  :  -190.2196136 Eh     change       -0.6843021E-04 Eh
   gradient norm :     0.0028317 Eh/α   predicted    -0.5051687E-04 ( -26.18%)
   displ. norm   :     0.4794023 α      lambda       -0.9041069E-04
   maximum displ.:     0.2678281 α      in ANC's #2, #6, #1, ...

........................................................................
.............................. CYCLE   62 ..............................
........................................................................
   1   -192.8014993 -0.192801E+03  0.840E-02    1.16       0.0  T
   2   -192.8015064 -0.712107E-05  0.457E-02    1.16       1.0  T
   3   -192.8015030  0.341520E-05  0.983E-03    1.16       1.0  T
   4   -192.8015070 -0.396320E-05  0.601E-03    1.16       1.6  T
   5   -192.8015088 -0.180459E-05  0.239E-03    1.16       4.1  T
   6   -192.8015093 -0.510647E-06  0.594E-04    1.16      16.3  T
[...]
    33   8 O      0.857    -0.284    19.496     5.920
    34   6 C      3.324     0.466    17.718     6.692
    35   9 F      0.790    -0.197    11.200     3.953
    36   9 F      0.790    -0.191    11.141     3.943
    37   9 F      0.791    -0.188    11.111     3.937
    38   6 C      3.814    -0.051    21.481     6.597
    39   6 C      3.808    -0.056    21.571     6.611
    40   6 C      3.808    -0.060    21.641     6.622
    41   6 C      2.933    -0.033    28.822     8.805
    42   6 C      2.897    -0.050    29.249     8.867
    43   6 C      3.068     0.129    25.114     8.217
    44   8 O      1.725    -0.195    17.258     5.609
    45   6 C      3.075     0.123    25.218     8.233
    46   6 C      2.993    -0.062    29.522     8.913
    47   6 C      3.056    -0.017    28.374     8.736
    48   6 C      1.898     0.112    28.349     8.599
    49   7 N      0.911    -0.237    26.191     7.402
    50   6 C      2.898    -0.057    29.411     8.892
    51   6 C      2.939    -0.027    28.678     8.783
    52   6 C      2.975     0.005    27.908     8.666
    53  16 S      2.389    -0.009   141.412    20.015
    54   6 C      2.975     0.012    27.739     8.639
    55   6 C      3.156     0.053    26.507     8.418
    56   6 C      3.160     0.063    26.275     8.380
    57   7 N      1.834    -0.291    28.391     7.896
    58   6 C      2.867     0.220    23.374     7.925
    59   8 O      1.706    -0.257    18.264     5.770
    60   6 C      3.705     0.084    19.329     6.285
    61   6 C      3.751    -0.116    22.786     6.807
    62   6 C      2.948     0.065    26.537     8.449
    63   6 C      3.738     0.013    20.429     6.449
    64   7 N      2.629    -0.331    28.528     7.932
    65   7 N      1.839    -0.235    26.987     7.699
    66   6 C      2.929    -0.026    28.663     8.780
    67   6 C      2.841    -0.087    30.166     9.001
    68   1 H      0.927     0.063     2.163     2.300
    69   1 H      0.924     0.051     2.302     2.373
    70   1 H      0.924     0.050     2.315     2.380
    71   1 H      0.925     0.058     2.220     2.330
    72   1 H      0.925     0.054     2.276     2.359
    73   1 H      0.925     0.059     2.214     2.327
    74   1 H      0.924     0.060     2.205     2.322
    75   1 H      0.924     0.060     2.205     2.322
    76   1 H      0.860     0.149     1.406     1.858
    77   1 H      0.860     0.150     1.403     1.856
    78   1 H      0.925     0.076     2.022     2.224
    79   1 H      0.925     0.060     2.204     2.322
    80   1 H      0.927     0.053     2.286     2.364
    81   1 H      0.926     0.056     2.244     2.342
    82   1 H      0.925     0.060     2.201     2.320
    83   1 H      0.924     0.077     2.012     2.218
    84   1 H      0.924     0.049     2.327     2.386
    85   1 H      0.924     0.052     2.299     2.371
    86   1 H      0.924     0.047     2.355     2.400
    87   1 H      0.924     0.049     2.335     2.390
    88   1 H      0.924     0.051     2.308     2.376
    89   1 H      0.924     0.056     2.250     2.346
    90   1 H      0.926     0.058     2.217     2.328
    91   1 H      0.925     0.060     2.203     2.321
    92   1 H      0.926     0.046     2.372     2.408
    93   1 H      0.926     0.072     2.059     2.244
    94   1 H      0.925     0.053     2.280     2.361
    95   1 H      0.924     0.047     2.354     2.400
    96   1 H      0.924     0.048     2.344     2.394
    97   1 H      0.925     0.060     2.201     2.320
    98   1 H      0.925     0.054     2.269     2.356
    99   1 H      0.925     0.060     2.203     2.321
   100   1 H      0.924     0.060     2.205     2.322
   101   1 H      0.924     0.060     2.204     2.322
   102   1 H      0.860     0.149     1.409     1.860
   103   1 H      0.860     0.149     1.407     1.858
   104   1 H      0.925     0.044     2.399     2.422
   105   1 H      0.926     0.068     2.104     2.268
   106   1 H      0.926     0.048     2.343     2.394

 Mol. C6AA /au·bohr⁶  :     167220.070222
 Mol. C8AA /au·bohr⁸  :    4363975.416462
 Mol. α(0) /au        :        641.318610


Wiberg/Mayer (AO) data.
largest (>0.10) Wiberg bond orders for each atom
          total WBO             WBO to atom ...
     1  C   3.898        C    5 1.449    S    2 1.232    H   68 0.967    C    3 0.103
     2  S   2.663        C    1 1.232    C    3 1.151
     3  C   3.942        C    4 1.331    C   15 1.231    S    2 1.151    C    1 0.103
     4  C   3.954        C    3 1.331    N   14 1.240    C    5 1.156
     5  C   3.977        C    1 1.449    N    6 1.205    C    4 1.156
     6  N   3.034        C    7 1.515    C    5 1.205    O    8 0.112
     7  C   3.935        N    6 1.515    O    8 1.126    C   11 1.109
     8  O   2.281        C    7 1.126    C    9 0.941    N    6 0.112
     9  C   3.930        C   10 1.019    H   70 0.967    H   69 0.967    O    8 0.941
    10  C   3.991        C    9 1.019    H   71 0.985    H   73 0.985    H   72 0.984
    11  C   3.944        N   14 1.588    C    7 1.109    C   12 1.000
    12  C   3.987        N   13 1.039    C   11 1.000    H   75 0.949    H   74 0.948
    13  N   3.011        C   12 1.039    H   77 0.963    H   76 0.963
    14  N   3.065        C   11 1.588    C    4 1.240
    15  C   3.963        C   16 1.613    C    3 1.231    H   78 0.951
    16  C   3.965        C   15 1.613    C   17 1.200    H   79 0.958
    17  C   3.898        C   21 1.327    C   16 1.200    O   18 1.120
    18  O   2.420        C   17 1.120    C   19 1.086
    19  C   3.886        C   20 1.452    C   24 1.167    O   18 1.086
    20  C   3.947        C   19 1.452    C   21 1.299    H   80 0.972
    21  C   3.941        C   17 1.327    C   20 1.299    C   22 1.122
    22  C   3.948        N   23 2.783    C   21 1.122
    23  N   2.986        C   22 2.783
    24  C   3.959        C   25 1.659    C   19 1.167    H   81 0.959
    25  C   3.956        C   24 1.659    C   26 1.178    H   82 0.956
    26  C   3.925        C   30 1.421    C   25 1.178    S   27 1.141
    27  S   2.566        C   26 1.141    C   28 1.122
    28  C   3.930        C   29 1.410    C   41 1.214    S   27 1.122
    29  C   3.946        C   28 1.410    C   30 1.318    C   40 1.012
    30  C   3.947        C   26 1.421    C   29 1.318    C   31 0.982
    31  C   3.986        C   32 0.986    C   30 0.982    H   83 0.943    C   38 0.941
    32  C   3.920        O   33 1.911    C   31 0.986    C   34 0.871
    33  O   2.128        C   32 1.911
    34  C   3.825        F   37 0.960    F   36 0.957    F   35 0.955    C   32 0.871
    35  F   1.083        C   34 0.955
    36  F   1.088        C   34 0.957
    37  F   1.090        C   34 0.960
    38  C   3.988        C   39 1.003    H   84 0.977    H   85 0.975    C   31 0.941
    39  C   3.995        C   40 1.006    C   38 1.003    H   86 0.977    H   87 0.972
    40  C   3.996        C   29 1.012    C   39 1.006    H   88 0.964    H   89 0.957
    41  C   3.957        C   42 1.620    C   28 1.214    H   90 0.954
    42  C   3.962        C   41 1.620    C   43 1.202    H   91 0.957
    43  C   3.891        C   47 1.331    C   42 1.202    O   44 1.111
    44  O   2.410        C   43 1.111    C   45 1.083
    45  C   3.891        C   46 1.443    C   50 1.185    O   44 1.083
    46  C   3.934        C   45 1.443    C   47 1.297    H   92 0.974
    47  C   3.943        C   43 1.331    C   46 1.297    C   48 1.122
    48  C   3.948        N   49 2.782    C   47 1.122
    49  N   2.987        C   48 2.782
    50  C   3.958        C   51 1.616    C   45 1.185    H   93 0.954
    51  C   3.961        C   50 1.616    C   52 1.228    H   94 0.962
    52  C   3.941        C   56 1.321    C   51 1.228    S   53 1.144
    53  S   2.624        C   54 1.173    C   52 1.144
    54  C   3.907        C   55 1.338    S   53 1.173    C   66 1.164
    55  C   3.978        C   54 1.338    N   65 1.231    C   56 1.178
    56  C   3.954        C   52 1.321    N   57 1.237    C   55 1.178
    57  N   3.049        C   58 1.492    C   56 1.237    O   59 0.106
    58  C   3.926        N   57 1.492    O   59 1.125    C   62 1.120
    59  O   2.279        C   58 1.125    C   60 0.942    N   57 0.106
    60  C   3.931        C   61 1.019    H   96 0.967    H   95 0.967    O   59 0.942
    61  C   3.990        C   60 1.019    H   97 0.985    H   99 0.985    H   98 0.983
    62  C   3.974        N   65 1.592    C   58 1.120    C   63 0.998
    63  C   3.988        N   64 1.040    C   62 0.998    H  100 0.949    H  101 0.949
    64  N   3.013        C   63 1.040    H  102 0.963    H  103 0.963
    65  N   3.066        C   62 1.592    C   55 1.231
    66  C   3.989        C   67 1.822    C   54 1.164    H  104 0.963
    67  C   3.939        C   66 1.822    H  106 0.977    H  105 0.969
    68  H   0.996        C    1 0.967
    69  H   0.997        C    9 0.967
    70  H   0.997        C    9 0.967
    71  H   0.997        C   10 0.985
    72  H   0.996        C   10 0.984
    73  H   0.996        C   10 0.985
    74  H   0.991        C   12 0.948
    75  H   0.991        C   12 0.949
    76  H   0.978        N   13 0.963
    77  H   0.977        N   13 0.963
    78  H   0.994        C   15 0.951
    79  H   0.996        C   16 0.958
    80  H   0.997        C   20 0.972
    81  H   0.996        C   24 0.959
    82  H   0.995        C   25 0.956
    83  H   0.992        C   31 0.943
    84  H   0.997        C   38 0.977
    85  H   0.997        C   38 0.975
    86  H   0.998        C   39 0.977
    87  H   0.994        C   39 0.972
    88  H   0.996        C   40 0.964
    89  H   0.994        C   40 0.957
    90  H   0.996        C   41 0.954
    91  H   0.996        C   42 0.957
    92  H   0.997        C   46 0.974
    93  H   0.994        C   50 0.954
    94  H   0.996        C   51 0.962
    95  H   0.997        C   60 0.967
    96  H   0.997        C   60 0.967
    97  H   0.996        C   61 0.985
    98  H   0.996        C   61 0.983
    99  H   0.996        C   61 0.985
   100  H   0.992        C   63 0.949
   101  H   0.992        C   63 0.949
   102  H   0.978        N   64 0.963
   103  H   0.978        N   64 0.963
   104  H   0.997        C   66 0.963
   105  H   0.995        C   67 0.969
   106  H   0.997        C   67 0.977

molecular dipole:
                 x           y           z       tot (Debye)
 q only:       -2.559      -2.177       1.728
   full:       -2.842      -2.050       2.351      10.725
molecular quadrupole (traceless):
                xx          xy          yy          xz          yz          zz
 q only:      -50.912      17.164     102.826     -20.069     -65.166     -51.914
  q+dip:      -40.601      17.091      84.690     -11.042     -72.866     -44.089
   full:      -36.263      18.189      81.044      -5.332     -69.381     -44.780

           -------------------------------------------------
          |                Geometry Summary                 |
           -------------------------------------------------

      molecular mass/u    :      961.0619000
   center of mass at/Å    :        0.1223048     -11.5435394       3.4423269
  moments of inertia/u·Å² :        0.9659344E+04   0.7172521E+05   0.7548009E+05
rotational constants/cm⁻¹ :        0.1745215E-02   0.2350308E-03   0.2233388E-03

 * 103 selected distances

     #   Z        #   Z                                     value/Å
     1   6 C      2  16 S                                 1.7104060
     2  16 S      3   6 C                                 1.7369899
     3   6 C      4   6 C                                 1.3942522
     1   6 C      5   6 C                                 1.3738547
     4   6 C      5   6 C                                 1.4332334
     5   6 C      6   7 N                                 1.3601363
     6   7 N      7   6 C                                 1.3027347
     7   6 C      8   8 O                                 1.3323445
     8   8 O      9   6 C                                 1.4254077
     9   6 C     10   6 C                                 1.5173951
    12   6 C     13   7 N                                 1.4467125
     4   6 C     14   7 N                                 1.3528686
    11   6 C     14   7 N                                 1.2999158
     3   6 C     15   6 C                                 1.4122941
    15   6 C     16   6 C                                 1.3551788
    16   6 C     17   6 C                                 1.4174373
    17   6 C     18   8 O                                 1.3459724
    18   8 O     19   6 C                                 1.3578561
    19   6 C     20   6 C                                 1.3803704
    17   6 C     21   6 C                                 1.3992951
    20   6 C     21   6 C                                 1.4097410
    22   6 C     23   7 N                                 1.1473693
    19   6 C     24   6 C                                 1.4247125
    24   6 C     25   6 C                                 1.3501993
    25   6 C     26   6 C                                 1.4276917
    26   6 C     27  16 S                                 1.7376658
    27  16 S     28   6 C                                 1.7401218 (max)
    28   6 C     29   6 C                                 1.3863853
    26   6 C     30   6 C                                 1.3865123
    29   6 C     30   6 C                                 1.4049867
    32   6 C     33   8 O                                 1.1978195
    34   6 C     35   9 F                                 1.3391903
    34   6 C     36   9 F                                 1.3385919
    34   6 C     37   9 F                                 1.3385246
    38   6 C     39   6 C                                 1.5234159
    29   6 C     40   6 C                                 1.4967630
    39   6 C     40   6 C                                 1.5252747
    28   6 C     41   6 C                                 1.4174935
    41   6 C     42   6 C                                 1.3550883
    42   6 C     43   6 C                                 1.4166374
    43   6 C     44   8 O                                 1.3493708
    44   8 O     45   6 C                                 1.3592788
    45   6 C     46   6 C                                 1.3817137
    43   6 C     47   6 C                                 1.3982080
    46   6 C     47   6 C                                 1.4096546
    48   6 C     49   7 N                                 1.1474483
    45   6 C     50   6 C                                 1.4200942
    50   6 C     51   6 C                                 1.3550580
    51   6 C     52   6 C                                 1.4147547
    52   6 C     53  16 S                                 1.7362514
    53  16 S     54   6 C                                 1.7292878
    54   6 C     55   6 C                                 1.3939548
    52   6 C     56   6 C                                 1.3963135
    55   6 C     56   6 C                                 1.4301930
    56   6 C     57   7 N                                 1.3544289
    57   7 N     58   6 C                                 1.3052520
    58   6 C     59   8 O                                 1.3327201
    59   8 O     60   6 C                                 1.4247804
    60   6 C     61   6 C                                 1.5173861
    63   6 C     64   7 N                                 1.4456677
    55   6 C     65   7 N                                 1.3558476
    62   6 C     65   7 N                                 1.2988377
    54   6 C     66   6 C                                 1.4312787
    66   6 C     67   6 C                                 1.3338217
     1   6 C     68   1 H                                 1.0707738
     9   6 C     69   1 H                                 1.0957935
     9   6 C     70   1 H                                 1.0959043
    10   6 C     71   1 H                                 1.0866043
    10   6 C     72   1 H                                 1.0859592
    10   6 C     73   1 H                                 1.0865533
    12   6 C     74   1 H                                 1.0957663
    12   6 C     75   1 H                                 1.0955001
    13   7 N     76   1 H                                 1.0154129
    13   7 N     77   1 H                                 1.0154561
    15   6 C     78   1 H                                 1.0817166
    16   6 C     79   1 H                                 1.0813720
    20   6 C     80   1 H                                 1.0702350
    24   6 C     81   1 H                                 1.0790573
    25   6 C     82   1 H                                 1.0813628
    31   6 C     83   1 H                                 1.0965004
    38   6 C     84   1 H                                 1.0907463
    38   6 C     85   1 H                                 1.0913043
    39   6 C     86   1 H                                 1.0916388
    39   6 C     87   1 H                                 1.0905660
    40   6 C     88   1 H                                 1.0916328
    40   6 C     89   1 H                                 1.0945606
    41   6 C     90   1 H                                 1.0809921
    42   6 C     91   1 H                                 1.0812868
    46   6 C     92   1 H                                 1.0707127
    50   6 C     93   1 H                                 1.0781215
    51   6 C     94   1 H                                 1.0818754
    60   6 C     95   1 H                                 1.0965333
    60   6 C     96   1 H                                 1.0965163
    61   6 C     97   1 H                                 1.0864661
    61   6 C     98   1 H                                 1.0859331
    61   6 C     99   1 H                                 1.0865158
    63   6 C    100   1 H                                 1.0955187
    63   6 C    101   1 H                                 1.0956313
    64   7 N    102   1 H                                 1.0151679 (min)
    64   7 N    103   1 H                                 1.0151866
    66   6 C    104   1 H                                 1.0827849
    67   6 C    105   1 H                                 1.0749117
    67   6 C    106   1 H                                 1.0756499

 * 7 distinct bonds (by element types)

   Z      Z             #   av. dist./Å        max./Å        min./Å
   1 H    6 C          35     1.0863714     1.0965333     1.0702350
   6 C    6 C          34     1.4144307     1.5252747     1.3338217
   1 H    7 N           4     1.0153059     1.0154561     1.0151679
   6 C    7 N          12     1.3181016     1.4467125     1.1473693
   6 C    8 O           9     1.3472834     1.4254077     1.1978195
   6 C    9 F           3     1.3387689     1.3391903     1.3385246
   6 C   16 S           6     1.7317871     1.7401218     1.7104060


optimized geometry written to: xtbopt.xyz


           -------------------------------------------------
          | TOTAL ENERGY             -190.221648040612 Eh   |
          | GRADIENT NORM               0.000524112499 Eh/α |
          | HOMO-LUMO GAP               1.114071122634 eV   |
           -------------------------------------------------

------------------------------------------------------------------------
 * finished run on 2021/09/13 at 17:17:13.841     
------------------------------------------------------------------------
 total:
 * wall-time:     0 d,  0 h,  0 min, 16.070 sec
 *  cpu-time:     0 d,  0 h,  3 min, 12.743 sec
 * ratio c/w:    11.994 speedup
 SCF:
 * wall-time:     0 d,  0 h,  0 min,  0.180 sec
 *  cpu-time:     0 d,  0 h,  0 min,  2.159 sec
 * ratio c/w:    11.976 speedup
 ANC optimizer:
 * wall-time:     0 d,  0 h,  0 min, 15.853 sec
 *  cpu-time:     0 d,  0 h,  3 min, 10.224 sec
 * ratio c/w:    11.999 speedup

