      -----------------------------------------------------------      
     |                   =====================                   |     
     |                           x T B                           |     
     |                   =====================                   |     
     |                         S. Grimme                         |     
     |          Mulliken Center for Theoretical Chemistry        |     
     |                    University of Bonn                     |     
     |                Version 6.2 RC2 (SAW190805)                |     
      -----------------------------------------------------------      

   This program is distributed in the hope that it will be useful,
   but WITHOUT ANY WARRANTY; without even the implied warranty of
   MERCHANTABILITY or FITNESS FOR A PARTICULAR PURPOSE.
   
   FOR NON-COMMERCIAL, ACADEMIA USE ONLY.
   
   Cite this work as:
   * S. Grimme, C. Bannwarth, P. Shushkov, J. Chem. Theory Comput., 2017,
     13, 1989-2009. DOI: 10.1021/acs.jctc.7b00118
   * C. Bannwarth, S. Ehlert and S. Grimme., J. Chem. Theory Comput., 2019,
     15, 1652-1671. DOI: 10.1021/acs.jctc.8b01176
   * P. Pracht, E. Caldeweyher, S. Ehlert, S. Grimme, ChemRxiv, 2019, preprint.
     DOI: 10.26434/chemrxiv.8326202.v1
   
   for DFT-D4:
   * E. Caldeweyher, C. Bannwarth and S. Grimme, J. Chem. Phys., 2017,
     147, 034112. DOI: 10.1063/1.4993215
   * E. Caldeweyher, S. Ehlert, A. Hansen, H. Neugebauer, S. Spicher,
     C. Bannwarth and S. Grimme, J. Chem. Phys., 2019, 150, 154122.
     DOI: 10.1063/1.5090222
   
   for sTDA-xTB:
   * S. Grimme and C. Bannwarth, J. Chem. Phys., 2016, 145, 054103.
     DOI: 10.1063/1.4959605
   
   in the mass-spec context:
   * V. Asgeirsson, C. Bauer and S. Grimme, Chem. Sci., 2017, 8, 4879.
     DOI: 10.1039/c7sc00601b
   
   for metadynamics refer to:
   * S. Grimme, J. Chem. Theory Comput., 2019, 155, 2847-2862
     DOI: 10.1021/acs.jctc.9b00143
   
   with help from (in alphabetical order)
   C. Bannwarth, F. Bohle, G. Brandenburg, E. Caldeweyher, M. Checinski,
   S. Dohm, S. Ehlert, S. Ehrlich, F. März, H. Neugebauer, J. Pisarek,
   P. Pracht, P. Shushkov, and S. Spicher.
   
 * started run on 2021/09/14 at 01:35:22.966     

           -------------------------------------------------
          |                Calculation Setup                |
           -------------------------------------------------

          program call               : /ihome/ghutchison/geoffh/xtb/xtb /ihome/ghutchison/blp62/GA/running_GA/v5/generations/15/764_110_764_764_166_01003.xyz -opt
          hostname                   : smp-n36
          coordinate file            : /ihome/ghutchison/blp62/GA/running_GA/v5/generations/15/764_110_764_764_166_01003.xyz
          omp threads                :                    12
          number of atoms            :                    86
          number of electrons        :                   304
          charge                     :                     0
          spin                       :                   0.0
          first test random number   :      0.30633646298135


########################################################################
# WARNING! Please study the warnings concerning your input carefully
#  - XTBPATH is not set, using XTBHOME instead
#  - the use of '-opt' is discouraged, please use '--opt' next time
########################################################################

           ------------------------------------------------- 
          |                 G F N 2 - x T B                 |
          | Geometry, Frequencies, Noncovalent interactions |
          |            JCTC 2019 parametrisation            |
           ------------------------------------------------- 
             KAB for C  - Si     :                1.0500
             KAB for H  - Pd     :                0.9500
             k(s)              :                1.8500
             k(p)              :                2.2300
             k(d)              :                2.2300
             k(f)              :                2.0000
             kEN (H0ij)        :               -2.0000
             D4 a1             :                0.5200
             D4 a2             :                5.0000
             D4 s6             :                1.0000
             D4 s8             :                2.7000
             D4 s9             :                5.0000
             alphaj            :                2.0000

  Z AO/shell   Hii/eV     exponent
  1     Wed Apr 25 08:07:45 CEST 2018   EN: 2.200 GM2: 0.406  GM3: 0.0800  RAES: 1.40
     1s    -10.707211    1.230000
  6     Wed Apr 25 08:07:45 CEST 2018   EN: 2.550 GM2: 0.538  GM3: 0.1500  RAES: 3.00
     2s    -13.970922    2.096432
     2p    -10.063292    1.800000
  7     Wed Apr 25 08:07:45 CEST 2018   EN: 3.040 GM2: 0.461  GM3:-0.0640  RAES: 1.90
     2s    -16.686243    2.339881
     2p    -12.523956    2.014332
  8     Wed Apr 25 08:07:45 CEST 2018   EN: 3.440 GM2: 0.452  GM3:-0.0517  RAES: 1.80
     2s    -20.229985    2.439742
     2p    -15.503117    2.137023
 16     Tue Apr 24 11:44:34 CEST 2018   EN: 2.580 GM2: 0.340  GM3:-0.0502  RAES: 3.10
     3s    -20.029654    1.981333
     3p    -11.377694    2.025643
     3d     -0.420282    1.702555

           ------------------------------------------------- 
          |        Self-Consistent Charge Iterations        |
           ------------------------------------------------- 

          ...................................................
          :                      SETUP                      :
          :.................................................:
          :  # basis functions                 314          :
          :  # atomic orbitals                 309          :
          :  # shells                          157          :
          :  # electrons                       304          :
          :  max. iterations                   250          :
          :  Hamiltonian                  GFN2-xTB          :
          :  restarted?                      false          :
          :  GBSA solvation                  false          :
          :  PC potential                    false          :
          :  electronic temp.          300.0000000     K    :
          :  accuracy                    1.0000000          :
          :  -> integral cutoff          0.2500000E+02      :
          :  -> integral neglect         0.1000000E-07      :
          :  -> SCF convergence          0.1000000E-05 Eh   :
          :  -> wf. convergence          0.1000000E-03 e    :
          :  Broyden damping             0.4000000          :
          ...................................................

 iter      E             dE          RMSdq      gap      omega  full diag
   1   -167.3146760 -0.167315E+03  0.565E+00    0.89       0.0  T
   2   -167.2796091  0.350669E-01  0.387E+00    0.87       1.0  T
   3   -167.2458584  0.337507E-01  0.268E+00    0.91       1.0  T
   4   -167.6271848 -0.381326E+00  0.502E-01    0.90       1.0  T
   5   -167.6411784 -0.139936E-01  0.220E-01    0.89       1.0  T
   6   -167.6408098  0.368570E-03  0.166E-01    0.90       1.0  T
   7   -167.6433530 -0.254320E-02  0.470E-02    0.90       1.0  T
   8   -167.6434620 -0.108996E-03  0.259E-02    0.90       1.0  T
   9   -167.6434963 -0.342926E-04  0.949E-03    0.90       1.1  T
  10   -167.6434973 -0.994503E-06  0.561E-03    0.90       1.9  T
  11   -167.6434991 -0.181168E-05  0.289E-03    0.90       3.7  T
  12   -167.6434996 -0.506264E-06  0.138E-03    0.90       7.8  T
  13   -167.6434996 -0.480692E-07  0.850E-04    0.90      12.7  T
  14   -167.6434997 -0.259986E-07  0.413E-04    0.90      26.1  T

   *** convergence criteria satisfied after 14 iterations ***

         #    Occupation            Energy/Eh            Energy/eV
      -------------------------------------------------------------
         1        2.0000           -0.7847899             -21.3552
       ...           ...                  ...                  ...
       146        2.0000           -0.4309733             -11.7274
       147        2.0000           -0.4304499             -11.7131
       148        2.0000           -0.4241090             -11.5406
       149        2.0000           -0.4139102             -11.2631
       150        2.0000           -0.4108424             -11.1796
       151        2.0000           -0.4009924             -10.9116
       152        2.0000           -0.3884722             -10.5709 (HOMO)
       153                         -0.3554995              -9.6736 (LUMO)
       154                         -0.3432170              -9.3394
       155                         -0.3338724              -9.0851
       156                         -0.3272722              -8.9055
       157                         -0.3098246              -8.4308
       ...                                ...                  ...
       309                          1.0888299              29.6286
      -------------------------------------------------------------
                  HL-Gap            0.0329727 Eh            0.8972 eV
             Fermi-level           -0.3719859 Eh          -10.1223 eV

 SCC (total)                   0 d,  0 h,  0 min,  0.572 sec
 SCC setup                      ...        0 min,  0.002 sec (  0.380%)
 Dispersion                     ...        0 min,  0.005 sec (  0.955%)
 integral evaluation            ...        0 min,  0.030 sec (  5.220%)
 zeroth order Hamiltonian       ...        0 min,  0.001 sec (  0.191%)
 iterations                     ...        0 min,  0.500 sec ( 87.487%)
 molecular gradient             ...        0 min,  0.031 sec (  5.498%)
 printout                       ...        0 min,  0.001 sec (  0.244%)

         :::::::::::::::::::::::::::::::::::::::::::::::::::::
         ::                     SUMMARY                     ::
         :::::::::::::::::::::::::::::::::::::::::::::::::::::
         :: total energy            -164.795260944979 Eh    ::
         :: gradient norm              0.211608185820 Eh/a0 ::
         :: HOMO-LUMO gap              0.897233203643 eV    ::
         ::.................................................::
         :: SCC energy              -167.643499669506 Eh    ::
         :: -> isotropic ES            0.094359781170 Eh    ::
         :: -> anisotropic ES          0.013643931949 Eh    ::
         :: -> anisotropic XC          0.187995217480 Eh    ::
         :: -> dispersion             -0.132977174903 Eh    ::
         :: repulsion energy           2.850295850034 Eh    ::
         :: add. restraining           0.000000000000 Eh    ::
         :::::::::::::::::::::::::::::::::::::::::::::::::::::

      ----------------------------------------------------------- 
     |                   =====================                   |
     |                        A N C O P T                        |
     |                   =====================                   |
     |               Approximate Normal Coordinate               |
     |                Rational Function Optimizer                |
      ----------------------------------------------------------- 

          ...................................................
          :                      SETUP                      :
          :.................................................:
          :   optimization level            normal          :
          :   max. optcycles                   258          :
          :   ANC micro-cycles                  20          :
          :   degrees of freedom               252          :
          :.................................................:
          :   RF solver                   davidson          :
          :   input Hessian                  false          :
          :   write xtbopt.log                true          :
          :   linear?                        false          :
          :   energy convergence         0.5000000E-05 Eh   :
          :   grad. convergence          0.1000000E-02 Eh/α :
          :   maximium RF displ.         2.0000000          :
          :   Hlow (freq-cutoff)         0.5000000E-02      :
          :   Hmax (freq-cutoff)         5.0000000          :
          :   S6 in model hess.         20.0000000          :
          ...................................................

generating ANC from model Hessian ...
Using Lindh-Hessian (1995)
 Shifting diagonal of input Hessian by   4.981628751599090E-003
 Lowest  eigenvalues of input Hessian
   -0.000000   -0.000000   -0.000000   -0.000000    0.000000    0.000000
    0.005000    0.005011    0.005034    0.005043    0.005071    0.005080
    0.005108    0.005118    0.005156    0.005203    0.005283    0.005315
 Highest eigenvalues
    2.510775    2.512536    2.513726    2.514249    2.516096    2.530674
 

........................................................................
.............................. CYCLE    1 ..............................
........................................................................
   1   -167.6434997 -0.167643E+03  0.183E-04    0.90       0.0  T
   2   -167.6434997  0.151556E-08  0.197E-04    0.90      54.7  T
   3   -167.6434997 -0.330519E-08  0.704E-05    0.90     153.1  T
     SCC iter.                  ...        0 min,  0.065 sec
     gradient                   ...        0 min,  0.030 sec
 * total energy  :  -164.7952608 Eh     change        0.1699164E-06 Eh
   gradient norm :     0.2116106 Eh/α   predicted     0.0000000E+00 (-100.00%)
   displ. norm   :     0.4524163 α      lambda       -0.6010248E-01
   maximum displ.:     0.1715091 α      in ANC's #110, #111, #157, ...

........................................................................
.............................. CYCLE    2 ..............................
........................................................................
   1   -167.8219600 -0.167822E+03  0.332E-01    0.84       0.0  T
   2   -167.8221268 -0.166750E-03  0.189E-01    0.84       1.0  T
   3   -167.8206986  0.142817E-02  0.150E-01    0.84       1.0  T
   4   -167.8228441 -0.214546E-02  0.369E-02    0.84       1.0  T
   5   -167.8228724 -0.282921E-04  0.257E-02    0.84       1.0  T
   6   -167.8229172 -0.448765E-04  0.122E-02    0.84       1.0  T
   7   -167.8229288 -0.116034E-04  0.341E-03    0.84       3.2  T
   8   -167.8229295 -0.665705E-06  0.149E-03    0.84       7.3  T
   9   -167.8229296 -0.929136E-07  0.898E-04    0.84      12.0  T
     SCC iter.                  ...        0 min,  0.286 sec
     gradient                   ...        0 min,  0.036 sec
 * total energy  :  -164.8371331 Eh     change       -0.4187228E-01 Eh
   gradient norm :     0.0954839 Eh/α   predicted    -0.3620224E-01 ( -13.54%)
   displ. norm   :     0.4449035 α      lambda       -0.2207424E-01
   maximum displ.:     0.1525307 α      in ANC's #110, #58, #40, ...

........................................................................
.............................. CYCLE    3 ..............................
........................................................................
   1   -167.8719154 -0.167872E+03  0.332E-01    0.77       0.0  T
   2   -167.8720839 -0.168505E-03  0.171E-01    0.77       1.0  T
   3   -167.8708729  0.121097E-02  0.116E-01    0.78       1.0  T
   4   -167.8722916 -0.141868E-02  0.352E-02    0.78       1.0  T
   5   -167.8723348 -0.432333E-04  0.216E-02    0.78       1.0  T
   6   -167.8723591 -0.242976E-04  0.109E-02    0.78       1.0  T
   7   -167.8723703 -0.111270E-04  0.263E-03    0.78       4.1  T
   8   -167.8723707 -0.423048E-06  0.125E-03    0.78       8.6  T
   9   -167.8723708 -0.106579E-06  0.619E-04    0.78      17.4  T
     SCC iter.                  ...        0 min,  0.254 sec
     gradient                   ...        0 min,  0.034 sec
 * total energy  :  -164.8504937 Eh     change       -0.1336069E-01 Eh
   gradient norm :     0.0247235 Eh/α   predicted    -0.1322180E-01 (  -1.04%)
   displ. norm   :     0.4329344 α      lambda       -0.4741660E-02
   maximum displ.:     0.1490640 α      in ANC's #40, #29, #30, ...

........................................................................
.............................. CYCLE    4 ..............................
........................................................................
   1   -167.8810284 -0.167881E+03  0.294E-01    0.72       0.0  T
   2   -167.8811160 -0.876148E-04  0.147E-01    0.72       1.0  T
   3   -167.8810444  0.716024E-04  0.391E-02    0.73       1.0  T
   4   -167.8811105 -0.660888E-04  0.234E-02    0.73       1.0  T
   5   -167.8811307 -0.202041E-04  0.130E-02    0.73       1.0  T
   6   -167.8811470 -0.163914E-04  0.388E-03    0.73       2.8  T
   7   -167.8811483 -0.126070E-05  0.167E-03    0.73       6.5  T
   8   -167.8811485 -0.155268E-06  0.898E-04    0.73      12.0  T
     SCC iter.                  ...        0 min,  0.275 sec
     gradient                   ...        0 min,  0.047 sec
 * total energy  :  -164.8534650 Eh     change       -0.2971245E-02 Eh
   gradient norm :     0.0206147 Eh/α   predicted    -0.2815206E-02 (  -5.25%)
   displ. norm   :     0.6446789 α      lambda       -0.5803450E-02
   maximum displ.:     0.2510416 α      in ANC's #40, #58, #59, ...

........................................................................
.............................. CYCLE    5 ..............................
........................................................................
   1   -167.8777784 -0.167878E+03  0.440E-01    0.65       0.0  T
   2   -167.8779500 -0.171596E-03  0.229E-01    0.66       1.0  T
   3   -167.8773978  0.552184E-03  0.823E-02    0.66       1.0  T
   4   -167.8779180 -0.520258E-03  0.394E-02    0.66       1.0  T
   5   -167.8779756 -0.575356E-04  0.265E-02    0.66       1.0  T
   6   -167.8780452 -0.696606E-04  0.724E-03    0.66       1.5  T
   7   -167.8780498 -0.460705E-05  0.270E-03    0.66       4.0  T
   8   -167.8780500 -0.184931E-06  0.170E-03    0.66       6.4  T
     SCC iter.                  ...        0 min,  0.650 sec
     gradient                   ...        0 min,  0.049 sec
 * total energy  :  -164.8536525 Eh     change       -0.1875038E-03 Eh
   gradient norm :     0.0326944 Eh/α   predicted    -0.4107754E-02 (2090.76%)
   displ. norm   :     0.2582411 α      lambda       -0.4775065E-02
   maximum displ.:     0.1005099 α      in ANC's #29, #20, #31, ...

........................................................................
.............................. CYCLE    6 ..............................
........................................................................
   1   -167.8847898 -0.167885E+03  0.209E-01    0.66       0.0  T
   2   -167.8848348 -0.450658E-04  0.114E-01    0.66       1.0  T
   3   -167.8847451  0.897108E-04  0.307E-02    0.66       1.0  T
   4   -167.8848375 -0.923796E-04  0.143E-02    0.66       1.0  T
   5   -167.8848523 -0.147695E-04  0.876E-03    0.66       1.2  T
   6   -167.8848591 -0.686857E-05  0.281E-03    0.66       3.8  T
   7   -167.8848596 -0.490039E-06  0.142E-03    0.66       7.6  T
   8   -167.8848597 -0.887981E-07  0.749E-04    0.66      14.4  T
     SCC iter.                  ...        0 min,  0.388 sec
     gradient                   ...        0 min,  0.044 sec
 * total energy  :  -164.8565487 Eh     change       -0.2896196E-02 Eh
   gradient norm :     0.0180912 Eh/α   predicted    -0.2546766E-02 ( -12.07%)
   displ. norm   :     0.3519892 α      lambda       -0.1896381E-02
   maximum displ.:     0.1154427 α      in ANC's #24, #29, #27, ...

........................................................................
.............................. CYCLE    7 ..............................
........................................................................
   1   -167.8750910 -0.167875E+03  0.235E-01    0.65       0.0  T
   2   -167.8751408 -0.498215E-04  0.129E-01    0.65       1.0  T
   3   -167.8750529  0.878784E-04  0.327E-02    0.65       1.0  T
   4   -167.8751542 -0.101337E-03  0.126E-02    0.65       1.0  T
   5   -167.8751572 -0.299804E-05  0.996E-03    0.65       1.1  T
   6   -167.8751677 -0.105188E-04  0.328E-03    0.65       3.3  T
   7   -167.8751685 -0.775923E-06  0.134E-03    0.65       8.0  T
   8   -167.8751686 -0.512256E-07  0.840E-04    0.65      12.8  T
     SCC iter.                  ...        0 min,  0.390 sec
     gradient                   ...        0 min,  0.049 sec
 * total energy  :  -164.8567269 Eh     change       -0.1781674E-03 Eh
   gradient norm :     0.0237692 Eh/α   predicted    -0.1065669E-02 ( 498.13%)
   displ. norm   :     0.3578682 α      lambda       -0.2736305E-02
   maximum displ.:     0.1468793 α      in ANC's #29, #26, #21, ...

........................................................................
.............................. CYCLE    8 ..............................
........................................................................
   1   -167.8779761 -0.167878E+03  0.223E-01    0.64       0.0  T
   2   -167.8780156 -0.395337E-04  0.121E-01    0.64       1.0  T
   3   -167.8779146  0.101094E-03  0.375E-02    0.64       1.0  T
   4   -167.8780243 -0.109737E-03  0.146E-02    0.64       1.0  T
   5   -167.8780235  0.811180E-06  0.118E-02    0.64       1.0  T
   6   -167.8780389 -0.154019E-04  0.296E-03    0.64       3.6  T
   7   -167.8780397 -0.844806E-06  0.121E-03    0.64       8.9  T
   8   -167.8780397 -0.137586E-07  0.850E-04    0.64      12.7  T
     SCC iter.                  ...        0 min,  0.393 sec
     gradient                   ...        0 min,  0.040 sec
 * total energy  :  -164.8581854 Eh     change       -0.1458581E-02 Eh
   gradient norm :     0.0183976 Eh/α   predicted    -0.1543373E-02 (   5.81%)
   displ. norm   :     0.2921881 α      lambda       -0.1031463E-02
   maximum displ.:     0.0976812 α      in ANC's #29, #26, #24, ...

........................................................................
.............................. CYCLE    9 ..............................
........................................................................
   1   -167.8844066 -0.167884E+03  0.151E-01    0.62       0.0  T
   2   -167.8844224 -0.158494E-04  0.811E-02    0.62       1.0  T
   3   -167.8843719  0.504643E-04  0.265E-02    0.62       1.0  T
   4   -167.8844222 -0.502867E-04  0.119E-02    0.62       1.0  T
   5   -167.8844209  0.137505E-05  0.966E-03    0.62       1.1  T
   6   -167.8844317 -0.108773E-04  0.200E-03    0.62       5.4  T
   7   -167.8844320 -0.317753E-06  0.117E-03    0.62       9.2  T
   8   -167.8844321 -0.103711E-06  0.630E-04    0.62      17.1  T
     SCC iter.                  ...        0 min,  0.584 sec
     gradient                   ...        0 min,  0.042 sec
 * total energy  :  -164.8587079 Eh     change       -0.5224353E-03 Eh
   gradient norm :     0.0140044 Eh/α   predicted    -0.5597649E-03 (   7.15%)
   displ. norm   :     0.4969477 α      lambda       -0.1762852E-02
   maximum displ.:     0.1748877 α      in ANC's #29, #26, #21, ...

........................................................................
.............................. CYCLE   10 ..............................
........................................................................
   1   -167.8939805 -0.167894E+03  0.270E-01    0.61       0.0  T
   2   -167.8940405 -0.600005E-04  0.146E-01    0.61       1.0  T
   3   -167.8939809  0.595762E-04  0.346E-02    0.61       1.0  T
   4   -167.8940526 -0.716919E-04  0.173E-02    0.61       1.0  T
   5   -167.8940483  0.425110E-05  0.128E-02    0.61       1.0  T
   6   -167.8940679 -0.195520E-04  0.372E-03    0.61       2.9  T
   7   -167.8940691 -0.120057E-05  0.191E-03    0.61       5.6  T
   8   -167.8940693 -0.202248E-06  0.109E-03    0.61       9.9  T
     SCC iter.                  ...        0 min,  0.408 sec
     gradient                   ...        0 min,  0.047 sec
 * total energy  :  -164.8587804 Eh     change       -0.7256370E-04 Eh
   gradient norm :     0.0398169 Eh/α   predicted    -0.1099102E-02 (1414.67%)
   displ. norm   :     0.1909142 α      lambda       -0.1547416E-02
   maximum displ.:     0.0560257 α      in ANC's #20, #24, #29, ...

........................................................................
.............................. CYCLE   11 ..............................
........................................................................
   1   -167.8892655 -0.167889E+03  0.117E-01    0.61       0.0  T
   2   -167.8892766 -0.110680E-04  0.643E-02    0.61       1.0  T
   3   -167.8891774  0.991240E-04  0.282E-02    0.61       1.0  T
   4   -167.8892773 -0.998540E-04  0.937E-03    0.61       1.2  T
   5   -167.8892844 -0.709522E-05  0.523E-03    0.61       2.1  T
   6   -167.8892862 -0.176434E-05  0.196E-03    0.61       5.5  T
   7   -167.8892864 -0.227736E-06  0.988E-04    0.61      10.9  T
     SCC iter.                  ...        0 min,  0.344 sec
     gradient                   ...        0 min,  0.040 sec
 * total energy  :  -164.8596720 Eh     change       -0.8915753E-03 Eh
   gradient norm :     0.0143769 Eh/α   predicted    -0.8019095E-03 ( -10.06%)
   displ. norm   :     0.3349516 α      lambda       -0.1351079E-02
   maximum displ.:     0.1151826 α      in ANC's #20, #21, #24, ...

........................................................................
.............................. CYCLE   12 ..............................
........................................................................
   1   -167.8699005 -0.167870E+03  0.245E-01    0.62       0.0  T
   2   -167.8699526 -0.521726E-04  0.135E-01    0.62       1.0  T
   3   -167.8697386  0.213982E-03  0.457E-02    0.62       1.0  T
   4   -167.8699717 -0.233057E-03  0.128E-02    0.62       1.0  T
   5   -167.8699807 -0.894886E-05  0.874E-03    0.62       1.2  T
   6   -167.8699875 -0.687824E-05  0.242E-03    0.62       4.5  T
   7   -167.8699878 -0.319814E-06  0.116E-03    0.62       9.3  T
   8   -167.8699879 -0.354280E-07  0.670E-04    0.62      16.1  T
     SCC iter.                  ...        0 min,  0.402 sec
     gradient                   ...        0 min,  0.044 sec
 * total energy  :  -164.8583558 Eh     change        0.1316200E-02 Eh
   gradient norm :     0.0441519 Eh/α   predicted    -0.7513302E-03 (-157.08%)
   displ. norm   :     0.1944679 α      lambda       -0.3544491E-02
   maximum displ.:     0.0710298 α      in ANC's #13, #34, #12, ...

........................................................................
.............................. CYCLE   13 ..............................
........................................................................
   1   -167.8865009 -0.167887E+03  0.186E-01    0.62       0.0  T
   2   -167.8865356 -0.347721E-04  0.103E-01    0.62       1.0  T
   3   -167.8864807  0.549093E-04  0.251E-02    0.62       1.0  T
   4   -167.8865479 -0.672185E-04  0.735E-03    0.62       1.5  T
   5   -167.8865524 -0.445462E-05  0.413E-03    0.62       2.6  T
   6   -167.8865537 -0.132160E-05  0.157E-03    0.62       6.9  T
     SCC iter.                  ...        0 min,  0.437 sec
     gradient                   ...        0 min,  0.035 sec
 * total energy  :  -164.8601101 Eh     change       -0.1754262E-02 Eh
   gradient norm :     0.0087562 Eh/α   predicted    -0.1839270E-02 (   4.85%)
   displ. norm   :     0.2418310 α      lambda       -0.4444160E-03
   maximum displ.:     0.0987262 α      in ANC's #13, #28, #26, ...

........................................................................
.............................. CYCLE   14 ..............................
........................................................................
   1   -167.8842674 -0.167884E+03  0.152E-01    0.62       0.0  T
   2   -167.8842831 -0.157253E-04  0.837E-02    0.62       1.0  T
   3   -167.8841423  0.140780E-03  0.335E-02    0.62       1.0  T
   4   -167.8842939 -0.151612E-03  0.762E-03    0.62       1.4  T
   5   -167.8842946 -0.632850E-06  0.536E-03    0.62       2.0  T
   6   -167.8842965 -0.196941E-05  0.190E-03    0.62       5.7  T
   7   -167.8842968 -0.301784E-06  0.101E-03    0.62      10.6  T
     SCC iter.                  ...        0 min,  0.138 sec
     gradient                   ...        0 min,  0.029 sec
 * total energy  :  -164.8598888 Eh     change        0.2212588E-03 Eh
   gradient norm :     0.0138929 Eh/α   predicted    -0.2351976E-03 (-206.30%)
   displ. norm   :     0.1806148 α      lambda       -0.9014436E-03
   maximum displ.:     0.0748097 α      in ANC's #4, #21, #29, ...

........................................................................
.............................. CYCLE   15 ..............................
........................................................................
   1   -167.8865497 -0.167887E+03  0.116E-01    0.62       0.0  T
   2   -167.8865611 -0.113390E-04  0.636E-02    0.62       1.0  T
   3   -167.8865518  0.925101E-05  0.125E-02    0.62       1.0  T
   4   -167.8865649 -0.131208E-04  0.513E-03    0.62       2.1  T
   5   -167.8865646  0.332317E-06  0.419E-03    0.62       2.6  T
   6   -167.8865666 -0.201542E-05  0.111E-03    0.62       9.7  T
   7   -167.8865667 -0.881483E-07  0.607E-04    0.62      17.8  T
     SCC iter.                  ...        0 min,  0.136 sec
     gradient                   ...        0 min,  0.032 sec
 * total energy  :  -164.8603844 Eh     change       -0.4956223E-03 Eh
   gradient norm :     0.0076319 Eh/α   predicted    -0.4654207E-03 (  -6.09%)
   displ. norm   :     0.2223371 α      lambda       -0.3476994E-03
   maximum displ.:     0.0972555 α      in ANC's #13, #21, #15, ...

........................................................................
.............................. CYCLE   16 ..............................
........................................................................
   1   -167.8850110 -0.167885E+03  0.108E-01    0.62       0.0  T
   2   -167.8850187 -0.763930E-05  0.599E-02    0.62       1.0  T
   3   -167.8849361  0.825328E-04  0.254E-02    0.62       1.0  T
   4   -167.8850201 -0.839645E-04  0.825E-03    0.62       1.3  T
   5   -167.8850251 -0.505434E-05  0.412E-03    0.62       2.6  T
   6   -167.8850259 -0.786910E-06  0.177E-03    0.62       6.1  T
   7   -167.8850262 -0.218056E-06  0.945E-04    0.62      11.4  T
     SCC iter.                  ...        0 min,  0.138 sec
     gradient                   ...        0 min,  0.030 sec
 * total energy  :  -164.8602463 Eh     change        0.1381400E-03 Eh
   gradient norm :     0.0109991 Eh/α   predicted    -0.1824466E-03 (-232.07%)
   displ. norm   :     0.1647653 α      lambda       -0.6506647E-03
   maximum displ.:     0.0862441 α      in ANC's #4, #5, #13, ...

........................................................................
.............................. CYCLE   17 ..............................
........................................................................
   1   -167.8879363 -0.167888E+03  0.118E-01    0.62       0.0  T
   2   -167.8879466 -0.102781E-04  0.648E-02    0.62       1.0  T
   3   -167.8878992  0.473722E-04  0.213E-02    0.63       1.0  T
   4   -167.8879526 -0.534100E-04  0.393E-03    0.62       2.7  T
   5   -167.8879526  0.176477E-07  0.305E-03    0.62       3.5  T
   6   -167.8879534 -0.819737E-06  0.109E-03    0.62       9.9  T
   7   -167.8879535 -0.114280E-06  0.513E-04    0.62      21.0  T
     SCC iter.                  ...        0 min,  0.134 sec
     gradient                   ...        0 min,  0.036 sec
 * total energy  :  -164.8605448 Eh     change       -0.2985396E-03 Eh
   gradient norm :     0.0071357 Eh/α   predicted    -0.3341685E-03 (  11.93%)
   displ. norm   :     0.2137009 α      lambda       -0.3905391E-03
   maximum displ.:     0.0798050 α      in ANC's #13, #26, #27, ...

........................................................................
.............................. CYCLE   18 ..............................
........................................................................
   1   -167.8886873 -0.167889E+03  0.945E-02    0.63       0.0  T
   2   -167.8886841  0.316342E-05  0.531E-02    0.63       1.0  T
   3   -167.8883333  0.350818E-03  0.531E-02    0.63       1.0  T
   4   -167.8887042 -0.370895E-03  0.968E-03    0.63       1.1  T
   5   -167.8887072 -0.300242E-05  0.597E-03    0.63       1.8  T
   6   -167.8887087 -0.151998E-05  0.347E-03    0.63       3.1  T
   7   -167.8887099 -0.118393E-05  0.158E-03    0.63       6.8  T
   8   -167.8887101 -0.252013E-06  0.601E-04    0.63      17.9  T
     SCC iter.                  ...        0 min,  0.152 sec
     gradient                   ...        0 min,  0.035 sec
 * total energy  :  -164.8604204 Eh     change        0.1244626E-03 Eh
   gradient norm :     0.0163509 Eh/α   predicted    -0.2042029E-03 (-264.07%)
   displ. norm   :     0.1051073 α      lambda       -0.5009767E-03
   maximum displ.:     0.0487647 α      in ANC's #35, #39, #13, ...

........................................................................
.............................. CYCLE   19 ..............................
........................................................................
   1   -167.8868652 -0.167887E+03  0.577E-02    0.62       0.0  T
   2   -167.8868637  0.153888E-05  0.326E-02    0.62       1.0  T
   3   -167.8867139  0.149831E-03  0.339E-02    0.62       1.0  T
   4   -167.8868723 -0.158407E-03  0.446E-03    0.62       2.4  T
   5   -167.8868734 -0.112114E-05  0.244E-03    0.62       4.4  T
   6   -167.8868737 -0.354935E-06  0.139E-03    0.62       7.8  T
     SCC iter.                  ...        0 min,  0.115 sec
     gradient                   ...        0 min,  0.033 sec
 * total energy  :  -164.8606737 Eh     change       -0.2533358E-03 Eh
   gradient norm :     0.0048791 Eh/α   predicted    -0.2532635E-03 (  -0.03%)
   displ. norm   :     0.1301989 α      lambda       -0.2174872E-03
   maximum displ.:     0.0528144 α      in ANC's #13, #9, #4, ...

........................................................................
.............................. CYCLE   20 ..............................
........................................................................
   1   -167.8899370 -0.167890E+03  0.909E-02    0.63       0.0  T
   2   -167.8899459 -0.889771E-05  0.500E-02    0.63       1.0  T
   3   -167.8899051  0.407639E-04  0.189E-02    0.63       1.0  T
   4   -167.8899451 -0.399333E-04  0.758E-03    0.63       1.4  T
   5   -167.8899512 -0.612677E-05  0.294E-03    0.63       3.7  T
   6   -167.8899517 -0.463178E-06  0.133E-03    0.63       8.1  T
   7   -167.8899517 -0.692457E-07  0.607E-04    0.63      17.8  T
     SCC iter.                  ...        0 min,  0.137 sec
     gradient                   ...        0 min,  0.036 sec
 * total energy  :  -164.8605072 Eh     change        0.1665255E-03 Eh
   gradient norm :     0.0124142 Eh/α   predicted    -0.1105912E-03 (-166.41%)
   displ. norm   :     0.1056147 α      lambda       -0.4592764E-03
   maximum displ.:     0.0373865 α      in ANC's #23, #5, #13, ...
 * RMSD in coord.:     0.4067729 α      energy gain  -0.6524624E-01 Eh

generating ANC from model Hessian ...
Using Lindh-Hessian (1995)
 Shifting diagonal of input Hessian by   4.977740187579443E-003
 Lowest  eigenvalues of input Hessian
   -0.000000   -0.000000   -0.000000    0.000000    0.000000    0.000000
    0.005000    0.005008    0.005038    0.005082    0.005119    0.005141
    0.005155    0.005191    0.005232    0.005246    0.005283    0.005383
 Highest eigenvalues
    2.621551    2.621793    2.634681    2.634812    2.635134    2.635368
 

........................................................................
.............................. CYCLE   21 ..............................
........................................................................
   1   -167.8895604 -0.167890E+03  0.754E-02    0.63       0.0  T
   2   -167.8895656 -0.520201E-05  0.417E-02    0.63       1.0  T
   3   -167.8895371  0.284411E-04  0.153E-02    0.63       1.0  T
   4   -167.8895663 -0.291585E-04  0.526E-03    0.63       2.0  T
   5   -167.8895687 -0.240093E-05  0.235E-03    0.63       4.6  T
   6   -167.8895689 -0.175400E-06  0.129E-03    0.63       8.4  T
   7   -167.8895690 -0.767043E-07  0.719E-04    0.63      15.0  T
   8   -167.8895690 -0.481963E-07  0.345E-04    0.63      31.3  T
     SCC iter.                  ...        0 min,  0.160 sec
     gradient                   ...        0 min,  0.032 sec
 * total energy  :  -164.8607541 Eh     change       -0.2468853E-03 Eh
   gradient norm :     0.0038217 Eh/α   predicted     0.0000000E+00 (-100.00%)
   displ. norm   :     0.0911901 α      lambda       -0.7838733E-04
   maximum displ.:     0.0357554 α      in ANC's #5, #9, #26, ...

........................................................................
.............................. CYCLE   22 ..............................
........................................................................
   1   -167.8886516 -0.167889E+03  0.450E-02    0.62       0.0  T
   2   -167.8886530 -0.140706E-05  0.242E-02    0.62       1.0  T
   3   -167.8886479  0.510792E-05  0.800E-03    0.62       1.3  T
   4   -167.8886531 -0.518687E-05  0.317E-03    0.62       3.4  T
   5   -167.8886531 -0.790588E-07  0.232E-03    0.62       4.6  T
   6   -167.8886538 -0.671726E-06  0.533E-04    0.62      20.2  T
   7   -167.8886538 -0.275855E-07  0.229E-04    0.62      47.1  T
     SCC iter.                  ...        0 min,  0.207 sec
     gradient                   ...        0 min,  0.036 sec
 * total energy  :  -164.8607999 Eh     change       -0.4583101E-04 Eh
   gradient norm :     0.0025725 Eh/α   predicted    -0.3951959E-04 ( -13.77%)
   displ. norm   :     0.1833952 α      lambda       -0.1684046E-03
   maximum displ.:     0.0855563 α      in ANC's #6, #34, #26, ...

........................................................................
.............................. CYCLE   23 ..............................
........................................................................
   1   -167.8865184 -0.167887E+03  0.894E-02    0.62       0.0  T
   2   -167.8865228 -0.435781E-05  0.480E-02    0.62       1.0  T
   3   -167.8864794  0.433938E-04  0.214E-02    0.62       1.0  T
   4   -167.8865238 -0.444426E-04  0.657E-03    0.62       1.6  T
   5   -167.8865238  0.458719E-07  0.482E-03    0.62       2.2  T
   6   -167.8865267 -0.287736E-05  0.126E-03    0.62       8.6  T
   7   -167.8865268 -0.174523E-06  0.498E-04    0.62      21.6  T
   8   -167.8865268 -0.559783E-08  0.335E-04    0.62      32.2  T
     SCC iter.                  ...        0 min,  0.154 sec
     gradient                   ...        0 min,  0.037 sec
 * total energy  :  -164.8608464 Eh     change       -0.4652922E-04 Eh
   gradient norm :     0.0060309 Eh/α   predicted    -0.8703496E-04 (  87.05%)
   displ. norm   :     0.0871727 α      lambda       -0.1088649E-03
   maximum displ.:     0.0388721 α      in ANC's #19, #5, #15, ...

........................................................................
.............................. CYCLE   24 ..............................
........................................................................
   1   -167.8872909 -0.167887E+03  0.474E-02    0.62       0.0  T
   2   -167.8872925 -0.160241E-05  0.263E-02    0.62       1.0  T
   3   -167.8872905  0.201380E-05  0.553E-03    0.62       1.9  T
   4   -167.8872929 -0.248761E-05  0.231E-03    0.62       4.7  T
   5   -167.8872929  0.353651E-07  0.190E-03    0.62       5.7  T
     SCC iter.                  ...        0 min,  0.098 sec
     gradient                   ...        0 min,  0.031 sec
 * total energy  :  -164.8608878 Eh     change       -0.4140835E-04 Eh
   gradient norm :     0.0046278 Eh/α   predicted    -0.5484683E-04 (  32.45%)
   displ. norm   :     0.1623905 α      lambda       -0.2014724E-03
   maximum displ.:     0.0673372 α      in ANC's #6, #9, #5, ...

........................................................................
.............................. CYCLE   25 ..............................
........................................................................
   1   -167.8889634 -0.167889E+03  0.769E-02    0.62       0.0  T
   2   -167.8889680 -0.459548E-05  0.427E-02    0.62       1.0  T
   3   -167.8889643  0.375610E-05  0.803E-03    0.62       1.3  T
   4   -167.8889682 -0.389665E-05  0.464E-03    0.62       2.3  T
   5   -167.8889693 -0.108074E-05  0.294E-03    0.62       3.7  T
   6   -167.8889702 -0.888921E-06  0.852E-04    0.62      12.6  T
     SCC iter.                  ...        0 min,  0.116 sec
     gradient                   ...        0 min,  0.029 sec
 * total energy  :  -164.8609362 Eh     change       -0.4831612E-04 Eh
   gradient norm :     0.0056426 Eh/α   predicted    -0.1033930E-03 ( 113.99%)
   displ. norm   :     0.1384065 α      lambda       -0.1322812E-03
   maximum displ.:     0.0524091 α      in ANC's #6, #19, #26, ...

........................................................................
.............................. CYCLE   26 ..............................
........................................................................
   1   -167.8882773 -0.167888E+03  0.636E-02    0.61       0.0  T
   2   -167.8882802 -0.289108E-05  0.346E-02    0.61       1.0  T
   3   -167.8882781  0.204904E-05  0.636E-03    0.61       1.7  T
   4   -167.8882794 -0.123423E-05  0.451E-03    0.61       2.4  T
   5   -167.8882805 -0.117582E-05  0.266E-03    0.61       4.0  T
   6   -167.8882814 -0.883813E-06  0.712E-04    0.61      15.1  T
     SCC iter.                  ...        0 min,  0.115 sec
     gradient                   ...        0 min,  0.034 sec
 * total energy  :  -164.8609855 Eh     change       -0.4934455E-04 Eh
   gradient norm :     0.0039289 Eh/α   predicted    -0.6740821E-04 (  36.61%)
   displ. norm   :     0.2348245 α      lambda       -0.1918545E-03
   maximum displ.:     0.1085556 α      in ANC's #6, #5, #28, ...

........................................................................
.............................. CYCLE   27 ..............................
........................................................................
   1   -167.8858503 -0.167886E+03  0.109E-01    0.61       0.0  T
   2   -167.8858590 -0.867159E-05  0.584E-02    0.61       1.0  T
   3   -167.8858390  0.200139E-04  0.159E-02    0.61       1.0  T
   4   -167.8858564 -0.174582E-04  0.869E-03    0.61       1.2  T
   5   -167.8858606 -0.415602E-05  0.486E-03    0.61       2.2  T
   6   -167.8858632 -0.258187E-05  0.116E-03    0.61       9.3  T
   7   -167.8858633 -0.104808E-06  0.634E-04    0.61      17.0  T
   8   -167.8858633 -0.180803E-07  0.390E-04    0.61      27.6  T
     SCC iter.                  ...        0 min,  0.152 sec
     gradient                   ...        0 min,  0.034 sec
 * total energy  :  -164.8609972 Eh     change       -0.1171882E-04 Eh
   gradient norm :     0.0065597 Eh/α   predicted    -0.1012211E-03 ( 763.75%)
   displ. norm   :     0.0767779 α      lambda       -0.1520682E-03
   maximum displ.:     0.0237152 α      in ANC's #14, #6, #5, ...

........................................................................
.............................. CYCLE   28 ..............................
........................................................................
   1   -167.8879315 -0.167888E+03  0.485E-02    0.61       0.0  T
   2   -167.8879333 -0.182139E-05  0.267E-02    0.61       1.0  T
   3   -167.8879214  0.119217E-04  0.100E-02    0.61       1.1  T
   4   -167.8879343 -0.129139E-04  0.224E-03    0.61       4.8  T
   5   -167.8879346 -0.221737E-06  0.148E-03    0.61       7.3  T
   6   -167.8879347 -0.151625E-06  0.556E-04    0.61      19.4  T
     SCC iter.                  ...        0 min,  0.117 sec
     gradient                   ...        0 min,  0.037 sec
 * total energy  :  -164.8610653 Eh     change       -0.6810680E-04 Eh
   gradient norm :     0.0032934 Eh/α   predicted    -0.7648449E-04 (  12.30%)
   displ. norm   :     0.1354957 α      lambda       -0.1510338E-03
   maximum displ.:     0.0557630 α      in ANC's #5, #6, #9, ...

........................................................................
.............................. CYCLE   29 ..............................
........................................................................
   1   -167.8899409 -0.167890E+03  0.767E-02    0.61       0.0  T
   2   -167.8899452 -0.430422E-05  0.423E-02    0.61       1.0  T
   3   -167.8899186  0.266202E-04  0.163E-02    0.61       1.0  T
   4   -167.8899474 -0.287844E-04  0.386E-03    0.61       2.8  T
   5   -167.8899477 -0.287644E-06  0.294E-03    0.61       3.7  T
   6   -167.8899485 -0.761881E-06  0.115E-03    0.61       9.4  T
   7   -167.8899486 -0.135356E-06  0.482E-04    0.61      22.4  T
   8   -167.8899486 -0.135452E-07  0.278E-04    0.61      38.8  T
     SCC iter.                  ...        0 min,  0.152 sec
     gradient                   ...        0 min,  0.030 sec
 * total energy  :  -164.8610441 Eh     change        0.2120747E-04 Eh
   gradient norm :     0.0061622 Eh/α   predicted    -0.7690438E-04 (-462.63%)
   displ. norm   :     0.1233663 α      lambda       -0.1603495E-03
   maximum displ.:     0.0495621 α      in ANC's #6, #5, #28, ...

........................................................................
.............................. CYCLE   30 ..............................
........................................................................
   1   -167.8888187 -0.167889E+03  0.613E-02    0.61       0.0  T
   2   -167.8888216 -0.283727E-05  0.332E-02    0.61       1.0  T
   3   -167.8888169  0.463824E-05  0.799E-03    0.61       1.4  T
   4   -167.8888215 -0.453696E-05  0.413E-03    0.61       2.6  T
   5   -167.8888221 -0.671594E-06  0.259E-03    0.61       4.2  T
   6   -167.8888229 -0.783422E-06  0.630E-04    0.61      17.1  T
     SCC iter.                  ...        0 min,  0.116 sec
     gradient                   ...        0 min,  0.033 sec
 * total energy  :  -164.8611227 Eh     change       -0.7857976E-04 Eh
   gradient norm :     0.0027652 Eh/α   predicted    -0.8139909E-04 (   3.59%)
   displ. norm   :     0.1969899 α      lambda       -0.1407567E-03
   maximum displ.:     0.0970295 α      in ANC's #6, #28, #5, ...

........................................................................
.............................. CYCLE   31 ..............................
........................................................................
   1   -167.8865411 -0.167887E+03  0.101E-01    0.61       0.0  T
   2   -167.8865486 -0.745038E-05  0.549E-02    0.61       1.0  T
   3   -167.8865340  0.145727E-04  0.140E-02    0.61       1.0  T
   4   -167.8865509 -0.169363E-04  0.525E-03    0.61       2.1  T
   5   -167.8865505  0.398921E-06  0.430E-03    0.61       2.5  T
   6   -167.8865526 -0.206315E-05  0.104E-03    0.61      10.4  T
   7   -167.8865527 -0.782597E-07  0.618E-04    0.61      17.4  T
   8   -167.8865527 -0.205256E-07  0.374E-04    0.61      28.8  T
     SCC iter.                  ...        0 min,  0.344 sec
     gradient                   ...        0 min,  0.034 sec
 * total energy  :  -164.8610554 Eh     change        0.6730357E-04 Eh
   gradient norm :     0.0063329 Eh/α   predicted    -0.7312089E-04 (-208.64%)
   displ. norm   :     0.0737560 α      lambda       -0.2247125E-03
   maximum displ.:     0.0262592 α      in ANC's #5, #4, #22, ...

........................................................................
.............................. CYCLE   32 ..............................
........................................................................
   1   -167.8883633 -0.167888E+03  0.587E-02    0.61       0.0  T
   2   -167.8883661 -0.283837E-05  0.323E-02    0.61       1.0  T
   3   -167.8883573  0.889679E-05  0.951E-03    0.61       1.1  T
   4   -167.8883676 -0.103864E-04  0.207E-03    0.61       5.2  T
   5   -167.8883677 -0.346093E-07  0.168E-03    0.61       6.4  T
   6   -167.8883679 -0.220326E-06  0.723E-04    0.61      14.9  T
     SCC iter.                  ...        0 min,  0.117 sec
     gradient                   ...        0 min,  0.036 sec
 * total energy  :  -164.8611710 Eh     change       -0.1156521E-03 Eh
   gradient norm :     0.0020318 Eh/α   predicted    -0.1129716E-03 (  -2.32%)
   displ. norm   :     0.1389826 α      lambda       -0.1105526E-03
   maximum displ.:     0.0488049 α      in ANC's #6, #5, #12, ...

........................................................................
.............................. CYCLE   33 ..............................
........................................................................
   1   -167.8894293 -0.167889E+03  0.823E-02    0.61       0.0  T
   2   -167.8894347 -0.539390E-05  0.455E-02    0.61       1.0  T
   3   -167.8894260  0.863884E-05  0.108E-02    0.61       1.0  T
   4   -167.8894370 -0.109909E-04  0.304E-03    0.61       3.5  T
   5   -167.8894369  0.116208E-06  0.265E-03    0.61       4.1  T
   6   -167.8894376 -0.692810E-06  0.838E-04    0.61      12.9  T
   7   -167.8894377 -0.632255E-07  0.413E-04    0.61      26.1  T
     SCC iter.                  ...        0 min,  0.136 sec
     gradient                   ...        0 min,  0.031 sec
 * total energy  :  -164.8610759 Eh     change        0.9518042E-04 Eh
   gradient norm :     0.0065283 Eh/α   predicted    -0.5635275E-04 (-159.21%)
   displ. norm   :     0.0897712 α      lambda       -0.2519251E-03
   maximum displ.:     0.0339095 α      in ANC's #6, #9, #28, ...

........................................................................
.............................. CYCLE   34 ..............................
........................................................................
   1   -167.8890792 -0.167889E+03  0.646E-02    0.61       0.0  T
   2   -167.8890828 -0.361602E-05  0.354E-02    0.61       1.0  T
   3   -167.8890800  0.281427E-05  0.701E-03    0.61       1.5  T
   4   -167.8890845 -0.443387E-05  0.206E-03    0.61       5.2  T
   5   -167.8890842  0.231361E-06  0.200E-03    0.61       5.4  T
   6   -167.8890847 -0.426280E-06  0.505E-04    0.61      21.3  T
     SCC iter.                  ...        0 min,  0.121 sec
     gradient                   ...        0 min,  0.039 sec
 * total energy  :  -164.8612131 Eh     change       -0.1372700E-03 Eh
   gradient norm :     0.0015177 Eh/α   predicted    -0.1269788E-03 (  -7.50%)
   displ. norm   :     0.2306204 α      lambda       -0.3831830E-04
   maximum displ.:     0.1183025 α      in ANC's #6, #5, #12, ...

........................................................................
.............................. CYCLE   35 ..............................
........................................................................
   1   -167.8859850 -0.167886E+03  0.965E-02    0.61       0.0  T
   2   -167.8859917 -0.670288E-05  0.530E-02    0.61       1.0  T
   3   -167.8859925 -0.794450E-06  0.630E-03    0.61       1.7  T
   4   -167.8859919  0.621832E-06  0.514E-03    0.61       2.1  T
   5   -167.8859937 -0.185410E-05  0.229E-03    0.61       4.7  T
   6   -167.8859943 -0.598370E-06  0.902E-04    0.61      12.0  T
   7   -167.8859944 -0.556182E-07  0.487E-04    0.61      22.1  T
     SCC iter.                  ...        0 min,  0.134 sec
     gradient                   ...        0 min,  0.037 sec
 * total energy  :  -164.8611813 Eh     change        0.3185881E-04 Eh
   gradient norm :     0.0091577 Eh/α   predicted    -0.1961354E-04 (-161.56%)
   displ. norm   :     0.2082010 α      lambda       -0.1225055E-03
   maximum displ.:     0.0891455 α      in ANC's #6, #9, #12, ...

........................................................................
.............................. CYCLE   36 ..............................
........................................................................
   1   -167.8869157 -0.167887E+03  0.662E-02    0.61       0.0  T
   2   -167.8869183 -0.251963E-05  0.367E-02    0.61       1.0  T
   3   -167.8869186 -0.321963E-06  0.483E-03    0.61       2.2  T
   4   -167.8869172  0.141747E-05  0.446E-03    0.61       2.4  T
   5   -167.8869190 -0.183746E-05  0.135E-03    0.61       8.0  T
   6   -167.8869191 -0.141249E-06  0.593E-04    0.61      18.2  T
     SCC iter.                  ...        0 min,  0.118 sec
     gradient                   ...        0 min,  0.030 sec
 * total energy  :  -164.8612646 Eh     change       -0.8327296E-04 Eh
   gradient norm :     0.0036960 Eh/α   predicted    -0.6391331E-04 ( -23.25%)
   displ. norm   :     0.2105327 α      lambda       -0.6442668E-04
   maximum displ.:     0.0943318 α      in ANC's #6, #12, #5, ...

........................................................................
.............................. CYCLE   37 ..............................
........................................................................
   1   -167.8893507 -0.167889E+03  0.632E-02    0.61       0.0  T
   2   -167.8893527 -0.208251E-05  0.350E-02    0.61       1.0  T
   3   -167.8893499  0.281077E-05  0.649E-03    0.61       1.7  T
   4   -167.8893493  0.631766E-06  0.608E-03    0.61       1.8  T
   5   -167.8893533 -0.396732E-05  0.191E-03    0.61       5.6  T
   6   -167.8893536 -0.306169E-06  0.761E-04    0.61      14.2  T
   7   -167.8893536 -0.499945E-07  0.380E-04    0.61      28.4  T
     SCC iter.                  ...        0 min,  0.135 sec
     gradient                   ...        0 min,  0.034 sec
 * total energy  :  -164.8612971 Eh     change       -0.3252388E-04 Eh
   gradient norm :     0.0025207 Eh/α   predicted    -0.3364489E-04 (   3.45%)
   displ. norm   :     0.2885328 α      lambda       -0.7097627E-04
   maximum displ.:     0.1150009 α      in ANC's #12, #5, #6, ...

........................................................................
.............................. CYCLE   38 ..............................
........................................................................
   1   -167.8904067 -0.167890E+03  0.991E-02    0.61       0.0  T
   2   -167.8904132 -0.651044E-05  0.546E-02    0.61       1.0  T
   3   -167.8904141 -0.839380E-06  0.703E-03    0.61       1.5  T
   4   -167.8904133  0.768347E-06  0.562E-03    0.61       1.9  T
   5   -167.8904156 -0.224247E-05  0.164E-03    0.61       6.6  T
   6   -167.8904157 -0.191219E-06  0.840E-04    0.61      12.8  T
   7   -167.8904158 -0.322199E-07  0.518E-04    0.61      20.8  T
     SCC iter.                  ...        0 min,  0.134 sec
     gradient                   ...        0 min,  0.029 sec
 * total energy  :  -164.8612654 Eh     change        0.3167038E-04 Eh
   gradient norm :     0.0095527 Eh/α   predicted    -0.3844531E-04 (-221.39%)
   displ. norm   :     0.0484747 α      lambda       -0.1178478E-03
   maximum displ.:     0.0238070 α      in ANC's #6, #15, #21, ...

........................................................................
.............................. CYCLE   39 ..............................
........................................................................
   1   -167.8881552 -0.167888E+03  0.413E-02    0.61       0.0  T
   2   -167.8881568 -0.154626E-05  0.227E-02    0.61       1.0  T
   3   -167.8881564  0.407079E-06  0.332E-03    0.61       3.2  T
   4   -167.8881574 -0.982523E-06  0.123E-03    0.61       8.8  T
   5   -167.8881574 -0.366009E-07  0.870E-04    0.61      12.4  T
     SCC iter.                  ...        0 min,  0.096 sec
     gradient                   ...        0 min,  0.032 sec
 * total energy  :  -164.8613294 Eh     change       -0.6396263E-04 Eh
   gradient norm :     0.0026265 Eh/α   predicted    -0.5906262E-04 (  -7.66%)
   displ. norm   :     0.0608732 α      lambda       -0.2129746E-04
   maximum displ.:     0.0215633 α      in ANC's #12, #26, #25, ...

........................................................................
.............................. CYCLE   40 ..............................
........................................................................
   1   -167.8901831 -0.167890E+03  0.225E-02    0.61       0.0  T
   2   -167.8901835 -0.402823E-06  0.121E-02    0.61       1.0  T
   3   -167.8901825  0.105204E-05  0.388E-03    0.61       2.8  T
   4   -167.8901835 -0.963904E-06  0.182E-03    0.61       5.9  T
   5   -167.8901835 -0.230426E-07  0.151E-03    0.61       7.2  T
   6   -167.8901837 -0.262360E-06  0.363E-04    0.61      29.7  T
   7   -167.8901837 -0.107981E-07  0.114E-04    0.61      94.4  T
     SCC iter.                  ...        0 min,  0.322 sec
     gradient                   ...        0 min,  0.027 sec
 * total energy  :  -164.8613404 Eh     change       -0.1098537E-04 Eh
   gradient norm :     0.0024742 Eh/α   predicted    -0.1069038E-04 (  -2.69%)
   displ. norm   :     0.2593320 α      lambda       -0.2787190E-04
   maximum displ.:     0.1155200 α      in ANC's #6, #5, #12, ...

........................................................................
.............................. CYCLE   41 ..............................
........................................................................
   1   -167.8883816 -0.167888E+03  0.812E-02    0.60       0.0  T
   2   -167.8883856 -0.397831E-05  0.443E-02    0.60       1.0  T
   3   -167.8883843  0.127372E-05  0.737E-03    0.60       1.5  T
   4   -167.8883804  0.395072E-05  0.797E-03    0.60       1.4  T
   5   -167.8883862 -0.586044E-05  0.259E-03    0.60       4.2  T
   6   -167.8883870 -0.749120E-06  0.909E-04    0.60      11.9  T
   7   -167.8883871 -0.810672E-07  0.460E-04    0.60      23.4  T
     SCC iter.                  ...        0 min,  0.135 sec
     gradient                   ...        0 min,  0.034 sec
 * total energy  :  -164.8613586 Eh     change       -0.1821314E-04 Eh
   gradient norm :     0.0023496 Eh/α   predicted    -0.1487550E-04 ( -18.33%)
   displ. norm   :     0.1985236 α      lambda       -0.1891362E-04
   maximum displ.:     0.0880748 α      in ANC's #12, #5, #6, ...

........................................................................
.............................. CYCLE   42 ..............................
........................................................................
   1   -167.8884562 -0.167888E+03  0.608E-02    0.60       0.0  T
   2   -167.8884585 -0.229228E-05  0.328E-02    0.60       1.0  T
   3   -167.8884575  0.920819E-06  0.578E-03    0.60       1.9  T
   4   -167.8884555  0.203627E-05  0.598E-03    0.60       1.8  T
   5   -167.8884588 -0.328872E-05  0.206E-03    0.60       5.2  T
   6   -167.8884592 -0.436060E-06  0.697E-04    0.60      15.5  T
   7   -167.8884593 -0.492243E-07  0.367E-04    0.60      29.4  T
     SCC iter.                  ...        0 min,  0.134 sec
     gradient                   ...        0 min,  0.033 sec
 * total energy  :  -164.8613712 Eh     change       -0.1263533E-04 Eh
   gradient norm :     0.0015325 Eh/α   predicted    -0.9831176E-05 ( -22.19%)
   displ. norm   :     0.2146088 α      lambda       -0.1381042E-04
   maximum displ.:     0.0952978 α      in ANC's #12, #5, #1, ...
 * RMSD in coord.:     0.3156415 α      energy gain  -0.8640147E-03 Eh

generating ANC from model Hessian ...
Using Lindh-Hessian (1995)
 Shifting diagonal of input Hessian by   4.977914345429984E-003
 Lowest  eigenvalues of input Hessian
   -0.000000   -0.000000   -0.000000    0.000000    0.000000    0.000000
    0.005000    0.005007    0.005036    0.005076    0.005136    0.005149
    0.005179    0.005205    0.005241    0.005291    0.005337    0.005390
 Highest eigenvalues
    2.621322    2.623719    2.634282    2.634501    2.635049    2.637060
 

........................................................................
.............................. CYCLE   43 ..............................
........................................................................
   1   -167.8888168 -0.167889E+03  0.685E-02    0.60       0.0  T
   2   -167.8888198 -0.298365E-05  0.364E-02    0.60       1.0  T
   3   -167.8888194  0.397524E-06  0.616E-03    0.60       1.8  T
   4   -167.8888179  0.149973E-05  0.539E-03    0.60       2.0  T
   5   -167.8888202 -0.235378E-05  0.202E-03    0.60       5.3  T
   6   -167.8888207 -0.505166E-06  0.473E-04    0.60      22.8  T
   7   -167.8888208 -0.113337E-07  0.289E-04    0.60      37.3  T
     SCC iter.                  ...        0 min,  0.133 sec
     gradient                   ...        0 min,  0.039 sec
 * total energy  :  -164.8613813 Eh     change       -0.1006865E-04 Eh
   gradient norm :     0.0023231 Eh/α   predicted     0.0000000E+00 (-100.00%)
   displ. norm   :     0.0416359 α      lambda       -0.1841623E-04
   maximum displ.:     0.0134220 α      in ANC's #22, #18, #13, ...

........................................................................
.............................. CYCLE   44 ..............................
........................................................................
   1   -167.8884938 -0.167888E+03  0.351E-02    0.60       0.0  T
   2   -167.8884949 -0.106516E-05  0.193E-02    0.60       1.0  T
   3   -167.8884933  0.158126E-05  0.457E-03    0.60       2.4  T
   4   -167.8884954 -0.208285E-05  0.108E-03    0.60      10.0  T
   5   -167.8884954 -0.336699E-07  0.836E-04    0.60      12.9  T
   6   -167.8884955 -0.547824E-07  0.338E-04    0.60      31.9  T
     SCC iter.                  ...        0 min,  0.118 sec
     gradient                   ...        0 min,  0.030 sec
 * total energy  :  -164.8613692 Eh     change        0.1208231E-04 Eh
   gradient norm :     0.0022872 Eh/α   predicted    -0.9231045E-05 (-176.40%)
   displ. norm   :     0.0285632 α      lambda       -0.3974241E-04
   maximum displ.:     0.0112000 α      in ANC's #23, #25, #16, ...

........................................................................
.............................. CYCLE   45 ..............................
........................................................................
   1   -167.8886461 -0.167889E+03  0.252E-02    0.60       0.0  T
   2   -167.8886466 -0.555036E-06  0.139E-02    0.60       1.0  T
   3   -167.8886457  0.928045E-06  0.329E-03    0.60       3.3  T
   4   -167.8886469 -0.117285E-05  0.808E-04    0.60      13.3  T
   5   -167.8886469 -0.275178E-07  0.573E-04    0.60      18.8  T
   6   -167.8886469 -0.237382E-07  0.270E-04    0.60      39.9  T
     SCC iter.                  ...        0 min,  0.116 sec
     gradient                   ...        0 min,  0.033 sec
 * total energy  :  -164.8613891 Eh     change       -0.1990630E-04 Eh
   gradient norm :     0.0017070 Eh/α   predicted    -0.1988759E-04 (  -0.09%)
   displ. norm   :     0.0535599 α      lambda       -0.1577248E-04
   maximum displ.:     0.0224737 α      in ANC's #25, #28, #14, ...

........................................................................
.............................. CYCLE   46 ..............................
........................................................................
   1   -167.8885078 -0.167889E+03  0.489E-02    0.60       0.0  T
   2   -167.8885097 -0.192616E-05  0.269E-02    0.60       1.0  T
   3   -167.8885038  0.587377E-05  0.742E-03    0.60       1.5  T
   4   -167.8885106 -0.683754E-05  0.156E-03    0.60       6.9  T
   5   -167.8885108 -0.168349E-06  0.869E-04    0.60      12.4  T
   6   -167.8885109 -0.343678E-07  0.409E-04    0.60      26.4  T
     SCC iter.                  ...        0 min,  0.116 sec
     gradient                   ...        0 min,  0.034 sec
 * total energy  :  -164.8613454 Eh     change        0.4366330E-04 Eh
   gradient norm :     0.0034804 Eh/α   predicted    -0.7896661E-05 (-118.09%)
   displ. norm   :     0.0262444 α      lambda       -0.6533987E-04
   maximum displ.:     0.0111015 α      in ANC's #25, #7, #18, ...

........................................................................
.............................. CYCLE   47 ..............................
........................................................................
   1   -167.8888081 -0.167889E+03  0.263E-02    0.60       0.0  T
   2   -167.8888087 -0.571516E-06  0.145E-02    0.60       1.0  T
   3   -167.8888072  0.141348E-05  0.367E-03    0.60       2.9  T
   4   -167.8888090 -0.172407E-05  0.647E-04    0.60      16.7  T
   5   -167.8888090 -0.202679E-07  0.411E-04    0.60      26.2  T
   6   -167.8888090 -0.238427E-08  0.274E-04    0.60      39.4  T
     SCC iter.                  ...        0 min,  0.116 sec
     gradient                   ...        0 min,  0.029 sec
 * total energy  :  -164.8613893 Eh     change       -0.4390225E-04 Eh
   gradient norm :     0.0015439 Eh/α   predicted    -0.3269307E-04 ( -25.53%)
   displ. norm   :     0.0464824 α      lambda       -0.1932801E-04
   maximum displ.:     0.0137319 α      in ANC's #25, #1, #20, ...

........................................................................
.............................. CYCLE   48 ..............................
........................................................................
   1   -167.8884312 -0.167888E+03  0.383E-02    0.60       0.0  T
   2   -167.8884324 -0.117967E-05  0.211E-02    0.60       1.0  T
   3   -167.8884305  0.185629E-05  0.443E-03    0.60       2.4  T
   4   -167.8884329 -0.238600E-05  0.126E-03    0.60       8.6  T
   5   -167.8884329 -0.113050E-07  0.981E-04    0.60      11.0  T
   6   -167.8884330 -0.814264E-07  0.372E-04    0.60      29.0  T
     SCC iter.                  ...        0 min,  0.114 sec
     gradient                   ...        0 min,  0.027 sec
 * total energy  :  -164.8613764 Eh     change        0.1291318E-04 Eh
   gradient norm :     0.0025990 Eh/α   predicted    -0.9675846E-05 (-174.93%)
   displ. norm   :     0.0357430 α      lambda       -0.4089938E-04
   maximum displ.:     0.0128019 α      in ANC's #7, #28, #13, ...

........................................................................
.............................. CYCLE   49 ..............................
........................................................................
   1   -167.8885016 -0.167889E+03  0.295E-02    0.60       0.0  T
   2   -167.8885023 -0.726629E-06  0.163E-02    0.60       1.0  T
   3   -167.8885019  0.420913E-06  0.271E-03    0.60       4.0  T
   4   -167.8885026 -0.723599E-06  0.885E-04    0.60      12.2  T
   5   -167.8885026  0.371966E-08  0.772E-04    0.60      14.0  T
     SCC iter.                  ...        0 min,  0.281 sec
     gradient                   ...        0 min,  0.036 sec
 * total energy  :  -164.8613904 Eh     change       -0.1402424E-04 Eh
   gradient norm :     0.0024270 Eh/α   predicted    -0.2047636E-04 (  46.01%)
   displ. norm   :     0.0212463 α      lambda       -0.2376875E-04
   maximum displ.:     0.0073134 α      in ANC's #25, #8, #37, ...

........................................................................
.............................. CYCLE   50 ..............................
........................................................................
   1   -167.8889850 -0.167889E+03  0.218E-02    0.60       0.0  T
   2   -167.8889854 -0.411434E-06  0.120E-02    0.60       1.0  T
   3   -167.8889850  0.441330E-06  0.233E-03    0.60       4.6  T
   4   -167.8889856 -0.634471E-06  0.593E-04    0.60      18.2  T
   5   -167.8889856 -0.893601E-08  0.428E-04    0.60      25.2  T
     SCC iter.                  ...        0 min,  0.094 sec
     gradient                   ...        0 min,  0.037 sec
 * total energy  :  -164.8613973 Eh     change       -0.6881969E-05 Eh
   gradient norm :     0.0011579 Eh/α   predicted    -0.1189749E-04 (  72.88%)
   displ. norm   :     0.0460086 α      lambda       -0.1783473E-04
   maximum displ.:     0.0222553 α      in ANC's #20, #13, #8, ...

........................................................................
.............................. CYCLE   51 ..............................
........................................................................
   1   -167.8890924 -0.167889E+03  0.431E-02    0.60       0.0  T
   2   -167.8890941 -0.172164E-05  0.237E-02    0.60       1.0  T
   3   -167.8890927  0.148381E-05  0.464E-03    0.60       2.3  T
   4   -167.8890950 -0.233023E-05  0.940E-04    0.60      11.5  T
   5   -167.8890950 -0.147394E-07  0.724E-04    0.60      14.9  T
   6   -167.8890951 -0.398390E-07  0.205E-04    0.60      52.5  T
     SCC iter.                  ...        0 min,  0.114 sec
     gradient                   ...        0 min,  0.036 sec
 * total energy  :  -164.8613569 Eh     change        0.4040502E-04 Eh
   gradient norm :     0.0036462 Eh/α   predicted    -0.8926364E-05 (-122.09%)
   displ. norm   :     0.0266564 α      lambda       -0.6173699E-04
   maximum displ.:     0.0116088 α      in ANC's #7, #16, #20, ...

........................................................................
.............................. CYCLE   52 ..............................
........................................................................
   1   -167.8889175 -0.167889E+03  0.247E-02    0.60       0.0  T
   2   -167.8889181 -0.571622E-06  0.136E-02    0.60       1.0  T
   3   -167.8889173  0.729706E-06  0.301E-03    0.60       3.6  T
   4   -167.8889183 -0.100538E-05  0.700E-04    0.60      15.4  T
   5   -167.8889183 -0.809089E-08  0.540E-04    0.60      20.0  T
   6   -167.8889184 -0.188034E-07  0.244E-04    0.60      44.3  T
     SCC iter.                  ...        0 min,  0.120 sec
     gradient                   ...        0 min,  0.039 sec
 * total energy  :  -164.8613972 Eh     change       -0.4029455E-04 Eh
   gradient norm :     0.0011814 Eh/α   predicted    -0.3089115E-04 ( -23.34%)
   displ. norm   :     0.0548375 α      lambda       -0.2264627E-04
   maximum displ.:     0.0266976 α      in ANC's #7, #9, #27, ...

........................................................................
.............................. CYCLE   53 ..............................
........................................................................
   1   -167.8881171 -0.167888E+03  0.522E-02    0.60       0.0  T
   2   -167.8881194 -0.228104E-05  0.287E-02    0.60       1.0  T
   3   -167.8881166  0.281513E-05  0.572E-03    0.60       1.9  T
   4   -167.8881205 -0.392128E-05  0.122E-03    0.60       8.9  T
   5   -167.8881206 -0.613953E-07  0.833E-04    0.60      13.0  T
   6   -167.8881206 -0.339538E-07  0.430E-04    0.60      25.1  T
     SCC iter.                  ...        0 min,  0.152 sec
     gradient                   ...        0 min,  0.033 sec
 * total energy  :  -164.8613586 Eh     change        0.3865025E-04 Eh
   gradient norm :     0.0036036 Eh/α   predicted    -0.1134300E-04 (-129.35%)
   displ. norm   :     0.0301059 α      lambda       -0.6716264E-04
   maximum displ.:     0.0106746 α      in ANC's #9, #16, #21, ...

........................................................................
.............................. CYCLE   54 ..............................
........................................................................
   1   -167.8886785 -0.167889E+03  0.296E-02    0.60       0.0  T
   2   -167.8886792 -0.738733E-06  0.163E-02    0.60       1.0  T
   3   -167.8886786  0.602653E-06  0.277E-03    0.60       3.9  T
   4   -167.8886795 -0.950389E-06  0.640E-04    0.60      16.9  T
   5   -167.8886795 -0.895903E-08  0.477E-04    0.60      22.6  T
     SCC iter.                  ...        0 min,  0.348 sec
     gradient                   ...        0 min,  0.072 sec
 * total energy  :  -164.8613983 Eh     change       -0.3969109E-04 Eh
   gradient norm :     0.0014124 Eh/α   predicted    -0.3361347E-04 ( -15.31%)
   displ. norm   :     0.0581138 α      lambda       -0.3086060E-04
   maximum displ.:     0.0212401 α      in ANC's #19, #27, #22, ...

........................................................................
.............................. CYCLE   55 ..............................
........................................................................
   1   -167.8887271 -0.167889E+03  0.599E-02    0.60       0.0  T
   2   -167.8887298 -0.270465E-05  0.330E-02    0.60       1.0  T
   3   -167.8887180  0.117771E-04  0.103E-02    0.60       1.0  T
   4   -167.8887314 -0.133670E-04  0.191E-03    0.60       5.6  T
   5   -167.8887317 -0.309826E-06  0.980E-04    0.60      11.0  T
   6   -167.8887317 -0.171924E-07  0.673E-04    0.60      16.0  T
     SCC iter.                  ...        0 min,  0.177 sec
     gradient                   ...        0 min,  0.046 sec
 * total energy  :  -164.8613431 Eh     change        0.5512400E-04 Eh
   gradient norm :     0.0041207 Eh/α   predicted    -0.1545473E-04 (-128.04%)
   displ. norm   :     0.0340792 α      lambda       -0.9102315E-04
   maximum displ.:     0.0148526 α      in ANC's #19, #22, #35, ...

........................................................................
.............................. CYCLE   56 ..............................
........................................................................
   1   -167.8891196 -0.167889E+03  0.351E-02    0.60       0.0  T
   2   -167.8891205 -0.946371E-06  0.193E-02    0.60       1.0  T
   3   -167.8891174  0.312952E-05  0.534E-03    0.60       2.0  T
   4   -167.8891211 -0.366975E-05  0.975E-04    0.60      11.1  T
   5   -167.8891211 -0.684018E-07  0.539E-04    0.60      20.0  T
   6   -167.8891211 -0.270546E-08  0.379E-04    0.60      28.5  T
     SCC iter.                  ...        0 min,  0.171 sec
     gradient                   ...        0 min,  0.025 sec
 * total energy  :  -164.8613980 Eh     change       -0.5490616E-04 Eh
   gradient norm :     0.0016318 Eh/α   predicted    -0.4556737E-04 ( -17.01%)
   displ. norm   :     0.0535981 α      lambda       -0.3136986E-04
   maximum displ.:     0.0226148 α      in ANC's #7, #27, #1, ...

........................................................................
.............................. CYCLE   57 ..............................
........................................................................
   1   -167.8882266 -0.167888E+03  0.472E-02    0.60       0.0  T
   2   -167.8882286 -0.195298E-05  0.259E-02    0.60       1.0  T
   3   -167.8882267  0.186276E-05  0.491E-03    0.60       2.2  T
   4   -167.8882295 -0.275689E-05  0.129E-03    0.60       8.4  T
   5   -167.8882295 -0.274430E-07  0.973E-04    0.60      11.1  T
   6   -167.8882296 -0.819576E-07  0.246E-04    0.60      43.9  T
     SCC iter.                  ...        0 min,  0.207 sec
     gradient                   ...        0 min,  0.023 sec
 * total energy  :  -164.8613780 Eh     change        0.2005785E-04 Eh
   gradient norm :     0.0030660 Eh/α   predicted    -0.1570793E-04 (-178.31%)
   displ. norm   :     0.0310262 α      lambda       -0.4906452E-04
   maximum displ.:     0.0097262 α      in ANC's #14, #43, #11, ...

........................................................................
.............................. CYCLE   58 ..............................
........................................................................
   1   -167.8885185 -0.167889E+03  0.310E-02    0.60       0.0  T
   2   -167.8885194 -0.873837E-06  0.170E-02    0.60       1.0  T
   3   -167.8885188  0.580145E-06  0.295E-03    0.60       3.7  T
   4   -167.8885198 -0.955680E-06  0.770E-04    0.60      14.0  T
   5   -167.8885198 -0.322606E-07  0.509E-04    0.60      21.2  T
     SCC iter.                  ...        0 min,  0.074 sec
     gradient                   ...        0 min,  0.024 sec
 * total energy  :  -164.8613965 Eh     change       -0.1853103E-04 Eh
   gradient norm :     0.0020930 Eh/α   predicted    -0.2455876E-04 (  32.53%)
   displ. norm   :     0.0381074 α      lambda       -0.5047638E-04
   maximum displ.:     0.0183020 α      in ANC's #20, #7, #27, ...

........................................................................
.............................. CYCLE   59 ..............................
........................................................................
   1   -167.8893950 -0.167889E+03  0.382E-02    0.60       0.0  T
   2   -167.8893963 -0.126785E-05  0.209E-02    0.60       1.0  T
   3   -167.8893941  0.212421E-05  0.488E-03    0.60       2.2  T
   4   -167.8893969 -0.272694E-05  0.126E-03    0.60       8.5  T
   5   -167.8893969 -0.274217E-07  0.950E-04    0.60      11.3  T
   6   -167.8893970 -0.744646E-07  0.271E-04    0.60      39.8  T
     SCC iter.                  ...        0 min,  0.222 sec
     gradient                   ...        0 min,  0.026 sec
 * total energy  :  -164.8613970 Eh     change       -0.4676269E-06 Eh
   gradient norm :     0.0022367 Eh/α   predicted    -0.2527658E-04 (5305.29%)
   displ. norm   :     0.0233581 α      lambda       -0.2701426E-04
   maximum displ.:     0.0078775 α      in ANC's #7, #20, #1, ...

........................................................................
.............................. CYCLE   60 ..............................
........................................................................
   1   -167.8889977 -0.167889E+03  0.211E-02    0.60       0.0  T
   2   -167.8889981 -0.376027E-06  0.116E-02    0.60       1.0  T
   3   -167.8889974  0.739609E-06  0.293E-03    0.60       3.7  T
   4   -167.8889983 -0.912611E-06  0.794E-04    0.60      13.6  T
   5   -167.8889983  0.226669E-08  0.651E-04    0.60      16.6  T
     SCC iter.                  ...        0 min,  0.194 sec
     gradient                   ...        0 min,  0.044 sec
 * total energy  :  -164.8614093 Eh     change       -0.1236373E-04 Eh
   gradient norm :     0.0005884 Eh/α   predicted    -0.1351860E-04 (   9.34%)
   displ. norm   :     0.0435148 α      lambda       -0.1025135E-04
   maximum displ.:     0.0259430 α      in ANC's #7, #1, #23, ...

........................................................................
.............................. CYCLE   61 ..............................
........................................................................
   1   -167.8883016 -0.167888E+03  0.373E-02    0.60       0.0  T
   2   -167.8883030 -0.139039E-05  0.205E-02    0.60       1.0  T
   3   -167.8883024  0.567615E-06  0.291E-03    0.60       3.7  T
   4   -167.8883036 -0.114808E-05  0.956E-04    0.60      11.3  T
   5   -167.8883036 -0.385051E-07  0.672E-04    0.60      16.1  T
   6   -167.8883037 -0.324368E-07  0.235E-04    0.60      45.9  T
     SCC iter.                  ...        0 min,  0.168 sec
     gradient                   ...        0 min,  0.055 sec
 * total energy  :  -164.8613798 Eh     change        0.2958366E-04 Eh
   gradient norm :     0.0031760 Eh/α   predicted    -0.5134217E-05 (-117.35%)
   displ. norm   :     0.0203360 α      lambda       -0.4270276E-04
   maximum displ.:     0.0087803 α      in ANC's #7, #23, #24, ...

........................................................................
.............................. CYCLE   62 ..............................
........................................................................
   1   -167.8887564 -0.167889E+03  0.199E-02    0.60       0.0  T
   2   -167.8887568 -0.386335E-06  0.109E-02    0.60       1.0  T
   3   -167.8887564  0.410923E-06  0.199E-03    0.60       5.4  T
   4   -167.8887570 -0.588114E-06  0.503E-04    0.60      21.5  T
   5   -167.8887570 -0.228846E-08  0.401E-04    0.60      26.9  T
     SCC iter.                  ...        0 min,  0.114 sec
     gradient                   ...        0 min,  0.038 sec
 * total energy  :  -164.8614083 Eh     change       -0.2857315E-04 Eh
   gradient norm :     0.0010293 Eh/α   predicted    -0.2136410E-04 ( -25.23%)
   displ. norm   :     0.0242160 α      lambda       -0.8548265E-05
   maximum displ.:     0.0112481 α      in ANC's #1, #24, #18, ...

........................................................................
[...]
       141        2.0000           -0.4417867             -12.0216
       142        2.0000           -0.4417469             -12.0205
       143        2.0000           -0.4405983             -11.9893
       144        2.0000           -0.4402129             -11.9788
       145        2.0000           -0.4388985             -11.9430
       146        2.0000           -0.4382787             -11.9262
       147        2.0000           -0.4341481             -11.8138
       148        2.0000           -0.4289513             -11.6724
       149        2.0000           -0.4153590             -11.3025
       150        2.0000           -0.4126308             -11.2283
       151        2.0000           -0.3994342             -10.8692
       152        2.0000           -0.3815299             -10.3820 (HOMO)
       153        0.0000           -0.3594208              -9.7803 (LUMO)
       154                         -0.3421863              -9.3114
       155                         -0.3309731              -9.0062
       156                         -0.3212624              -8.7420
       157                         -0.3103787              -8.4458
       158                         -0.3060185              -8.3272
       159                         -0.3015322              -8.2051
       160                         -0.2975962              -8.0980
       161                         -0.2946356              -8.0174
       162                         -0.2877090              -7.8290
       163                         -0.2795017              -7.6056
       ...                                ...                  ...
       309                          1.1710742              31.8666
      -------------------------------------------------------------
                  HL-Gap            0.0221092 Eh            0.6016 eV
             Fermi-level           -0.3704753 Eh          -10.0811 eV

     #   Z        covCN         q      C6AA      α(0)
     1   6 C      2.923    -0.031    28.772     8.796
     2  16 S      2.336     0.052   138.957    19.840
     3   6 C      2.974     0.014    27.707     8.634
     4   6 C      3.147    -0.000    27.764     8.620
     5   6 C      3.170     0.007    27.483     8.565
     6   6 C      2.920    -0.021    28.533     8.760
     7   6 C      2.973     0.026    27.420     8.589
     8   6 C      1.911     0.113    28.319     8.594
     9   7 N      0.911    -0.210    25.576     7.314
    10   6 C      2.974     0.023    27.490     8.600
    11   6 C      1.912     0.111    28.352     8.599
    12   7 N      0.911    -0.213    25.635     7.323
    13   6 C      2.920    -0.021    28.532     8.759
    14   6 C      2.950    -0.038    28.950     8.825
    15   6 C      2.954    -0.040    29.003     8.833
    16   6 C      2.969     0.021    27.546     8.609
    17  16 S      2.361    -0.000   141.065    19.990
    18   6 C      3.001     0.011    27.756     8.642
    19   6 C      3.141     0.001    27.749     8.620
    20   6 C      3.145     0.002    27.713     8.613
    21   6 C      2.922    -0.023    28.572     8.766
    22   6 C      2.974     0.024    27.462     8.596
    23   6 C      1.912     0.112    28.336     8.597
    24   7 N      0.911    -0.212    25.615     7.320
    25   6 C      2.974     0.024    27.460     8.596
    26   6 C      1.912     0.112    28.336     8.597
    27   7 N      0.911    -0.212    25.624     7.321
    28   6 C      2.923    -0.024    28.614     8.772
    29   6 C      3.000     0.011    27.756     8.642
    30  16 S      2.372    -0.005   141.253    20.003
    31   6 C      2.966     0.023    27.491     8.600
    32   6 C      3.142     0.003    27.709     8.614
    33   6 C      3.142     0.002    27.727     8.616
    34   6 C      2.923    -0.025    28.618     8.773
    35   6 C      2.974     0.026    27.423     8.590
    36   6 C      1.912     0.112    28.340     8.597
    37   7 N      0.911    -0.207    25.501     7.304
    38   6 C      2.974     0.025    27.453     8.594
    39   6 C      1.912     0.111    28.350     8.599
    40   7 N      0.911    -0.208    25.533     7.308
    41   6 C      2.923    -0.022    28.556     8.763
    42   6 C      2.968    -0.040    28.986     8.831
    43   6 C      2.930    -0.039    28.974     8.828
    44   6 C      2.972     0.017    27.618     8.620
    45  16 S      2.361     0.014   140.470    19.948
    46   6 C      2.969     0.023    27.498     8.601
    47   6 C      3.137     0.001    27.766     8.624
    48   6 C      3.147     0.001    27.740     8.616
    49   6 C      2.921    -0.020    28.517     8.757
    50   6 C      2.974     0.025    27.448     8.594
    51   6 C      1.911     0.112    28.341     8.598
    52   7 N      0.911    -0.209    25.543     7.310
    53   6 C      2.974     0.023    27.484     8.599
    54   6 C      1.912     0.112    28.336     8.597
    55   7 N      0.911    -0.213    25.650     7.325
    56   6 C      2.922    -0.021    28.542     8.761
    57   6 C      2.965    -0.040    28.984     8.831
    58   6 C      2.921    -0.035    28.880     8.813
    59   6 C      2.988     0.022    27.498     8.602
    60  16 S      2.301     0.022   140.151    19.925
    61   6 C      2.944    -0.003    28.103     8.695
    62   6 C      3.147    -0.026    28.387     8.716
    63   6 C      3.102    -0.050    29.096     8.839
    64   6 C      2.816     0.237    23.043     7.865
    65   8 O      0.858    -0.362    20.945     6.136
    66   6 C      3.754    -0.137    23.192     6.867
    67   1 H      0.926     0.061     2.189     2.314
    68   1 H      0.926     0.051     2.309     2.376
    69   1 H      0.926     0.049     2.337     2.390
    70   1 H      0.925     0.053     2.285     2.364
    71   1 H      0.925     0.054     2.269     2.356
    72   1 H      0.926     0.051     2.302     2.372
    73   1 H      0.926     0.058     2.226     2.333
    74   1 H      0.926     0.058     2.226     2.333
    75   1 H      0.926     0.049     2.333     2.388
    76   1 H      0.925     0.056     2.249     2.345
    77   1 H      0.926     0.052     2.295     2.369
    78   1 H      0.926     0.046     2.370     2.407
    79   1 H      0.926     0.049     2.328     2.386
    80   1 H      0.925     0.059     2.207     2.323
    81   1 H      0.926     0.053     2.279     2.361
    82   1 H      0.926     0.077     2.010     2.217
    83   1 H      0.926     0.052     2.291     2.367
    84   1 H      0.925     0.067     2.124     2.279
    85   1 H      0.925     0.066     2.125     2.280
    86   1 H      0.925     0.071     2.076     2.253

 Mol. C6AA /au·bohr⁶  :     166834.764630
 Mol. C8AA /au·bohr⁸  :    4858562.064265
 Mol. α(0) /au        :        659.405067


Wiberg/Mayer (AO) data.
largest (>0.10) Wiberg bond orders for each atom
          total WBO             WBO to atom ...
     1  C   3.871        C    5 1.424    S    2 1.263    H   67 0.968
     2  S   2.684        C    1 1.263    C    3 1.156
     3  C   3.931        C    4 1.311    C   14 1.242    S    2 1.156
     4  C   3.947        C    3 1.311    C   13 1.287    C    5 1.164
     5  C   3.977        C    1 1.424    C    6 1.243    C    4 1.164
     6  C   3.976        C    7 1.512    C    5 1.243    H   68 0.966
     7  C   3.984        C    6 1.512    C   10 1.167    C    8 1.092
     8  C   3.947        N    9 2.811    C    7 1.092
     9  N   2.984        C    8 2.811
    10  C   3.967        C   13 1.483    C    7 1.167    C   11 1.098
    11  C   3.946        N   12 2.804    C   10 1.098
    12  N   2.974        C   11 2.804
    13  C   3.988        C   10 1.483    C    4 1.287    H   69 0.961
    14  C   3.928        C   15 1.568    C    3 1.242    H   70 0.954
    15  C   3.971        C   14 1.568    C   16 1.253    H   71 0.952
    16  C   3.879        C   20 1.284    C   15 1.253    S   17 1.141
    17  S   2.606        C   16 1.141    C   18 1.136
    18  C   3.903        C   29 1.285    C   19 1.263    S   17 1.136
    19  C   3.949        C   28 1.305    C   18 1.263    C   20 1.192
    20  C   3.952        C   21 1.292    C   16 1.284    C   19 1.192
    21  C   3.978        C   22 1.470    C   20 1.292    H   72 0.960
    22  C   3.968        C   21 1.470    C   25 1.190    C   23 1.095
    23  C   3.947        N   24 2.807    C   22 1.095
    24  N   2.978        C   23 2.807
    25  C   3.956        C   28 1.462    C   22 1.190    C   26 1.096
    26  C   3.946        N   27 2.806    C   25 1.096
    27  N   2.975        C   26 2.806
    28  C   3.979        C   25 1.462    C   19 1.305    H   73 0.951
    29  C   3.892        C   18 1.285    C   33 1.260    S   30 1.135
    30  S   2.597        C   29 1.135    C   31 1.134
    31  C   3.884        C   42 1.288    C   32 1.266    S   30 1.134
    32  C   3.946        C   41 1.301    C   31 1.266    C   33 1.197
    33  C   3.951        C   34 1.304    C   29 1.260    C   32 1.197
    34  C   3.977        C   35 1.462    C   33 1.304    H   74 0.951
    35  C   3.959        C   34 1.462    C   38 1.195    C   36 1.095
    36  C   3.947        N   37 2.809    C   35 1.095
    37  N   2.979        C   36 2.809
    38  C   3.964        C   41 1.463    C   35 1.195    C   39 1.095
    39  C   3.947        N   40 2.809    C   38 1.095
    40  N   2.979        C   39 2.809
    41  C   3.980        C   38 1.463    C   32 1.301    H   75 0.959
    42  C   3.932        C   43 1.522    C   31 1.288    H   76 0.952
    43  C   3.934        C   42 1.522    C   44 1.288    H   77 0.946
    44  C   3.914        C   43 1.288    C   48 1.269    S   45 1.144
    45  S   2.608        C   46 1.161    C   44 1.144
    46  C   3.880        C   47 1.286    C   57 1.240    S   45 1.161
    47  C   3.954        C   56 1.290    C   46 1.286    C   48 1.193
    48  C   3.944        C   49 1.300    C   44 1.269    C   47 1.193
    49  C   3.982        C   50 1.470    C   48 1.300    H   78 0.963
    50  C   3.955        C   49 1.470    C   53 1.186    C   51 1.096
    51  C   3.947        N   52 2.807    C   50 1.096
    52  N   2.977        C   51 2.807
    53  C   3.975        C   56 1.474    C   50 1.186    C   54 1.095
    54  C   3.946        N   55 2.807    C   53 1.095
    55  N   2.978        C   54 2.807
    56  C   3.979        C   53 1.474    C   47 1.290    H   79 0.958
    57  C   3.980        C   58 1.608    C   46 1.240    H   80 0.952
    58  C   3.926        C   57 1.608    C   59 1.202    H   81 0.949
    59  C   3.950        C   63 1.490    C   58 1.202    S   60 1.106
    60  S   2.647        C   61 1.260    C   59 1.106
    61  C   3.918        C   62 1.496    S   60 1.260    H   82 0.965
    62  C   3.977        C   61 1.496    C   63 1.275    C   64 1.025
    63  C   3.928        C   59 1.490    C   62 1.275    H   83 0.961
    64  C   3.929        O   65 1.822    C   62 1.025    C   66 1.003
    65  O   2.063        C   64 1.822
    66  C   3.994        C   64 1.003    H   86 0.983    H   85 0.962    H   84 0.961
    67  H   0.995        C    1 0.968
    68  H   0.996        C    6 0.966
    69  H   0.996        C   13 0.961
    70  H   0.996        C   14 0.954
    71  H   0.994        C   15 0.952
    72  H   0.996        C   21 0.960
    73  H   0.995        C   28 0.951
    74  H   0.995        C   34 0.951
    75  H   0.996        C   41 0.959
    76  H   0.995        C   42 0.952
    77  H   0.997        C   43 0.946
    78  H   0.996        C   49 0.963
    79  H   0.996        C   56 0.958
    80  H   0.995        C   57 0.952
    81  H   0.997        C   58 0.949
    82  H   0.994        C   61 0.965
    83  H   0.997        C   63 0.961
    84  H   0.996        C   66 0.961
    85  H   0.996        C   66 0.962
    86  H   0.994        C   66 0.983

molecular dipole:
                 x           y           z       tot (Debye)
 q only:        0.166      -0.686       3.181
   full:        0.249      -0.983       4.119      10.781
molecular quadrupole (traceless):
                xx          xy          yy          xz          yz          zz
 q only:       45.105     -33.941      39.687      23.027     -97.565     -84.793
  q+dip:       71.442     -37.683      51.613      28.601    -128.644    -123.055
   full:       69.660     -44.548      59.956      33.748    -134.968    -129.616

           -------------------------------------------------
          |                Geometry Summary                 |
           -------------------------------------------------

      molecular mass/u    :      933.0830000
   center of mass at/Å    :       -4.6357468      -8.1131433      -1.8111589
  moments of inertia/u·Å² :        0.1037541E+05   0.5618066E+05   0.6473319E+05
rotational constants/cm⁻¹ :        0.1624767E-02   0.3000611E-03   0.2604172E-03

 * 84 selected distances

     #   Z        #   Z                                     value/Å
     1   6 C      2  16 S                                 1.6993602
     2  16 S      3   6 C                                 1.7396352
     3   6 C      4   6 C                                 1.4041358
     1   6 C      5   6 C                                 1.3804809
     4   6 C      5   6 C                                 1.4396341
     5   6 C      6   6 C                                 1.4112663
     6   6 C      7   6 C                                 1.3705796
     8   6 C      9   7 N                                 1.1453977
     7   6 C     10   6 C                                 1.4317660
    11   6 C     12   7 N                                 1.1459448
     4   6 C     13   6 C                                 1.4051062
    10   6 C     13   6 C                                 1.3757182
     3   6 C     14   6 C                                 1.4143894
    14   6 C     15   6 C                                 1.3620730
    15   6 C     16   6 C                                 1.4115232
    16   6 C     17  16 S                                 1.7337196
    17  16 S     18   6 C                                 1.7417146
    18   6 C     19   6 C                                 1.4161047
    16   6 C     20   6 C                                 1.4055556
    19   6 C     20   6 C                                 1.4346210
    20   6 C     21   6 C                                 1.4041560
    21   6 C     22   6 C                                 1.3757256
    23   6 C     24   7 N                                 1.1456859
    22   6 C     25   6 C                                 1.4240416
    26   6 C     27   7 N                                 1.1457896
    19   6 C     28   6 C                                 1.4024308
    25   6 C     28   6 C                                 1.3774258
    18   6 C     29   6 C                                 1.4064989
    29   6 C     30  16 S                                 1.7409964
    30  16 S     31   6 C                                 1.7361530
    31   6 C     32   6 C                                 1.4096547
    29   6 C     33   6 C                                 1.4164150
    32   6 C     33   6 C                                 1.4341885
    33   6 C     34   6 C                                 1.4027133
    34   6 C     35   6 C                                 1.3773066
    36   6 C     37   7 N                                 1.1455131
    35   6 C     38   6 C                                 1.4226978
    39   6 C     40   7 N                                 1.1456169
    32   6 C     41   6 C                                 1.4023585
    38   6 C     41   6 C                                 1.3767554
    31   6 C     42   6 C                                 1.4042631
    42   6 C     43   6 C                                 1.3674114
    43   6 C     44   6 C                                 1.4035303
    44   6 C     45  16 S                                 1.7353854
    45  16 S     46   6 C                                 1.7347512
    46   6 C     47   6 C                                 1.4081221
    44   6 C     48   6 C                                 1.4099337
    47   6 C     48   6 C                                 1.4337139
    48   6 C     49   6 C                                 1.4025337
    49   6 C     50   6 C                                 1.3762662
    51   6 C     52   7 N                                 1.1456133
    50   6 C     53   6 C                                 1.4258686
    54   6 C     55   7 N                                 1.1457638
    47   6 C     56   6 C                                 1.4046623
    53   6 C     56   6 C                                 1.3761720
    46   6 C     57   6 C                                 1.4149711
    57   6 C     58   6 C                                 1.3557386
    58   6 C     59   6 C                                 1.4213469
    59   6 C     60  16 S                                 1.7509704 (max)
    60  16 S     61   6 C                                 1.7001693
    61   6 C     62   6 C                                 1.3751975
    59   6 C     63   6 C                                 1.3751048
    62   6 C     63   6 C                                 1.4127416
    64   6 C     65   8 O                                 1.2094706
     1   6 C     67   1 H                                 1.0716801 (min)
     6   6 C     68   1 H                                 1.0794215
    13   6 C     69   1 H                                 1.0782271
    14   6 C     70   1 H                                 1.0813217
    15   6 C     71   1 H                                 1.0815033
    21   6 C     72   1 H                                 1.0777069
    28   6 C     73   1 H                                 1.0771696
    34   6 C     74   1 H                                 1.0772051
    41   6 C     75   1 H                                 1.0771906
    42   6 C     76   1 H                                 1.0845819
    43   6 C     77   1 H                                 1.0786654
    49   6 C     78   1 H                                 1.0792743
    56   6 C     79   1 H                                 1.0770709
    57   6 C     80   1 H                                 1.0844146
    58   6 C     81   1 H                                 1.0792497
    61   6 C     82   1 H                                 1.0724577
    63   6 C     83   1 H                                 1.0746882
    66   6 C     84   1 H                                 1.0880598
    66   6 C     85   1 H                                 1.0880039
    66   6 C     86   1 H                                 1.0865944

 * 5 distinct bonds (by element types)

   Z      Z             #   av. dist./Å        max./Å        min./Å
   1 H    6 C          20     1.0797243     1.0880598     1.0716801
   6 C    6 C          45     1.4013978     1.4396341     1.3557386
   6 C    7 N           8     1.1456656     1.1459448     1.1453977
   6 C    8 O           1     1.2094706     1.2094706     1.2094706
   6 C   16 S          10     1.7312855     1.7509704     1.6993602


optimized geometry written to: xtbopt.xyz


           -------------------------------------------------
          | TOTAL ENERGY             -164.861412494545 Eh   |
          | GRADIENT NORM               0.000535492118 Eh/α |
          | HOMO-LUMO GAP               0.601621487565 eV   |
           -------------------------------------------------

------------------------------------------------------------------------
 * finished run on 2021/09/14 at 01:35:41.615     
------------------------------------------------------------------------
 total:
 * wall-time:     0 d,  0 h,  0 min, 18.649 sec
 *  cpu-time:     0 d,  0 h,  2 min, 48.617 sec
 * ratio c/w:     9.041 speedup
 SCF:
 * wall-time:     0 d,  0 h,  0 min,  0.573 sec
 *  cpu-time:     0 d,  0 h,  0 min,  5.114 sec
 * ratio c/w:     8.921 speedup
 ANC optimizer:
 * wall-time:     0 d,  0 h,  0 min, 17.993 sec
 *  cpu-time:     0 d,  0 h,  2 min, 42.867 sec
 * ratio c/w:     9.052 speedup

