
                                 *****************
                                 * O   R   C   A *
                                 *****************

           --- An Ab Initio, DFT and Semiempirical electronic structure package ---

                  #######################################################
                  #                        -***-                        #
                  #          Department of theory and spectroscopy      #
                  #               Directorship: Frank Neese             #
                  #        Max Planck Institute fuer Kohlenforschung    #
                  #                Kaiser Wilhelm Platz 1               #
                  #                 D-45470 Muelheim/Ruhr               #
                  #                      Germany                        #
                  #                                                     #
                  #                  All rights reserved                #
                  #                        -***-                        #
                  #######################################################


                         Program Version 4.2.0 -  RELEASE  -


 With contributions from (in alphabetic order):
   Daniel Aravena         : Magnetic Suceptibility
   Michael Atanasov       : Ab Initio Ligand Field Theory (pilot matlab implementation)
   Alexander A. Auer      : GIAO ZORA, VPT2
   Ute Becker             : Parallelization
   Giovanni Bistoni       : ED, misc. LED, open-shell LED, HFLED
   Martin Brehm           : Molecular dynamics
   Dmytro Bykov           : SCF Hessian
   Vijay G. Chilkuri      : MRCI spin determinant printing, contributions to CSF-ICE
   Dipayan Datta          : RHF DLPNO-CCSD density
   Achintya Kumar Dutta   : EOM-CC, STEOM-CC
   Dmitry Ganyushin       : Spin-Orbit,Spin-Spin,Magnetic field MRCI
   Miquel Garcia          : C-PCM Hessian, Gaussian charge scheme
   Yang Guo               : DLPNO-NEVPT2, CIM, IAO-localization
   Andreas Hansen         : Spin unrestricted coupled pair/coupled cluster methods
   Benjamin Helmich-Paris : CASSCF linear response (MC-RPA)
   Lee Huntington         : MR-EOM, pCC
   Robert Izsak           : Overlap fitted RIJCOSX, COSX-SCS-MP3, EOM
   Christian Kollmar      : KDIIS, OOCD, Brueckner-CCSD(T), CCSD density
   Simone Kossmann        : Meta GGA functionals, TD-DFT gradient, OOMP2, MP2 Hessian
   Martin Krupicka        : AUTO-CI
   Lucas Lang             : DCDCAS
   Dagmar Lenk            : GEPOL surface, SMD
   Dimitrios Liakos       : Extrapolation schemes; Compound Job, initial MDCI parallelization
   Dimitrios Manganas     : Further ROCIS development; embedding schemes
   Dimitrios Pantazis     : SARC Basis sets
   Taras Petrenko         : DFT Hessian,TD-DFT gradient, ASA, ECA, R-Raman, ABS, FL, XAS/XES, NRVS
   Peter Pinski           : DLPNO-MP2, DLPNO-MP2 Gradient
   Christoph Reimann      : Effective Core Potentials
   Marius Retegan         : Local ZFS, SOC
   Christoph Riplinger    : Optimizer, TS searches, QM/MM, DLPNO-CCSD(T), (RO)-DLPNO pert. Triples
   Tobias Risthaus        : Range-separated hybrids, TD-DFT gradient, RPA, STAB
   Michael Roemelt        : Original ROCIS implementation
   Masaaki Saitow         : Open-shell DLPNO-CCSD energy and density
   Barbara Sandhoefer     : DKH picture change effects
   Avijit Sen             : IP-ROCIS
   Kantharuban Sivalingam : CASSCF convergence, NEVPT2, FIC-MRCI
   Bernardo de Souza      : ESD, SOC TD-DFT
   Georgi Stoychev        : AutoAux, RI-MP2 NMR
   Willem Van den Heuvel  : Paramagnetic NMR
   Boris Wezisla          : Elementary symmetry handling
   Frank Wennmohs         : Technical directorship


 We gratefully acknowledge several colleagues who have allowed us to
 interface, adapt or use parts of their codes:
   Stefan Grimme, W. Hujo, H. Kruse,             : VdW corrections, initial TS optimization,
                  C. Bannwarth                     DFT functionals, gCP, sTDA/sTD-DF
   Ed Valeev, F. Pavosevic, A. Kumar             : LibInt (2-el integral package), F12 methods
   Garnet Chan, S. Sharma, J. Yang, R. Olivares  : DMRG
   Ulf Ekstrom                                   : XCFun DFT Library
   Mihaly Kallay                                 : mrcc  (arbitrary order and MRCC methods)
   Andreas Klamt, Michael Diedenhofen            : otool_cosmo (COSMO solvation model)
   Jiri Pittner, Ondrej Demel                    : Mk-CCSD
   Frank Weinhold                                : gennbo (NPA and NBO analysis)
   Christopher J. Cramer and Donald G. Truhlar   : smd solvation model
   Lars Goerigk                                  : TD-DFT with DH, B97 family of functionals
   V. Asgeirsson, H. Jonsson                     : NEB implementation
   FAccTs GmbH                                   : IRC, NEB, NEB-TS, Multilevel, MM, QM/MM, CI optimization
   S Lehtola, MJT Oliveira, MAL Marques          : LibXC Library


 Your calculation uses the libint2 library for the computation of 2-el integrals
 For citations please refer to: http://libint.valeyev.net

 Your ORCA version has been built with support for libXC version: 4.2.3
 For citations please refer to: https://tddft.org/programs/libxc/

 This ORCA versions uses:
   CBLAS   interface :  Fast vector & matrix operations
   LAPACKE interface :  Fast linear algebra routines
   SCALAPACK package :  Parallel linear algebra routines


XCFun DFT library Copyright 2009-2010 Ulf Ekstrom and contributors.
See http://admol.org/xcfun for more information. This is free soft-
ware; see the source code for copying conditions. There is ABSOLUTELY
NO WARRANTY; not even for MERCHANTABILITY or FITNESS FOR A PARTICULAR
PURPOSE. For details see the documentation. Scientific users of this 
library should cite U. Ekstrom, L. Visscher, R. Bast, A. J. Thorvald-
sen and K. Ruud; J.Chem.Theor.Comp. 2010, DOI: 10.1021/ct100117s
XCFun Version 0.99 
----- Orbital basis set information -----
Your calculation utilizes the basis: def2-SVP
   F. Weigend and R. Ahlrichs, Phys. Chem. Chem. Phys. 7, 3297 (2005).

----- AuxJ basis set information -----
Your calculation utilizes the auxiliary basis: def2/J
   F. Weigend, Phys. Chem. Chem. Phys. 8, 1057 (2006).

================================================================================
                                        WARNINGS
                       Please study these warnings very carefully!
================================================================================

INFO   : Checking CIS options ...

WARNING: CIS/ROCIS methods need fully converged wavefunctions
  ===> : Setting SCFConvForced true
         You can overwrite this default with %scf ConvForced false 


INFO   : the flag for use of LIBINT has been found!

================================================================================
                                       INPUT FILE
================================================================================
NAME = xtbopt.inp
|  1> # ORCA input file
|  2> # SCF done       -155.460455167247          0.000326981906
|  3> ! CAM-B3LYP def2-SVP def2/J RIJCOSX Grid4 TightSCF
|  4> %maxcore 5000
|  5> %tddft
|  6>     Mode sTDDFT
|  7>     Ethresh 5.0
|  8>     maxcore 5000
|  9> end
| 10> 
| 11> %pal
| 12>   nprocs 6
| 13>   end
| 14> * xyz 0 1
| 15>    C        9.16883         4.04866        -3.04062
| 16>    C        9.37541         5.34669        -3.39341
| 17>    S        9.48102         5.51757        -5.10674
| 18>    C        9.24140         3.80485        -5.35866
| 19>   Cl        9.21400         3.13604        -6.91419
| 20>    C        9.09036         3.16408        -4.16441
| 21>    C        8.86553         1.78751        -3.71239
| 22>    O        8.75672         0.79581        -4.39381
| 23>    C        8.87396         1.87882        -2.21410
| 24>    C        8.99606         3.28195        -1.82567
| 25>    C        8.90075         3.81311        -0.56930
| 26>    C        9.01966         5.20289        -0.35087
| 27>    N        9.11833         6.32957        -0.16092
| 28>    C        8.65224         3.08319         0.61125
| 29>    N        8.43682         2.54482         1.60168
| 30>    C        8.97335         0.82709        -1.36662
| 31>    C        8.81848        -0.57172        -1.69062
| 32>    C        9.66139        -1.50138        -1.07767
| 33>    C        9.56605        -2.84654        -1.37779
| 34>    N       10.61094        -3.69109        -0.85221
| 35>    O       10.91957        -3.53692         0.31041
| 36>    O       11.14306        -4.46970        -1.61374
| 37>    C        8.55942        -3.34577        -2.22642
| 38>    C        7.71702        -2.39596        -2.82354
| 39>    C        7.84173        -1.04984        -2.57455
| 40>    C        8.30815        -4.74429        -2.45119
| 41>    C        8.58478        -5.74831        -1.59013
| 42>    C        8.32161        -7.11624        -1.83857
| 43>    S        7.52935        -7.70327        -3.27978
| 44>    C        7.64608        -9.37871        -2.81120
| 45>    C        8.27777        -9.47895        -1.57364
| 46>    C        8.64338        -8.20376        -1.04147
| 47>    N        9.23916        -8.39479         0.16222
| 48>    C        9.25615        -9.75093         0.42036
| 49>    C        9.80735       -10.27183         1.60067
| 50>    N       10.25585       -10.70316         2.56407
| 51>    C        8.67190       -10.44575        -0.61610
| 52>    C        7.11786       -10.40450        -3.64655
| 53>    C        7.45687       -11.76454        -3.51259
| 54>    N        6.91760       -12.70178        -4.25046
| 55>    C        5.98908       -12.34235        -5.13774
| 56>    N        5.65341       -11.07488        -5.40627
| 57>    C        6.21716       -10.13398        -4.69324
| 58>    C        5.37495       -13.39948        -5.90547
| 59>    C        4.17787       -13.37448        -6.52743
| 60>    C        3.87176       -14.39712        -7.58622
| 61>    O        4.47364       -15.42075        -7.79060
| 62>    C        2.73530       -13.82572        -8.31712
| 63>    C        2.00303       -14.13280        -9.42568
| 64>    S        0.75959       -12.93325        -9.68897
| 65>    C        1.23535       -12.03785        -8.29247
| 66>    C        2.29235       -12.62422        -7.66948
| 67>    C        3.08963       -12.40663        -6.47829
| 68>    C        2.73017       -11.59937        -5.43718
| 69>    C        1.60765       -10.74836        -5.52130
| 70>    N        0.70815       -10.03915        -5.58306
| 71>    C        3.35294       -11.57861        -4.17251
| 72>    N        3.76752       -11.55411        -3.10262
| 73>   Cl        2.18608       -15.45687       -10.46501
| 74>    H        9.47863         6.21271        -2.77016
| 75>    H        9.24221         1.02580        -0.33555
| 76>    H       10.43950        -1.17153        -0.40408
| 77>    H        6.93541        -2.74512        -3.48076
| 78>    H        7.15571        -0.35859        -3.03481
| 79>    H        7.79462        -4.98699        -3.37237
| 80>    H        9.02012        -5.54523        -0.62029
| 81>    H        9.63045        -7.68948         0.76393
| 82>    H        8.54081       -11.50779        -0.65291
| 83>    H        8.20919       -12.08996        -2.80854
| 84>    H        5.93734        -9.11542        -4.93564
| 85>    H        5.97962       -14.28983        -6.03243
| 86>    H        0.70875       -11.13991        -8.03665
| 87> *
| 88> 
| 89>                          ****END OF INPUT****
================================================================================

                       ****************************
                       * Single Point Calculation *
                       ****************************

---------------------------------
CARTESIAN COORDINATES (ANGSTROEM)
---------------------------------
  C      9.168830    4.048660   -3.040620
  C      9.375410    5.346690   -3.393410
  S      9.481020    5.517570   -5.106740
  C      9.241400    3.804850   -5.358660
  Cl     9.214000    3.136040   -6.914190
  C      9.090360    3.164080   -4.164410
  C      8.865530    1.787510   -3.712390
  O      8.756720    0.795810   -4.393810
  C      8.873960    1.878820   -2.214100
  C      8.996060    3.281950   -1.825670
  C      8.900750    3.813110   -0.569300
  C      9.019660    5.202890   -0.350870
  N      9.118330    6.329570   -0.160920
  C      8.652240    3.083190    0.611250
  N      8.436820    2.544820    1.601680
  C      8.973350    0.827090   -1.366620
  C      8.818480   -0.571720   -1.690620
  C      9.661390   -1.501380   -1.077670
  C      9.566050   -2.846540   -1.377790
  N     10.610940   -3.691090   -0.852210
  O     10.919570   -3.536920    0.310410
  O     11.143060   -4.469700   -1.613740
  C      8.559420   -3.345770   -2.226420
  C      7.717020   -2.395960   -2.823540
  C      7.841730   -1.049840   -2.574550
  C      8.308150   -4.744290   -2.451190
  C      8.584780   -5.748310   -1.590130
  C      8.321610   -7.116240   -1.838570
  S      7.529350   -7.703270   -3.279780
  C      7.646080   -9.378710   -2.811200
  C      8.277770   -9.478950   -1.573640
  C      8.643380   -8.203760   -1.041470
  N      9.239160   -8.394790    0.162220
  C      9.256150   -9.750930    0.420360
  C      9.807350  -10.271830    1.600670
  N     10.255850  -10.703160    2.564070
  C      8.671900  -10.445750   -0.616100
  C      7.117860  -10.404500   -3.646550
  C      7.456870  -11.764540   -3.512590
  N      6.917600  -12.701780   -4.250460
  C      5.989080  -12.342350   -5.137740
  N      5.653410  -11.074880   -5.406270
  C      6.217160  -10.133980   -4.693240
  C      5.374950  -13.399480   -5.905470
  C      4.177870  -13.374480   -6.527430
  C      3.871760  -14.397120   -7.586220
  O      4.473640  -15.420750   -7.790600
  C      2.735300  -13.825720   -8.317120
  C      2.003030  -14.132800   -9.425680
  S      0.759590  -12.933250   -9.688970
  C      1.235350  -12.037850   -8.292470
  C      2.292350  -12.624220   -7.669480
  C      3.089630  -12.406630   -6.478290
  C      2.730170  -11.599370   -5.437180
  C      1.607650  -10.748360   -5.521300
  N      0.708150  -10.039150   -5.583060
  C      3.352940  -11.578610   -4.172510
  N      3.767520  -11.554110   -3.102620
  Cl     2.186080  -15.456870  -10.465010
  H      9.478630    6.212710   -2.770160
  H      9.242210    1.025800   -0.335550
  H     10.439500   -1.171530   -0.404080
  H      6.935410   -2.745120   -3.480760
  H      7.155710   -0.358590   -3.034810
  H      7.794620   -4.986990   -3.372370
  H      9.020120   -5.545230   -0.620290
  H      9.630450   -7.689480    0.763930
  H      8.540810  -11.507790   -0.652910
  H      8.209190  -12.089960   -2.808540
  H      5.937340   -9.115420   -4.935640
  H      5.979620  -14.289830   -6.032430
  H      0.708750  -11.139910   -8.036650

----------------------------
CARTESIAN COORDINATES (A.U.)
----------------------------
  NO LB      ZA    FRAG     MASS         X           Y           Z
   0 C     6.0000    0    12.011   17.326578    7.650859   -5.745939
   1 C     6.0000    0    12.011   17.716957   10.103780   -6.412616
   2 S    16.0000    0    32.060   17.916531   10.426696   -9.650340
   3 C     6.0000    0    12.011   17.463715    7.190124  -10.126400
   4 Cl   17.0000    0    35.453   17.411937    5.926257  -13.065926
   5 C     6.0000    0    12.011   17.178291    5.979245   -7.869594
   6 C     6.0000    0    12.011   16.753424    3.377904   -7.015400
   7 O     8.0000    0    15.999   16.547803    1.503863   -8.303098
   8 C     6.0000    0    12.011   16.769354    3.550455   -4.184043
   9 C     6.0000    0    12.011   17.000090    6.201987   -3.450016
  10 C     6.0000    0    12.011   16.819980    7.205734   -1.075821
  11 C     6.0000    0    12.011   17.044687    9.832037   -0.663048
  12 N     7.0000    0    14.007   17.231146   11.961154   -0.304095
  13 C     6.0000    0    12.011   16.350364    5.826385    1.155095
  14 N     7.0000    0    14.007   15.943279    4.809013    3.026737
  15 C     6.0000    0    12.011   16.957174    1.562974   -2.582538
  16 C     6.0000    0    12.011   16.664512   -1.080394   -3.194809
  17 C     6.0000    0    12.011   18.257381   -2.837197   -2.036501
  18 C     6.0000    0    12.011   18.077215   -5.379181   -2.603646
  19 N     7.0000    0    14.007   20.051771   -6.975149   -1.610444
  20 O     8.0000    0    15.999   20.634997   -6.683810    0.586590
  21 O     8.0000    0    15.999   21.057332   -8.446509   -3.049527
  22 C     6.0000    0    12.011   16.174960   -6.322589   -4.207324
  23 C     6.0000    0    12.011   14.583054   -4.527708   -5.335717
  24 C     6.0000    0    12.011   14.818722   -1.983910   -4.865194
  25 C     6.0000    0    12.011   15.700128   -8.965409   -4.632078
  26 C     6.0000    0    12.011   16.222883  -10.862732   -3.004910
  27 C     6.0000    0    12.011   15.725564  -13.447745   -3.474394
  28 S    16.0000    0    32.060   14.228409  -14.557071   -6.197886
  29 C     6.0000    0    12.011   14.448997  -17.723193   -5.312398
  30 C     6.0000    0    12.011   15.642718  -17.912620   -2.973749
  31 C     6.0000    0    12.011   16.333621  -15.502860   -1.968093
  32 N     7.0000    0    14.007   17.459482  -15.863854    0.306551
  33 C     6.0000    0    12.011   17.491589  -18.426587    0.794365
  34 C     6.0000    0    12.011   18.533206  -19.410946    3.024828
  35 N     7.0000    0    14.007   19.380748  -20.226041    4.845390
  36 C     6.0000    0    12.011   16.387516  -19.739607   -1.164260
  37 C     6.0000    0    12.011   13.450806  -19.661656   -6.890981
  38 C     6.0000    0    12.011   14.091442  -22.231759   -6.637833
  39 N     7.0000    0    14.007   13.072370  -24.002886   -8.032205
  40 C     6.0000    0    12.011   11.317721  -23.323661   -9.708922
  41 N     7.0000    0    14.007   10.683397  -20.928490  -10.216370
  42 C     6.0000    0    12.011   11.748730  -19.150447   -8.868938
  43 C     6.0000    0    12.011   10.157183  -25.321348  -11.159721
  44 C     6.0000    0    12.011    7.895030  -25.274104  -12.335055
  45 C     6.0000    0    12.011    7.316566  -27.206614  -14.335878
  46 O     8.0000    0    15.999    8.453954  -29.140994  -14.722100
  47 C     6.0000    0    12.011    5.168968  -26.126824  -15.717079
  48 C     6.0000    0    12.011    3.785178  -26.707122  -17.811954
  49 S    16.0000    0    32.060    1.435417  -24.440301  -18.309500
  50 C     6.0000    0    12.011    2.334473  -22.748240  -15.670497
  51 C     6.0000    0    12.011    4.331914  -23.856318  -14.493217
  52 C     6.0000    0    12.011    5.838555  -23.445133  -12.242194
  53 C     6.0000    0    12.011    5.159274  -21.919633  -10.274781
  54 C     6.0000    0    12.011    3.038018  -20.311457  -10.433745
  55 N     7.0000    0    14.007    1.338210  -18.971244  -10.550454
  56 C     6.0000    0    12.011    6.336138  -21.880402   -7.884901
  57 N     7.0000    0    14.007    7.119581  -21.834104   -5.863102
  58 Cl   17.0000    0    35.453    4.131093  -29.209251  -19.776003
  59 H     1.0000    0     1.008   17.912015   11.740320   -5.234844
  60 H     1.0000    0     1.008   17.465246    1.938481   -0.634098
  61 H     1.0000    0     1.008   19.727796   -2.213871   -0.763601
  62 H     1.0000    0     1.008   13.106026   -5.187525   -6.577683
  63 H     1.0000    0     1.008   13.522332   -0.677637   -5.734960
  64 H     1.0000    0     1.008   14.729697   -9.424045   -6.372856
  65 H     1.0000    0     1.008   17.045556  -10.478966   -1.172178
  66 H     1.0000    0     1.008   18.198913  -14.531011    1.443618
  67 H     1.0000    0     1.008   16.139792  -21.746572   -1.233821
  68 H     1.0000    0     1.008   15.513121  -22.846713   -5.307371
  69 H     1.0000    0     1.008   11.219947  -17.225647   -9.327008
  70 H     1.0000    0     1.008   11.299844  -27.003865  -11.399641
  71 H     1.0000    0     1.008    1.339343  -21.051379  -15.187068

--------------------------------
INTERNAL COORDINATES (ANGSTROEM)
--------------------------------
 C      0   0   0     0.000000000000     0.00000000     0.00000000
 C      1   0   0     1.360888666056     0.00000000     0.00000000
 S      2   1   0     1.725066124936   111.17675193     0.00000000
 C      3   2   1     1.747653063168    92.16032758     0.02567393
 Cl     4   3   2     1.693437674377   121.44467749   179.90939822
 C      4   3   2     1.363683371241   110.45294007     0.03707627
 C      6   4   3     1.466224939837   136.72886590   179.94055787
 O      7   6   4     1.208156331979   127.63119394     0.33613771
 C      7   6   4     1.501093436499   104.46224040   177.44503513
 C      1   2   3     1.446995922420   137.83175775   180.19806947
 C     10   1   2     1.367362614159   125.02785111     5.53248067
 C     11  10   1     1.411856827515   121.24267024   357.46364863
 N     12  11  10     1.146832417487   179.35618270   197.00260943
 C     11  10   1     1.410049193823   125.48413377   175.95471420
 N     14  11  10     1.147693172499   176.78271621   194.59418647
 C      9   7   6     1.354339955624   125.29295423   194.12569358
 C     16   9   7     1.444171088549   127.15072869   346.41862563
 C     17  16   9     1.396593242931   118.78774737   141.28277200
 C     18  17  16     1.381527109976   120.74014937   181.28136911
 N     19  18  17     1.442669106552   116.15959458   170.72076801
 O     20  19  18     1.212726733522   117.33293256    46.18507450
 O     20  19  18     1.212152287215   117.71671316   228.49452363
 C     19  18  17     1.408086441487   121.70007351   355.07610096
 C     23  19  18     1.402971521628   116.47016645     4.27107857
 C     24  23  19     1.374622733189   122.09976904   358.55638779
 C     23  19  18     1.438581369336   124.31235516   187.74065404
 C     26  23  19     1.351297391731   125.94416618    26.61424790
 C     27  26  23     1.414995889535   124.63436495   179.79351731
 S     28  27  26     1.746243508964   123.66068018   357.19397724
 C     29  28  27     1.743643399007    94.06290289   178.66463003
 C     30  29  28     1.393066784939   109.76943658     0.11647929
 C     28  27  26     1.386219352520   127.90082710   176.04429395
 N     32  28  27     1.356582428531   136.27176589     1.53652473
 C     33  32  28     1.380594299315   108.03704153   179.56495808
 C     34  33  32     1.402957571026   121.79285590   180.20970473
 N     35  34  33     1.146881588875   179.69661158   172.49559792
 C     34  33  32     1.377814293183   110.45593894     0.04493162
 C     30  29  28     1.424454672849   120.63310820   179.28492736
 C     38  30  29     1.408041854243   123.40155273   163.65820482
 N     39  38  30     1.309077189244   122.59776696   176.92095910
 C     40  39  38     1.333643548217   117.96004185   358.37859844
 N     41  40  39     1.338380704695   124.28655106     6.04193114
 C     42  41  40     1.308250225836   117.62424421   355.70894197
 C     41  40  39     1.443637366758   116.91293966   182.16839277
 C     44  41  40     1.349244146921   127.51759895   157.56465211
 C     45  44  41     1.503506623131   119.51518758   162.74030573
 O     46  45  44     1.204927008453   126.55386781    15.33915782
 C     46  45  44     1.467056270768   104.10177392   197.68076879
 C     48  46  45     1.363606524222   137.16456621   174.47052659
 S     49  48  46     1.747679850602   110.48595693   180.11701878
 C     50  49  48     1.725775474272    92.18159750   359.59547764
 C     51  50  49     1.359851211346   111.17874808     0.38864542
 C     52  51  50     1.449804960193   137.65853582   182.82705667
 C     53  52  51     1.365573224437   124.77582907    15.99868468
 C     54  53  52     1.411150362258   121.36198451   351.00495395
 N     55  54  53     1.147123956554   178.86501860   231.62787657
 C     54  53  52     1.409845260800   125.19212807   166.76456807
 N     57  54  53     1.147667825854   174.95045598   221.13130895
 Cl    49  48  46     1.693185021284   128.10243117     0.15256700
 H      2   1   3     1.071954090108   129.38045630   180.39544848
 H     16   9   7     1.083917297860   118.10451397   163.36622702
 H     18  17  16     1.080731087135   120.32641625   357.59807521
 H     24  23  19     1.079242802200   118.35986714   179.93088902
 H     25  24  23     1.077167243514   119.55429414   181.63600563
 H     26  23  19     1.082214832323   115.71491638   202.57489763
 H     27  26  23     1.082290177171   120.92603631     1.12553389
 H     33  32  28     1.006292693156   127.05838770   357.91483739
 H     37  34  33     1.070732705114   125.30816459   181.35029412
 H     39  38  30     1.080541512992   121.36708622   354.86222537
 H     43  42  41     1.083753415681   116.28109716   179.40069480
 H     44  41  40     1.083728643619   115.24875098   334.02083029
 H     51  50  49     1.071936414159   119.49245342   179.80336532

---------------------------
INTERNAL COORDINATES (A.U.)
---------------------------
 C      0   0   0     0.000000000000     0.00000000     0.00000000
 C      1   0   0     2.571706877603     0.00000000     0.00000000
 S      2   1   0     3.259902539033   111.17675193     0.00000000
 C      3   2   1     3.302585666496    92.16032758     0.02567393
 Cl     4   3   2     3.200133429437   121.44467749   179.90939822
 C      4   3   2     2.576988105028   110.45294007     0.03707627
 C      6   4   3     2.770763587017   136.72886590   179.94055787
 O      7   6   4     2.283084594402   127.63119394     0.33613771
 C      7   6   4     2.836655496410   104.46224040   177.44503513
 C      1   2   3     2.734426010274   137.83175775   180.19806947
 C     10   1   2     2.583940866523   125.02785111     5.53248067
 C     11  10   1     2.668022744310   121.24267024   357.46364863
 N     12  11  10     2.167199190554   179.35618270   197.00260943
 C     11  10   1     2.664606811681   125.48413377   175.95471420
 N     14  11  10     2.168825781794   176.78271621   194.59418647
 C      9   7   6     2.559331608357   125.29295423   194.12569358
 C     16   9   7     2.729087847884   127.15072869   346.41862563
 C     17  16   9     2.639178749624   118.78774737   141.28277200
 C     18  17  16     2.610707884443   120.74014937   181.28136911
 N     19  18  17     2.726249513252   116.15959458   170.72076801
 O     20  19  18     2.291721401642   117.33293256    46.18507450
 O     20  19  18     2.290635855442   117.71671316   228.49452363
 C     19  18  17     2.660897747298   121.70007351   355.07610096
 C     23  19  18     2.651231949568   116.47016645     4.27107857
 C     24  23  19     2.597660503190   122.09976904   358.55638779
 C     23  19  18     2.718524809406   124.31235516   187.74065404
 C     26  23  19     2.553581995854   125.94416618    26.61424790
 C     27  26  23     2.673954711845   124.63436495   179.79351731
 S     28  27  26     3.299921995080   123.66068018   357.19397724
 C     29  28  27     3.295008499342    94.06290289   178.66463003
 C     30  29  28     2.632514709797   109.76943658     0.11647929
 C     28  27  26     2.619574937804   127.90082710   176.04429395
 N     32  28  27     2.563569268014   136.27176589     1.53652473
 C     33  32  28     2.608945127758   108.03704153   179.56495808
 C     34  33  32     2.651205586751   121.79285590   180.20970473
 N     35  34  33     2.167292111010   179.69661158   172.49559792
 C     34  33  32     2.603691677519   110.45593894     0.04493162
 C     30  29  28     2.691829221868   120.63310820   179.28492736
 C     38  30  29     2.660813489618   123.40155273   163.65820482
 N     39  38  30     2.473797375835   122.59776696   176.92095910
 C     40  39  38     2.520221066401   117.96004185   358.37859844
 N     41  40  39     2.529172994798   124.28655106     6.04193114
 C     42  41  40     2.472234641471   117.62424421   355.70894197
 C     41  40  39     2.728079259868   116.91293966   182.16839277
 C     44  41  40     2.549701925476   127.51759895   157.56465211
 C     45  44  41     2.841215758255   119.51518758   162.74030573
 O     46  45  44     2.276982057342   126.55386781    15.33915782
 C     46  45  44     2.772334574804   104.10177392   197.68076879
 C     48  46  45     2.576842885207   137.16456621   174.47052659
 S     49  48  46     3.302636287410   110.48595693   180.11701878
 C     50  49  48     3.261243015013    92.18159750   359.59547764
 C     51  50  49     2.569746372326   111.17874808     0.38864542
 C     52  51  50     2.739734322365   137.65853582   182.82705667
 C     53  52  51     2.580559410002   124.77582907    15.99868468
 C     54  53  52     2.666687718451   121.36198451   351.00495395
 N     55  54  53     2.167750119547   178.86501860   231.62787657
 C     54  53  52     2.664221434119   125.19212807   166.76456807
 N     57  54  53     2.168777883577   174.95045598   221.13130895
 Cl    49  48  46     3.199655984284   128.10243117     0.15256700
 H      2   1   3     2.025699658442   129.38045630   180.39544848
 H     16   9   7     2.048306844775   118.10451397   163.36622702
 H     18  17  16     2.042285779100   120.32641625   357.59807521
 H     24  23  19     2.039473328163   118.35986714   179.93088902
 H     25  24  23     2.035551090673   119.55429414   181.63600563
 H     26  23  19     2.045089651158   115.71491638   202.57489763
 H     27  26  23     2.045232032286   120.92603631     1.12553389
 H     33  32  28     1.901617600632   127.05838770   357.91483739
 H     37  34  33     2.023391575297   125.30816459   181.35029412
 H     39  38  30     2.041927535889   121.36708622   354.86222537
 H     43  42  41     2.047997152339   116.28109716   179.40069480
 H     44  41  40     2.047950339926   115.24875098   334.02083029
 H     51  50  49     2.025666255738   119.49245342   179.80336532

---------------------
BASIS SET INFORMATION
---------------------
There are 6 groups of distinct atoms

 Group   1 Type C   : 7s4p1d contracted to 3s2p1d pattern {511/31/1}
 Group   2 Type S   : 10s7p1d contracted to 4s3p1d pattern {5311/511/1}
 Group   3 Type Cl  : 10s7p1d contracted to 4s3p1d pattern {5311/511/1}
 Group   4 Type O   : 7s4p1d contracted to 3s2p1d pattern {511/31/1}
 Group   5 Type N   : 7s4p1d contracted to 3s2p1d pattern {511/31/1}
 Group   6 Type H   : 4s1p contracted to 2s1p pattern {31/1}

Atom   0C    basis set group =>   1
Atom   1C    basis set group =>   1
Atom   2S    basis set group =>   2
Atom   3C    basis set group =>   1
Atom   4Cl   basis set group =>   3
Atom   5C    basis set group =>   1
Atom   6C    basis set group =>   1
Atom   7O    basis set group =>   4
Atom   8C    basis set group =>   1
Atom   9C    basis set group =>   1
Atom  10C    basis set group =>   1
Atom  11C    basis set group =>   1
Atom  12N    basis set group =>   5
Atom  13C    basis set group =>   1
Atom  14N    basis set group =>   5
Atom  15C    basis set group =>   1
Atom  16C    basis set group =>   1
Atom  17C    basis set group =>   1
Atom  18C    basis set group =>   1
Atom  19N    basis set group =>   5
Atom  20O    basis set group =>   4
Atom  21O    basis set group =>   4
Atom  22C    basis set group =>   1
Atom  23C    basis set group =>   1
Atom  24C    basis set group =>   1
Atom  25C    basis set group =>   1
Atom  26C    basis set group =>   1
Atom  27C    basis set group =>   1
Atom  28S    basis set group =>   2
Atom  29C    basis set group =>   1
Atom  30C    basis set group =>   1
Atom  31C    basis set group =>   1
Atom  32N    basis set group =>   5
Atom  33C    basis set group =>   1
Atom  34C    basis set group =>   1
Atom  35N    basis set group =>   5
Atom  36C    basis set group =>   1
Atom  37C    basis set group =>   1
Atom  38C    basis set group =>   1
Atom  39N    basis set group =>   5
Atom  40C    basis set group =>   1
Atom  41N    basis set group =>   5
Atom  42C    basis set group =>   1
Atom  43C    basis set group =>   1
Atom  44C    basis set group =>   1
Atom  45C    basis set group =>   1
Atom  46O    basis set group =>   4
Atom  47C    basis set group =>   1
Atom  48C    basis set group =>   1
Atom  49S    basis set group =>   2
Atom  50C    basis set group =>   1
Atom  51C    basis set group =>   1
Atom  52C    basis set group =>   1
Atom  53C    basis set group =>   1
Atom  54C    basis set group =>   1
Atom  55N    basis set group =>   5
Atom  56C    basis set group =>   1
Atom  57N    basis set group =>   5
Atom  58Cl   basis set group =>   3
Atom  59H    basis set group =>   6
Atom  60H    basis set group =>   6
Atom  61H    basis set group =>   6
Atom  62H    basis set group =>   6
Atom  63H    basis set group =>   6
Atom  64H    basis set group =>   6
Atom  65H    basis set group =>   6
Atom  66H    basis set group =>   6
Atom  67H    basis set group =>   6
Atom  68H    basis set group =>   6
Atom  69H    basis set group =>   6
Atom  70H    basis set group =>   6
Atom  71H    basis set group =>   6
---------------------------------
AUXILIARY/J BASIS SET INFORMATION
---------------------------------
There are 6 groups of distinct atoms

 Group   1 Type C   : 12s5p4d2f1g contracted to 6s4p3d1f1g pattern {711111/2111/211/2/1}
 Group   2 Type S   : 14s5p5d2f1g contracted to 8s4p3d1f1g pattern {71111111/2111/311/2/1}
 Group   3 Type Cl  : 14s5p5d2f1g contracted to 8s4p3d1f1g pattern {71111111/2111/311/2/1}
 Group   4 Type O   : 12s5p4d2f1g contracted to 6s4p3d1f1g pattern {711111/2111/211/2/1}
 Group   5 Type N   : 12s5p4d2f1g contracted to 6s4p3d1f1g pattern {711111/2111/211/2/1}
 Group   6 Type H   : 5s2p1d contracted to 3s1p1d pattern {311/2/1}

Atom   0C    basis set group =>   1
Atom   1C    basis set group =>   1
Atom   2S    basis set group =>   2
Atom   3C    basis set group =>   1
Atom   4Cl   basis set group =>   3
Atom   5C    basis set group =>   1
Atom   6C    basis set group =>   1
Atom   7O    basis set group =>   4
Atom   8C    basis set group =>   1
Atom   9C    basis set group =>   1
Atom  10C    basis set group =>   1
Atom  11C    basis set group =>   1
Atom  12N    basis set group =>   5
Atom  13C    basis set group =>   1
Atom  14N    basis set group =>   5
Atom  15C    basis set group =>   1
Atom  16C    basis set group =>   1
Atom  17C    basis set group =>   1
Atom  18C    basis set group =>   1
Atom  19N    basis set group =>   5
Atom  20O    basis set group =>   4
Atom  21O    basis set group =>   4
Atom  22C    basis set group =>   1
Atom  23C    basis set group =>   1
Atom  24C    basis set group =>   1
Atom  25C    basis set group =>   1
Atom  26C    basis set group =>   1
Atom  27C    basis set group =>   1
Atom  28S    basis set group =>   2
Atom  29C    basis set group =>   1
Atom  30C    basis set group =>   1
Atom  31C    basis set group =>   1
Atom  32N    basis set group =>   5
Atom  33C    basis set group =>   1
Atom  34C    basis set group =>   1
Atom  35N    basis set group =>   5
Atom  36C    basis set group =>   1
Atom  37C    basis set group =>   1
Atom  38C    basis set group =>   1
Atom  39N    basis set group =>   5
Atom  40C    basis set group =>   1
Atom  41N    basis set group =>   5
Atom  42C    basis set group =>   1
Atom  43C    basis set group =>   1
Atom  44C    basis set group =>   1
Atom  45C    basis set group =>   1
Atom  46O    basis set group =>   4
Atom  47C    basis set group =>   1
Atom  48C    basis set group =>   1
Atom  49S    basis set group =>   2
Atom  50C    basis set group =>   1
Atom  51C    basis set group =>   1
Atom  52C    basis set group =>   1
Atom  53C    basis set group =>   1
Atom  54C    basis set group =>   1
Atom  55N    basis set group =>   5
Atom  56C    basis set group =>   1
Atom  57N    basis set group =>   5
Atom  58Cl   basis set group =>   3
Atom  59H    basis set group =>   6
Atom  60H    basis set group =>   6
Atom  61H    basis set group =>   6
Atom  62H    basis set group =>   6
Atom  63H    basis set group =>   6
Atom  64H    basis set group =>   6
Atom  65H    basis set group =>   6
Atom  66H    basis set group =>   6
Atom  67H    basis set group =>   6
Atom  68H    basis set group =>   6
Atom  69H    basis set group =>   6
Atom  70H    basis set group =>   6
Atom  71H    basis set group =>   6


           ************************************************************
           *        Program running with 6 parallel MPI-processes     *
           *              working on a common directory               *
           ************************************************************
------------------------------------------------------------------------------
                           ORCA GTO INTEGRAL CALCULATION
                           -- RI-GTO INTEGRALS CHOSEN --
------------------------------------------------------------------------------

                         BASIS SET STATISTICS AND STARTUP INFO

Gaussian basis set:
 # of primitive gaussian shells          ...  803
 # of primitive gaussian functions       ... 1567
 # of contracted shells                  ...  403
 # of contracted basis functions         ...  911
 Highest angular momentum                ...    2
 Maximum contraction depth               ...    5
Auxiliary gaussian basis set:
 # of primitive gaussian shells          ... 1535
 # of primitive gaussian functions       ... 4373
 # of contracted shells                  ...  960
 # of contracted aux-basis functions     ... 3044
 Highest angular momentum                ...    4
 Maximum contraction depth               ...    7
Ratio of auxiliary to basis functions    ...  3.34
Integral package used                  ... LIBINT
 One Electron integrals                  ... done
 Ordering auxiliary basis shells         ... done
 Integral threshhold             Thresh  ...  2.500e-11
 Primitive cut-off               TCut    ...  2.500e-12
 Pre-screening matrix                    ... done
 Shell pair data                         ... 
 Ordering of the shell pairs             ... done (   0.005 sec) 29161 of 81406 pairs
 Determination of significant pairs      ... done (   0.000 sec)
 Creation of shell pair data             ... done (   0.004 sec)
 Storage of shell pair data              ... done (   0.005 sec)
 Shell pair data done in (   0.014 sec)
 Computing two index integrals           ... done
 Cholesky decomposition of the V-matrix  ... done


Timings:
 Total evaluation time                   ...   1.416 sec (  0.024 min)
 One electron matrix time                ...   0.289 sec (  0.005 min) = 20.4%
 Schwartz matrix evaluation time         ...   0.446 sec (  0.007 min) = 31.5%
 Two index repulsion integral time       ...   0.267 sec (  0.004 min) = 18.8%
 Cholesky decomposition of V             ...   0.387 sec (  0.006 min) = 27.3%
 Three index repulsion integral time     ...   0.000 sec (  0.000 min) =  0.0%



           ************************************************************
           *        Program running with 6 parallel MPI-processes     *
           *              working on a common directory               *
           ************************************************************
-------------------------------------------------------------------------------
                                 ORCA SCF
-------------------------------------------------------------------------------

------------
SCF SETTINGS
------------
Hamiltonian:
 Density Functional     Method          .... DFT(GTOs)
 Exchange Functional    Exchange        .... WB88
 Correlation Functional Correlation     .... LYP
 LDA part of GGA corr.  LDAOpt          .... VWN-5
 Gradients option       PostSCFGGA      .... off
 Hybrid DFT is turned on
   Fraction HF Exchange ScalHFX         ....  0.190000
   Scaling of DF-GGA-X  ScalDFX         ....  0.350000
   Scaling of DF-GGA-C  ScalDFC         ....  0.810000
   Scaling of DF-LDA-C  ScalLDAC        ....  1.000000
   Perturbative correction              ....  0.000000
   Density functional embedding theory  .... OFF
 Long-range corrected/Screened/Range-Separated Hybrid DFT is turned on
   Amount of maximum screened exact exchange              ....  0.460000
   Range separation parameter mu (erf(mu*r12)/r12)        ....  0.330000
 RI-approximation to the Coulomb term is turned on
   Number of auxiliary basis functions  .... 3044
   RIJ-COSX (HFX calculated with COS-X)).... on


General Settings:
 Integral files         IntName         .... xtbopt
 Hartree-Fock type      HFTyp           .... RHF
 Total Charge           Charge          ....    0
 Multiplicity           Mult            ....    1
 Number of Electrons    NEL             ....  436
 Basis Dimension        Dim             ....  911
 Nuclear Repulsion      ENuc            ....   7682.8025622062 Eh

Convergence Acceleration:
 DIIS                   CNVDIIS         .... on
   Start iteration      DIISMaxIt       ....    12
   Startup error        DIISStart       ....  0.200000
   # of expansion vecs  DIISMaxEq       ....     5
   Bias factor          DIISBfac        ....   1.050
   Max. coefficient     DIISMaxC        ....  10.000
 Newton-Raphson         CNVNR           .... off
 SOSCF                  CNVSOSCF        .... on
   Start iteration      SOSCFMaxIt      ....   150
   Startup grad/error   SOSCFStart      ....  0.003300
 Level Shifting         CNVShift        .... on
   Level shift para.    LevelShift      ....    0.2500
   Turn off err/grad.   ShiftErr        ....    0.0010
 Zerner damping         CNVZerner       .... off
 Static damping         CNVDamp         .... on
   Fraction old density DampFac         ....    0.7000
   Max. Damping (<1)    DampMax         ....    0.9800
   Min. Damping (>=0)   DampMin         ....    0.0000
   Turn off err/grad.   DampErr         ....    0.1000
 Fernandez-Rico         CNVRico         .... off

SCF Procedure:
 Maximum # iterations   MaxIter         ....   125
 SCF integral mode      SCFMode         .... Direct
   Integral package                     .... LIBINT
 Reset frequency        DirectResetFreq ....    20
 Integral Threshold     Thresh          ....  2.500e-11 Eh
 Primitive CutOff       TCut            ....  2.500e-12 Eh

Convergence Tolerance:
 Convergence Check Mode ConvCheckMode   .... Total+1el-Energy
 Convergence forced     ConvForced      .... 1
 Energy Change          TolE            ....  1.000e-08 Eh
 1-El. energy change                    ....  1.000e-05 Eh
 Orbital Gradient       TolG            ....  1.000e-05
 Orbital Rotation angle TolX            ....  1.000e-05
 DIIS Error             TolErr          ....  5.000e-07


Diagonalization of the overlap matrix:
Smallest eigenvalue                        ... 2.045e-04
Time for diagonalization                   ...    0.138 sec
Threshold for overlap eigenvalues          ... 1.000e-08
Number of eigenvalues below threshold      ... 0
Time for construction of square roots      ...    0.089 sec
Total time needed                          ...    0.229 sec

-------------------
DFT GRID GENERATION
-------------------

General Integration Accuracy     IntAcc      ...  4.670
Radial Grid Type                 RadialGrid  ... Gauss-Chebyshev
Angular Grid (max. acc.)         AngularGrid ... Lebedev-302
Angular grid pruning method      GridPruning ... 3 (G Style)
Weight generation scheme         WeightScheme... Becke
Basis function cutoff            BFCut       ...    1.0000e-11
Integration weight cutoff        WCut        ...    1.0000e-14
Grids for H and He will be reduced by one unit

# of grid points (after initial pruning)     ... 413584 (   0.0 sec)
# of grid points (after weights+screening)   ... 360077 (   2.1 sec)
nearest neighbour list constructed           ...    0.0 sec
Grid point re-assignment to atoms done       ...    0.1 sec
Grid point division into batches done        ...    1.2 sec
Reduced shell lists constructed in    1.9 sec

Total number of grid points                  ...   360077
Total number of batches                      ...     5662
Average number of points per batch           ...       63
Average number of grid points per atom       ...     5001
Average number of shells per batch           ...    77.47 (19.22%)
Average number of basis functions per batch  ...   170.27 (18.69%)
Average number of large shells per batch     ...    51.81 (66.88%)
Average number of large basis fcns per batch ...   114.60 (67.31%)
Maximum spatial batch extension              ...  22.31, 20.00, 19.31 au
Average spatial batch extension              ...   0.39,  0.34,  0.35 au

Time for grid setup =    4.272 sec

------------------------------
INITIAL GUESS: MODEL POTENTIAL
------------------------------
Loading Hartree-Fock densities                     ... done
Calculating cut-offs                               ... done
Setting up the integral package                    ... done
Initializing the effective Hamiltonian             ... done
Starting the Coulomb interaction                   ... done (   0.6 sec)
Reading the grid                                   ... done
Mapping shells                                     ... done
Starting the XC term evaluation                    ... done (   0.9 sec)
  promolecular density results
     # of electrons  =    435.993789795
     EX              =   -434.517395386
     EC              =    -15.257598057
     EX+EC           =   -449.774993443
Transforming the Hamiltonian                       ... done (   0.1 sec)
Diagonalizing the Hamiltonian                      ... done (   0.1 sec)
Back transforming the eigenvectors                 ... done (   0.0 sec)
Now organizing SCF variables                       ... done
                      ------------------
                      INITIAL GUESS DONE (   6.2 sec)
                      ------------------
--------------------
COSX GRID GENERATION
--------------------

General Integration Accuracy     IntAcc      ...  3.340
Radial Grid Type                 RadialGrid  ... Gauss-Chebyshev
Angular Grid (max. acc.)         AngularGrid ... Lebedev-50
Angular grid pruning method      GridPruning ... 3 (G Style)
Weight generation scheme         WeightScheme... Becke
Basis function cutoff            BFCut       ...    1.0000e-11
Integration weight cutoff        WCut        ...    1.0000e-14
Grids for H and He will be reduced by one unit

# of grid points (after initial pruning)     ...  38884 (   0.0 sec)
# of grid points (after weights+screening)   ...  35359 (   0.2 sec)
nearest neighbour list constructed           ...    0.0 sec
Grid point re-assignment to atoms done       ...    0.0 sec
Grid point division into batches done        ...    0.0 sec
Reduced shell lists constructed in    0.1 sec

Total number of grid points                  ...    35359
Total number of batches                      ...      588
Average number of points per batch           ...       60
Average number of grid points per atom       ...      491
Average number of shells per batch           ...    91.75 (22.77%)
Average number of basis functions per batch  ...   203.73 (22.36%)
Average number of large shells per batch     ...    61.83 (67.39%)
Average number of large basis fcns per batch ...   138.25 (67.86%)
Maximum spatial batch extension              ...  20.46, 20.57, 17.08 au
Average spatial batch extension              ...   0.90,  0.63,  0.62 au

Overlap Fitting                  UseSFitting ... on
Constructing numerical overlap ... done (      0.0 sec)
Inverting numerical overlap    ... done (      0.0 sec)
Obtaining analytic overlap     ... done (      0.0 sec)
Final contraction and storage  ... done (      0.0 sec)


General Integration Accuracy     IntAcc      ...  3.670
Radial Grid Type                 RadialGrid  ... Gauss-Chebyshev
Angular Grid (max. acc.)         AngularGrid ... Lebedev-50
Angular grid pruning method      GridPruning ... 3 (G Style)
Weight generation scheme         WeightScheme... Becke
Basis function cutoff            BFCut       ...    1.0000e-11
Integration weight cutoff        WCut        ...    1.0000e-14
Grids for H and He will be reduced by one unit

# of grid points (after initial pruning)     ...  48190 (   0.0 sec)
# of grid points (after weights+screening)   ...  43633 (   0.2 sec)
nearest neighbour list constructed           ...    0.0 sec
Grid point re-assignment to atoms done       ...    0.0 sec
Grid point division into batches done        ...    0.0 sec
Reduced shell lists constructed in    0.1 sec

Total number of grid points                  ...    43633
Total number of batches                      ...      716
Average number of points per batch           ...       60
Average number of grid points per atom       ...      606
Average number of shells per batch           ...    90.17 (22.38%)
Average number of basis functions per batch  ...   200.01 (21.95%)
Average number of large shells per batch     ...    60.73 (67.34%)
Average number of large basis fcns per batch ...   136.03 (68.01%)
Maximum spatial batch extension              ...  19.94, 18.89, 18.42 au
Average spatial batch extension              ...   0.82,  0.58,  0.59 au

Overlap Fitting                  UseSFitting ... on
Constructing numerical overlap ... done (      0.1 sec)
Inverting numerical overlap    ... done (      0.0 sec)
Obtaining analytic overlap     ... done (      0.0 sec)
Final contraction and storage  ... done (      0.0 sec)


General Integration Accuracy     IntAcc      ...  4.010
Radial Grid Type                 RadialGrid  ... Gauss-Chebyshev
Angular Grid (max. acc.)         AngularGrid ... Lebedev-110
Angular grid pruning method      GridPruning ... 3 (G Style)
Weight generation scheme         WeightScheme... Becke
Basis function cutoff            BFCut       ...    1.0000e-11
Integration weight cutoff        WCut        ...    1.0000e-14
Grids for H and He will be reduced by one unit

# of grid points (after initial pruning)     ...  95980 (   0.0 sec)
# of grid points (after weights+screening)   ...  85908 (   0.5 sec)
nearest neighbour list constructed           ...    0.0 sec
Grid point re-assignment to atoms done       ...    0.0 sec
Grid point division into batches done        ...    0.1 sec
Reduced shell lists constructed in    0.2 sec

Total number of grid points                  ...    85908
Total number of batches                      ...     1376
Average number of points per batch           ...       62
Average number of grid points per atom       ...     1193
Average number of shells per batch           ...    85.65 (21.25%)
Average number of basis functions per batch  ...   189.93 (20.85%)
Average number of large shells per batch     ...    57.89 (67.59%)
Average number of large basis fcns per batch ...   129.26 (68.06%)
Maximum spatial batch extension              ...  19.27, 17.19, 19.31 au
Average spatial batch extension              ...   0.68,  0.51,  0.53 au

Overlap Fitting                  UseSFitting ... on
Constructing numerical overlap ... done (      0.1 sec)
Inverting numerical overlap    ... done (      0.0 sec)
Obtaining analytic overlap     ... done (      0.0 sec)
Final contraction and storage  ... done (      0.0 sec)

Time for X-Grid setup             =    2.014 sec
--------------
SCF ITERATIONS
--------------
ITER       Energy         Delta-E        Max-DP      RMS-DP      [F,P]     Damp
               ***  Starting incremental Fock matrix formation  ***
  0  -4473.7825179533   0.000000000000 0.08329288  0.00118465  0.2324325 0.7000
  1  -4474.3174118444  -0.534893891181 0.05281568  0.00083126  0.1012963 0.7000
                               ***Turning on DIIS***
  2  -4474.5365062599  -0.219094415498 0.10011285  0.00147725  0.0341114 0.0000
  3  -4474.9007626502  -0.364256390315 0.05167418  0.00061629  0.0561003 0.0000
  4  -4474.9691365913  -0.068373941068 0.01520219  0.00021538  0.0178842 0.0000
  5  -4474.9749601812  -0.005823589837 0.00532326  0.00008348  0.0056919 0.0000
                      *** Initiating the SOSCF procedure ***
                           *** Shutting down DIIS ***
                      *** Re-Reading the Fockian *** 
                      *** Removing any level shift *** 
ITER      Energy       Delta-E        Grad      Rot      Max-DP    RMS-DP
  6  -4474.97589366  -0.0009334814  0.002806  0.002806  0.002803  0.000044
               *** Restarting incremental Fock matrix formation ***
  7  -4474.97623044  -0.0003367817  0.002119  0.013546  0.002079  0.000044
  8  -4474.97643918  -0.0002087312  0.000556  0.012383  0.002278  0.000049
  9  -4474.97643044   0.0000087338  0.001022  0.004906  0.001575  0.000021
 10  -4474.97649672  -0.0000662770  0.000153  0.000931  0.000604  0.000007
 11  -4474.97649576   0.0000009547  0.000177  0.000533  0.000386  0.000004
 12  -4474.97649908  -0.0000033169  0.000027  0.000095  0.000144  0.000001
 13  -4474.97649903   0.0000000470  0.000045  0.000051  0.000073  0.000001
 14  -4474.97649916  -0.0000001232  0.000008  0.000016  0.000030  0.000000
 15  -4474.97649915   0.0000000084  0.000010  0.000011  0.000018  0.000000
                  ***Gradient check signals convergence***
              ***Rediagonalizing the Fockian in SOSCF/NRSCF***

               *****************************************************
               *                     SUCCESS                       *
               *           SCF CONVERGED AFTER  16 CYCLES          *
               *****************************************************

Setting up the final grid:

General Integration Accuracy     IntAcc      ...  5.010
Radial Grid Type                 RadialGrid  ... Gauss-Chebyshev
Angular Grid (max. acc.)         AngularGrid ... Lebedev-434
Angular grid pruning method      GridPruning ... 3 (G Style)
Weight generation scheme         WeightScheme... Becke
Basis function cutoff            BFCut       ...    1.0000e-11
Integration weight cutoff        WCut        ...    1.0000e-14
Grids for H and He will be reduced by one unit

# of grid points (after initial pruning)     ... 723280 (   0.0 sec)
# of grid points (after weights+screening)   ... 627687 (   3.6 sec)
nearest neighbour list constructed           ...    0.0 sec
Grid point re-assignment to atoms done       ...    0.1 sec
Grid point division into batches done        ...    3.8 sec
Reduced shell lists constructed in    4.9 sec

Total number of grid points                  ...   627687
Total number of batches                      ...     9842
Average number of points per batch           ...       63
Average number of grid points per atom       ...     8718
Average number of shells per batch           ...    75.10 (18.64%)
Average number of basis functions per batch  ...   164.51 (18.06%)
Average number of large shells per batch     ...    50.12 (66.73%)
Average number of large basis fcns per batch ...   110.69 (67.28%)
Maximum spatial batch extension              ...  21.33, 27.85, 23.52 au
Average spatial batch extension              ...   0.31,  0.28,  0.28 au

Final grid set up in    9.0 sec
Final integration                            ... done (   1.9 sec)
Change in XC energy                          ...    -0.000066613
Integrated number of electrons               ...   436.000015239
Previous integrated no of electrons          ...   436.000015885
Old exchange energy                            =   -117.821766916 Eh
New exchange energy                            =   -117.819672478 Eh
Exchange energy change after final integration =      0.002094438 Eh
Total energy after final integration           =  -4474.974471329 Eh
Final COS-X integration done in                =    31.912 sec

----------------
TOTAL SCF ENERGY
----------------

Total Energy       :        -4474.97447133 Eh         -121770.24604 eV

Components:
Nuclear Repulsion  :         7682.80256221 Eh          209059.68611 eV
Electronic Energy  :       -12157.77703354 Eh         -330829.93215 eV
One Electron Energy:       -21422.09020428 Eh         -582924.70978 eV
Two Electron Energy:         9264.31317074 Eh          252094.77763 eV

Virial components:
Potential Energy   :        -8924.69358768 Eh         -242853.25894 eV
Kinetic Energy     :         4449.71911635 Eh          121083.01290 eV
Virial Ratio       :            2.00567572


DFT components:
N(Alpha)           :      218.000007619727 electrons
N(Beta)            :      218.000007619727 electrons
N(Total)           :      436.000015239453 electrons
E(XC)              :     -338.254051499693 Eh       
DFET-embed. en.    :        0.000000000000 Eh       

---------------
SCF CONVERGENCE
---------------

  Last Energy change         ...   -6.0600e-09  Tolerance :   1.0000e-08
  Last MAX-Density change    ...    6.6613e-15  Tolerance :   1.0000e-07
  Last RMS-Density change    ...    3.9382e-17  Tolerance :   5.0000e-09
  Last Orbital Gradient      ...    8.8671e-07  Tolerance :   1.0000e-05
  Last Orbital Rotation      ...    3.2338e-06  Tolerance :   1.0000e-05

             **** THE GBW FILE WAS UPDATED (xtbopt.gbw) ****
             **** DENSITY FILE WAS UPDATED (xtbopt.scfp) ****
             **** ENERGY FILE WAS UPDATED (xtbopt.en.tmp) ****
             **** THE GBW FILE WAS UPDATED (xtbopt.gbw) ****
             **** DENSITY FILE WAS UPDATED (xtbopt.scfp) ****
----------------
ORBITAL ENERGIES
----------------

  NO   OCC          E(Eh)            E(eV) 
   0   2.0000    -101.625465     -2765.3695 
   1   2.0000    -101.618861     -2765.1898 
   2   2.0000     -89.002484     -2421.8807 
   3   2.0000     -88.995289     -2421.6849 
   4   2.0000     -88.983548     -2421.3654 
   5   2.0000     -19.257433      -524.0214 
   6   2.0000     -19.255826      -523.9777 
   7   2.0000     -19.231962      -523.3283 
   8   2.0000     -19.222471      -523.0700 
   9   2.0000     -14.660367      -398.9289 
  10   2.0000     -14.491301      -394.3283 
  11   2.0000     -14.431855      -392.7107 
  12   2.0000     -14.429176      -392.6378 
  13   2.0000     -14.428714      -392.6253 
  14   2.0000     -14.428114      -392.6089 
  15   2.0000     -14.426064      -392.5532 
  16   2.0000     -14.423158      -392.4741 
  17   2.0000     -14.420590      -392.4042 
  18   2.0000     -10.389693      -282.7179 
  19   2.0000     -10.385095      -282.5928 
  20   2.0000     -10.378694      -282.4186 
  21   2.0000     -10.378103      -282.4025 
  22   2.0000     -10.362615      -281.9811 
  23   2.0000     -10.359902      -281.9073 
  24   2.0000     -10.358020      -281.8560 
  25   2.0000     -10.357394      -281.8390 
  26   2.0000     -10.350672      -281.6561 
  27   2.0000     -10.349290      -281.6185 
  28   2.0000     -10.342547      -281.4350 
  29   2.0000     -10.339584      -281.3544 
  30   2.0000     -10.339039      -281.3396 
  31   2.0000     -10.338261      -281.3184 
  32   2.0000     -10.338063      -281.3130 
  33   2.0000     -10.333409      -281.1863 
  34   2.0000     -10.333395      -281.1860 
  35   2.0000     -10.330550      -281.1085 
  36   2.0000     -10.330492      -281.1070 
  37   2.0000     -10.329824      -281.0888 
  38   2.0000     -10.325670      -280.9758 
  39   2.0000     -10.325266      -280.9648 
  40   2.0000     -10.324711      -280.9497 
  41   2.0000     -10.324557      -280.9455 
  42   2.0000     -10.323569      -280.9186 
  43   2.0000     -10.321491      -280.8620 
  44   2.0000     -10.320019      -280.8220 
  45   2.0000     -10.318956      -280.7931 
  46   2.0000     -10.316041      -280.7137 
  47   2.0000     -10.315926      -280.7106 
  48   2.0000     -10.314911      -280.6830 
  49   2.0000     -10.313456      -280.6434 
  50   2.0000     -10.313226      -280.6371 
  51   2.0000     -10.310852      -280.5726 
  52   2.0000     -10.309033      -280.5231 
  53   2.0000     -10.306431      -280.4522 
  54   2.0000     -10.305120      -280.4166 
  55   2.0000     -10.303053      -280.3603 
  56   2.0000     -10.302439      -280.3436 
  57   2.0000     -10.300300      -280.2854 
  58   2.0000     -10.297952      -280.2215 
  59   2.0000      -9.580253      -260.6919 
  60   2.0000      -9.573634      -260.5118 
  61   2.0000      -8.098160      -220.3621 
  62   2.0000      -8.090993      -220.1671 
  63   2.0000      -8.078072      -219.8155 
  64   2.0000      -7.350909      -200.0284 
  65   2.0000      -7.344263      -199.8475 
  66   2.0000      -7.340277      -199.7391 
  67   2.0000      -7.339733      -199.7243 
  68   2.0000      -7.333686      -199.5597 
  69   2.0000      -7.333123      -199.5444 
  70   2.0000      -6.067535      -165.1060 
  71   2.0000      -6.062892      -164.9797 
  72   2.0000      -6.060457      -164.9134 
  73   2.0000      -6.060356      -164.9107 
  74   2.0000      -6.055760      -164.7856 
  75   2.0000      -6.053274      -164.7180 
  76   2.0000      -6.047396      -164.5580 
  77   2.0000      -6.043291      -164.4463 
  78   2.0000      -6.040261      -164.3639 
  79   2.0000      -1.337244       -36.3883 
  80   2.0000      -1.155360       -31.4389 
  81   2.0000      -1.149781       -31.2871 
  82   2.0000      -1.139851       -31.0169 
  83   2.0000      -1.115044       -30.3419 
  84   2.0000      -1.103397       -30.0250 
  85   2.0000      -1.047139       -28.4941 
  86   2.0000      -1.039757       -28.2932 
  87   2.0000      -1.025865       -27.9152 
  88   2.0000      -1.019249       -27.7352 
  89   2.0000      -1.009406       -27.4673 
  90   2.0000      -1.006994       -27.4017 
  91   2.0000      -1.004885       -27.3443 
  92   2.0000      -1.001967       -27.2649 
  93   2.0000      -0.999088       -27.1866 
  94   2.0000      -0.996138       -27.1063 
  95   2.0000      -0.995850       -27.0984 
  96   2.0000      -0.989761       -26.9328 
  97   2.0000      -0.964282       -26.2394 
  98   2.0000      -0.956713       -26.0335 
  99   2.0000      -0.943181       -25.6653 
 100   2.0000      -0.931987       -25.3607 
 101   2.0000      -0.918041       -24.9812 
 102   2.0000      -0.913690       -24.8628 
 103   2.0000      -0.907690       -24.6995 
 104   2.0000      -0.905662       -24.6443 
 105   2.0000      -0.889810       -24.2130 
 106   2.0000      -0.880176       -23.9508 
 107   2.0000      -0.862845       -23.4792 
 108   2.0000      -0.856152       -23.2971 
 109   2.0000      -0.841506       -22.8985 
 110   2.0000      -0.834386       -22.7048 
 111   2.0000      -0.825527       -22.4637 
 112   2.0000      -0.806187       -21.9375 
 113   2.0000      -0.799289       -21.7498 
 114   2.0000      -0.782448       -21.2915 
 115   2.0000      -0.771393       -20.9907 
 116   2.0000      -0.763935       -20.7877 
 117   2.0000      -0.762821       -20.7574 
 118   2.0000      -0.753559       -20.5054 
 119   2.0000      -0.743182       -20.2230 
 120   2.0000      -0.732402       -19.9297 
 121   2.0000      -0.721153       -19.6236 
 122   2.0000      -0.712039       -19.3756 
 123   2.0000      -0.696246       -18.9458 
 124   2.0000      -0.694682       -18.9032 
 125   2.0000      -0.687538       -18.7089 
 126   2.0000      -0.685423       -18.6513 
 127   2.0000      -0.677752       -18.4426 
 128   2.0000      -0.677205       -18.4277 
 129   2.0000      -0.667971       -18.1764 
 130   2.0000      -0.657712       -17.8973 
 131   2.0000      -0.650447       -17.6996 
 132   2.0000      -0.640559       -17.4305 
 133   2.0000      -0.635710       -17.2985 
 134   2.0000      -0.625504       -17.0208 
 135   2.0000      -0.622948       -16.9513 
 136   2.0000      -0.619361       -16.8537 
 137   2.0000      -0.615031       -16.7358 
 138   2.0000      -0.611911       -16.6509 
 139   2.0000      -0.610235       -16.6053 
 140   2.0000      -0.604326       -16.4446 
 141   2.0000      -0.594194       -16.1689 
 142   2.0000      -0.589335       -16.0366 
 143   2.0000      -0.578653       -15.7459 
 144   2.0000      -0.572262       -15.5720 
 145   2.0000      -0.569765       -15.5041 
 146   2.0000      -0.561682       -15.2841 
 147   2.0000      -0.560527       -15.2527 
 148   2.0000      -0.557488       -15.1700 
 149   2.0000      -0.552484       -15.0339 
 150   2.0000      -0.549720       -14.9586 
 151   2.0000      -0.545029       -14.8310 
 152   2.0000      -0.544602       -14.8194 
 153   2.0000      -0.543243       -14.7824 
 154   2.0000      -0.539726       -14.6867 
 155   2.0000      -0.535347       -14.5675 
 156   2.0000      -0.534068       -14.5327 
 157   2.0000      -0.530248       -14.4288 
 158   2.0000      -0.528848       -14.3907 
 159   2.0000      -0.524589       -14.2748 
 160   2.0000      -0.521100       -14.1798 
 161   2.0000      -0.515350       -14.0234 
 162   2.0000      -0.513277       -13.9670 
 163   2.0000      -0.506108       -13.7719 
 164   2.0000      -0.504760       -13.7352 
 165   2.0000      -0.500099       -13.6084 
 166   2.0000      -0.498120       -13.5545 
 167   2.0000      -0.494463       -13.4550 
 168   2.0000      -0.491405       -13.3718 
 169   2.0000      -0.489303       -13.3146 
 170   2.0000      -0.488456       -13.2916 
 171   2.0000      -0.482690       -13.1347 
 172   2.0000      -0.477570       -12.9953 
 173   2.0000      -0.472220       -12.8498 
 174   2.0000      -0.467294       -12.7157 
 175   2.0000      -0.461026       -12.5451 
 176   2.0000      -0.459717       -12.5095 
 177   2.0000      -0.458350       -12.4723 
 178   2.0000      -0.456332       -12.4174 
 179   2.0000      -0.454600       -12.3703 
 180   2.0000      -0.453124       -12.3301 
 181   2.0000      -0.452757       -12.3201 
 182   2.0000      -0.448930       -12.2160 
 183   2.0000      -0.446526       -12.1506 
 184   2.0000      -0.443880       -12.0786 
 185   2.0000      -0.441426       -12.0118 
 186   2.0000      -0.440043       -11.9742 
 187   2.0000      -0.437798       -11.9131 
 188   2.0000      -0.437220       -11.8974 
 189   2.0000      -0.435684       -11.8556 
 190   2.0000      -0.435173       -11.8417 
 191   2.0000      -0.431423       -11.7396 
 192   2.0000      -0.426155       -11.5963 
 193   2.0000      -0.423092       -11.5129 
 194   2.0000      -0.419254       -11.4085 
 195   2.0000      -0.412014       -11.2115 
 196   2.0000      -0.411513       -11.1978 
 197   2.0000      -0.405027       -11.0213 
 198   2.0000      -0.403664       -10.9842 
 199   2.0000      -0.399598       -10.8736 
 200   2.0000      -0.399518       -10.8714 
 201   2.0000      -0.398046       -10.8314 
 202   2.0000      -0.394520       -10.7354 
 203   2.0000      -0.384277       -10.4567 
 204   2.0000      -0.377966       -10.2850 
 205   2.0000      -0.362261        -9.8576 
 206   2.0000      -0.359220        -9.7749 
 207   2.0000      -0.347000        -9.4424 
 208   2.0000      -0.346858        -9.4385 
 209   2.0000      -0.345114        -9.3910 
 210   2.0000      -0.342374        -9.3165 
 211   2.0000      -0.338338        -9.2067 
 212   2.0000      -0.332432        -9.0459 
 213   2.0000      -0.327100        -8.9009 
 214   2.0000      -0.319777        -8.7016 
 215   2.0000      -0.311690        -8.4815 
 216   2.0000      -0.307570        -8.3694 
 217   2.0000      -0.256449        -6.9783 
 218   0.0000      -0.110104        -2.9961 
 219   0.0000      -0.099313        -2.7024 
 220   0.0000      -0.073908        -2.0111 
 221   0.0000      -0.060035        -1.6336 
 222   0.0000      -0.052011        -1.4153 
 223   0.0000      -0.045865        -1.2480 
 224   0.0000      -0.022589        -0.6147 
 225   0.0000      -0.017153        -0.4668 
 226   0.0000      -0.010502        -0.2858 
 227   0.0000       0.004042         0.1100 
 228   0.0000       0.010700         0.2912 
 229   0.0000       0.028473         0.7748 
 230   0.0000       0.032366         0.8807 
 231   0.0000       0.036666         0.9977 
 232   0.0000       0.037375         1.0170 
 233   0.0000       0.044354         1.2069 
 234   0.0000       0.049825         1.3558 
 235   0.0000       0.051447         1.3999 
 236   0.0000       0.056945         1.5495 
 237   0.0000       0.072049         1.9605 
 238   0.0000       0.078314         2.1310 
 239   0.0000       0.079566         2.1651 
 240   0.0000       0.080929         2.2022 
 241   0.0000       0.086846         2.3632 
 242   0.0000       0.090570         2.4645 
 243   0.0000       0.094858         2.5812 
 244   0.0000       0.098269         2.6740 
 245   0.0000       0.103147         2.8068 
 246   0.0000       0.105627         2.8742 
 247   0.0000       0.106080         2.8866 
 248   0.0000       0.107924         2.9368 
 249   0.0000       0.110076         2.9953 
 250   0.0000       0.113393         3.0856 
 251   0.0000       0.130859         3.5608 
 252   0.0000       0.136624         3.7177 
 253   0.0000       0.140601         3.8259 
 254   0.0000       0.144033         3.9193 
 255   0.0000       0.145495         3.9591 
 256   0.0000       0.146238         3.9793 
 257   0.0000       0.149126         4.0579 
 258   0.0000       0.151364         4.1188 
 259   0.0000       0.152949         4.1619 
 260   0.0000       0.156668         4.2632 
 261   0.0000       0.156793         4.2666 
 262   0.0000       0.163324         4.4443 
 263   0.0000       0.170001         4.6260 
 264   0.0000       0.176633         4.8064 
 265   0.0000       0.177292         4.8244 
 266   0.0000       0.183912         5.0045 
 267   0.0000       0.189859         5.1663 
 268   0.0000       0.192372         5.2347 
 269   0.0000       0.195875         5.3300 
 270   0.0000       0.202498         5.5102 
 271   0.0000       0.214143         5.8271 
 272   0.0000       0.215488         5.8637 
 273   0.0000       0.221009         6.0140 
 274   0.0000       0.223661         6.0861 
 275   0.0000       0.225882         6.1466 
 276   0.0000       0.230314         6.2672 
 277   0.0000       0.233599         6.3566 
 278   0.0000       0.238500         6.4899 
 279   0.0000       0.242180         6.5900 
 280   0.0000       0.250160         6.8072 
 281   0.0000       0.253881         6.9084 
 282   0.0000       0.258277         7.0281 
 283   0.0000       0.267792         7.2870 
 284   0.0000       0.274270         7.4633 
 285   0.0000       0.277966         7.5638 
 286   0.0000       0.281084         7.6487 
 287   0.0000       0.284417         7.7394 
 288   0.0000       0.290117         7.8945 
 289   0.0000       0.292088         7.9481 
 290   0.0000       0.298518         8.1231 
 291   0.0000       0.300623         8.1804 
 292   0.0000       0.304444         8.2843 
 293   0.0000       0.307937         8.3794 
 294   0.0000       0.310033         8.4364 
 295   0.0000       0.314195         8.5497 
 296   0.0000       0.317049         8.6274 
 297   0.0000       0.318975         8.6797 
 298   0.0000       0.323789         8.8107 
 299   0.0000       0.327112         8.9012 
 300   0.0000       0.328948         8.9511 
 301   0.0000       0.332094         9.0367 
 302   0.0000       0.337572         9.1858 
 303   0.0000       0.338719         9.2170 
 304   0.0000       0.344842         9.3836 
 305   0.0000       0.346639         9.4325 
 306   0.0000       0.349993         9.5238 
 307   0.0000       0.352604         9.5948 
 308   0.0000       0.354069         9.6347 
 309   0.0000       0.359384         9.7793 
 310   0.0000       0.370147        10.0722 
 311   0.0000       0.371075        10.0975 
 312   0.0000       0.373806        10.1718 
 313   0.0000       0.378162        10.2903 
 314   0.0000       0.379488        10.3264 
 315   0.0000       0.384325        10.4580 
 316   0.0000       0.391051        10.6410 
 317   0.0000       0.392575        10.6825 
 318   0.0000       0.395139        10.7523 
 319   0.0000       0.399413        10.8686 
 320   0.0000       0.402214        10.9448 
 321   0.0000       0.405416        11.0319 
 322   0.0000       0.411026        11.1846 
 323   0.0000       0.413120        11.2416 
 324   0.0000       0.415866        11.3163 
 325   0.0000       0.419735        11.4216 
 326   0.0000       0.424279        11.5452 
 327   0.0000       0.434598        11.8260 
 328   0.0000       0.439845        11.9688 
 329   0.0000       0.443787        12.0761 
 330   0.0000       0.445841        12.1320 
 331   0.0000       0.447531        12.1779 
 332   0.0000       0.448446        12.2028 
 333   0.0000       0.453306        12.3351 
 334   0.0000       0.453672        12.3450 
 335   0.0000       0.459669        12.5082 
 336   0.0000       0.462150        12.5757 
 337   0.0000       0.465654        12.6711 
 338   0.0000       0.468469        12.7477 
 339   0.0000       0.475101        12.9282 
 340   0.0000       0.476692        12.9715 
 341   0.0000       0.480024        13.0621 
 342   0.0000       0.480397        13.0723 
 343   0.0000       0.483839        13.1659 
 344   0.0000       0.487115        13.2551 
 345   0.0000       0.489400        13.3173 
 346   0.0000       0.494040        13.4435 
 347   0.0000       0.494725        13.4621 
 348   0.0000       0.498191        13.5565 
 349   0.0000       0.501814        13.6551 
 350   0.0000       0.507713        13.8156 
 351   0.0000       0.509026        13.8513 
 352   0.0000       0.512670        13.9505 
 353   0.0000       0.515282        14.0215 
 354   0.0000       0.517889        14.0925 
 355   0.0000       0.519133        14.1263 
 356   0.0000       0.522244        14.2110 
 357   0.0000       0.524121        14.2621 
 358   0.0000       0.528465        14.3803 
 359   0.0000       0.530844        14.4450 
 360   0.0000       0.535551        14.5731 
 361   0.0000       0.538232        14.6460 
 362   0.0000       0.539537        14.6815 
 363   0.0000       0.545069        14.8321 
 364   0.0000       0.546874        14.8812 
 365   0.0000       0.549187        14.9441 
 366   0.0000       0.550838        14.9891 
 367   0.0000       0.555030        15.1031 
 368   0.0000       0.556587        15.1455 
 369   0.0000       0.563576        15.3357 
 370   0.0000       0.565527        15.3888 
 371   0.0000       0.567674        15.4472 
 372   0.0000       0.571883        15.5617 
 373   0.0000       0.574297        15.6274 
 374   0.0000       0.577612        15.7176 
 375   0.0000       0.579892        15.7797 
 376   0.0000       0.581062        15.8115 
 377   0.0000       0.584238        15.8979 
 378   0.0000       0.586375        15.9561 
 379   0.0000       0.590032        16.0556 
 380   0.0000       0.592433        16.1209 
 381   0.0000       0.596604        16.2344 
 382   0.0000       0.599528        16.3140 
 383   0.0000       0.604304        16.4439 
 384   0.0000       0.606679        16.5086 
 385   0.0000       0.613573        16.6962 
 386   0.0000       0.617061        16.7911 
 387   0.0000       0.619625        16.8609 
 388   0.0000       0.625196        17.0124 
 389   0.0000       0.625936        17.0326 
 390   0.0000       0.629930        17.1413 
 391   0.0000       0.631867        17.1940 
 392   0.0000       0.636399        17.3173 
 393   0.0000       0.639182        17.3930 
 394   0.0000       0.642136        17.4734 
 395   0.0000       0.645306        17.5597 
 396   0.0000       0.648385        17.6435 
 397   0.0000       0.651885        17.7387 
 398   0.0000       0.654531        17.8107 
 399   0.0000       0.656768        17.8716 
 400   0.0000       0.660931        17.9849 
 401   0.0000       0.664994        18.0954 
 402   0.0000       0.668717        18.1967 
 403   0.0000       0.669484        18.2176 
 404   0.0000       0.670437        18.2435 
 405   0.0000       0.672688        18.3048 
 406   0.0000       0.674622        18.3574 
 407   0.0000       0.677832        18.4448 
 408   0.0000       0.679788        18.4980 
 409   0.0000       0.686223        18.6731 
 410   0.0000       0.689397        18.7595 
 411   0.0000       0.690935        18.8013 
 412   0.0000       0.693778        18.8787 
 413   0.0000       0.694521        18.8989 
 414   0.0000       0.695512        18.9258 
 415   0.0000       0.697482        18.9795 
 416   0.0000       0.697873        18.9901 
 417   0.0000       0.699844        19.0437 
 418   0.0000       0.704550        19.1718 
 419   0.0000       0.706079        19.2134 
 420   0.0000       0.708000        19.2657 
 421   0.0000       0.711042        19.3484 
 422   0.0000       0.716081        19.4856 
 423   0.0000       0.718375        19.5480 
 424   0.0000       0.719863        19.5885 
 425   0.0000       0.723230        19.6801 
 426   0.0000       0.726346        19.7649 
 427   0.0000       0.727237        19.7891 
 428   0.0000       0.727979        19.8093 
 429   0.0000       0.729780        19.8583 
 430   0.0000       0.733300        19.9541 
 431   0.0000       0.736323        20.0364 
 432   0.0000       0.736705        20.0468 
 433   0.0000       0.739452        20.1215 
 434   0.0000       0.741516        20.1777 
 435   0.0000       0.742146        20.1948 
 436   0.0000       0.747356        20.3366 
 437   0.0000       0.748575        20.3698 
 438   0.0000       0.750617        20.4253 
 439   0.0000       0.753274        20.4976 
 440   0.0000       0.754042        20.5185 
 441   0.0000       0.756640        20.5892 
 442   0.0000       0.760859        20.7040 
 443   0.0000       0.763260        20.7694 
 444   0.0000       0.766263        20.8511 
 445   0.0000       0.768007        20.8985 
 446   0.0000       0.770179        20.9576 
 447   0.0000       0.772503        21.0209 
 448   0.0000       0.776926        21.1412 
 449   0.0000       0.778196        21.1758 
 450   0.0000       0.782191        21.2845 
 451   0.0000       0.783014        21.3069 
 452   0.0000       0.784376        21.3440 
 453   0.0000       0.788159        21.4469 
 454   0.0000       0.791226        21.5303 
 455   0.0000       0.797414        21.6987 
 456   0.0000       0.802102        21.8263 
 457   0.0000       0.803480        21.8638 
 458   0.0000       0.806592        21.9485 
 459   0.0000       0.807556        21.9747 
 460   0.0000       0.811986        22.0953 
 461   0.0000       0.817466        22.2444 
 462   0.0000       0.819366        22.2961 
 463   0.0000       0.819689        22.3049 
 464   0.0000       0.824525        22.4365 
 465   0.0000       0.825340        22.4586 
 466   0.0000       0.829119        22.5615 
 467   0.0000       0.832409        22.6510 
 468   0.0000       0.834255        22.7012 
 469   0.0000       0.841292        22.8927 
 470   0.0000       0.841528        22.8991 
 471   0.0000       0.844250        22.9732 
 472   0.0000       0.848293        23.0832 
 473   0.0000       0.855121        23.2690 
 474   0.0000       0.855514        23.2797 
 475   0.0000       0.860217        23.4077 
 476   0.0000       0.861249        23.4358 
 477   0.0000       0.863702        23.5025 
 478   0.0000       0.866645        23.5826 
 479   0.0000       0.875913        23.8348 
 480   0.0000       0.876793        23.8587 
 481   0.0000       0.878815        23.9138 
 482   0.0000       0.882344        24.0098 
 483   0.0000       0.885566        24.0975 
 484   0.0000       0.887956        24.1625 
 485   0.0000       0.895261        24.3613 
 486   0.0000       0.899166        24.4675 
 487   0.0000       0.902203        24.5502 
 488   0.0000       0.904095        24.6017 
 489   0.0000       0.905154        24.6305 
 490   0.0000       0.913378        24.8543 
 491   0.0000       0.915222        24.9045 
 492   0.0000       0.920612        25.0511 
 493   0.0000       0.922121        25.0922 
 494   0.0000       0.928134        25.2558 
 495   0.0000       0.930748        25.3269 
 496   0.0000       0.934497        25.4290 
 497   0.0000       0.937260        25.5041 
 498   0.0000       0.939602        25.5679 
 499   0.0000       0.944721        25.7072 
 500   0.0000       0.950351        25.8604 
 501   0.0000       0.952711        25.9246 
 502   0.0000       0.956158        26.0184 
 503   0.0000       0.962752        26.1978 
 504   0.0000       0.967114        26.3165 
[...]
   1.682   2.986   1.838   2.110   2.016   1.830   4.430   2.096   2.034   3.609
   2.155   2.026   1.643   1.393   2.126   3.874   2.124   3.879   4.506   0.403
   0.486   0.528   0.614   0.440   0.529   0.444   0.199   0.595   0.502   0.495
   0.523   0.412

Number of electrons in sTDA:  150.000

ax(DF)   :  0.3800
s^k      :  2.0000
beta  (J):  1.8600
alpha (K):  0.9000

hardness table read
setting up gammas ...








computing q(ij,n)
memory needed for q data:             3.5 MB 
memory available for q data:       2488.8 MB 

CSF included by energy:           27 
CSF considered in PT2:          4173 

ordered frontier orbitals
           eV         # centers 
  64      -9.442      13.0
  65      -9.438       8.6
  66      -9.391      11.0
  67      -9.316      21.1
  68      -9.207       7.3
  69      -9.046      14.5
  70      -8.901      20.1
  71      -8.702      11.3
  72      -8.482      27.5
  73      -8.369      27.6
  74      -6.978      12.1

  75      -2.996      32.3
  76      -2.702      23.0
  77      -2.011      30.9
  78      -1.634      11.0
  79      -1.415      15.2
  80      -1.248      14.9
  81      -0.615      20.2
  82      -0.467       5.2
  83      -0.286      15.3
  84       0.110      20.9
  85       0.291       8.4

           eV        nm       excitation i->a                     eV 
   0      2.38     521.8    74 ->  75      gap,J,K:    3.982     1.978     0.186
   1      2.78     446.6    74 ->  76      gap,J,K:    4.276     1.714     0.107
   2      3.39     365.3    74 ->  77      gap,J,K:    4.967     2.166     0.296
   3      3.62     342.8    74 ->  79      gap,J,K:    5.563     2.090     0.072
   4      3.86     321.1    73 ->  75      gap,J,K:    5.373     1.838     0.163
   5      3.92     316.2    74 ->  78      gap,J,K:    5.345     1.546     0.061
   6      4.01     309.4    72 ->  75      gap,J,K:    5.485     1.774     0.148
   7      4.09     302.8    74 ->  80      gap,J,K:    5.730     1.858     0.111
   8      4.20     295.3    71 ->  75      gap,J,K:    5.705     1.812     0.152
   9      4.22     294.1    73 ->  76      gap,J,K:    5.667     1.839     0.194
  10      4.31     287.5    68 ->  75      gap,J,K:    6.211     1.988     0.045
  11      4.35     284.8    72 ->  76      gap,J,K:    5.779     1.789     0.182
  12      4.37     283.5    70 ->  75      gap,J,K:    5.905     1.824     0.146
  13      4.43     279.9    74 ->  82      gap,J,K:    6.512     2.426     0.172
  14      4.53     274.0    69 ->  75      gap,J,K:    6.050     1.687     0.081
  15      4.56     271.9    71 ->  76      gap,J,K:    5.999     1.653     0.107
  16      4.61     268.8    67 ->  75      gap,J,K:    6.320     1.865     0.079
  17      4.66     266.1    70 ->  76      gap,J,K:    6.198     1.777     0.119
  18      4.69     264.3    68 ->  76      gap,J,K:    6.504     1.908     0.047
  19      4.72     262.6    74 ->  81      gap,J,K:    6.364     1.897     0.128
  20      4.77     260.1    66 ->  75      gap,J,K:    6.395     1.832     0.101
  21      4.78     259.3    64 ->  75      gap,J,K:    6.446     1.828     0.082
  22      4.80     258.1    69 ->  76      gap,J,K:    6.343     1.745     0.102
  23      4.84     256.4    73 ->  77      gap,J,K:    6.358     1.848     0.163
  24      4.85     255.5    65 ->  75      gap,J,K:    6.442     1.705     0.058

average / max PT2 energy lowering (eV):       0.041       0.085

CSF included by PT:                   210 
total number of CSF included:         237 
 
sTD-DFT procedure...
setting up A+B and A-B matrices...  done
estimated time (min):    0.001
calculating (A-B)^0.5 ... done
calculating (A+B)*(A-B)^0.5 ... done
calculating (A-B)^0.5 *(A+B)*(A-B)^0.5 ... done
diagonalizing ...using LAPACKE_ssyevr ...done

   34 roots found, lowest/highest eigenvalue :     2.142     4.994

excitation energies, transition moments and amplitudes

molecular weight:  862.700
state   eV        nm        fL         fV        Rl        RV
   0   2.142     578.9   1.288319   1.524854  -346.341492  -310.139000     0.91 (  74->  75)    0.03 (  74->  76)    0.02 (  73->  76)
   1   2.614     474.3   0.299323   0.318048  277.756207  296.944614     0.86 (  74->  76)    0.05 (  74->  77)    0.02 (  73->  75)
   2   3.039     408.0   0.015096   0.018216  -17.282295  -19.921112     0.61 (  74->  77)    0.18 (  74->  79)    0.05 (  74->  80)
   3   3.227     384.2   0.015331   0.015158  -19.939007  -17.719107     0.20 (  68->  75)    0.14 (  68->  76)    0.14 (  72->  75)
   4   3.348     370.4   0.058712   0.064077  -30.059591  -16.833380     0.18 (  73->  75)    0.11 (  72->  75)    0.06 (  72->  76)
   5   3.397     365.0   0.129983   0.132738  55.927491  48.771173     0.51 (  74->  79)    0.22 (  74->  77)    0.10 (  74->  80)
   6   3.466     357.7   0.063436   0.061793  100.193101  94.396739     0.20 (  68->  75)    0.11 (  68->  76)    0.10 (  67->  76)
   7   3.616     342.9   0.002493   0.002161  19.731954  19.589880     0.15 (  69->  76)    0.14 (  69->  75)    0.09 (  65->  75)
   8   3.676     337.3   0.014007   0.012901  -71.963898  -68.789575     0.15 (  70->  75)    0.14 (  70->  76)    0.13 (  72->  75)
   9   3.717     333.5   0.078800   0.069170  -33.614489  -33.130884     0.46 (  74->  78)    0.10 (  71->  75)    0.08 (  72->  75)
  10   3.826     324.1   0.334416   0.294759  426.989348  383.820259     0.35 (  71->  75)    0.26 (  74->  78)    0.06 (  72->  76)
  11   3.942     314.5   0.041028   0.037022  -97.102319  -92.043920     0.19 (  70->  75)    0.10 (  69->  75)    0.09 (  71->  75)
  12   4.024     308.1   0.006364   0.006184  -1.934385   2.445637     0.58 (  74->  80)    0.13 (  74->  79)    0.04 (  65->  75)
  13   4.051     306.0   0.083507   0.078013  -10.296737  -2.886867     0.17 (  66->  75)    0.10 (  66->  76)    0.10 (  70->  75)
  14   4.177     296.8   0.097687   0.085636  176.792651  156.775007     0.23 (  74->  82)    0.10 (  73->  76)    0.06 (  71->  75)
  15   4.200     295.2   0.034967   0.030191   6.931512  18.281741     0.58 (  74->  82)    0.06 (  73->  76)    0.03 (  74->  81)
  16   4.210     294.5   0.060738   0.054906  161.658234  150.602557     0.27 (  66->  75)    0.14 (  66->  76)    0.05 (  70->  75)
  17   4.228     293.2   0.040071   0.035040  -32.086291  -29.278179     0.13 (  67->  75)    0.13 (  64->  75)    0.12 (  63->  75)
  18   4.327     286.5   0.121770   0.106796  -186.140032  -168.506004     0.17 (  73->  77)    0.06 (  65->  75)    0.05 (  63->  75)
  19   4.366     284.0   0.058189   0.048722  102.322945  90.190173     0.14 (  71->  76)    0.11 (  73->  76)    0.07 (  63->  75)
  20   4.394     282.2   0.243112   0.209097  -174.154809  -138.901914     0.14 (  72->  76)    0.11 (  72->  77)    0.07 (  71->  76)
  21   4.433     279.7   0.257710   0.224855  121.952329  127.742404     0.09 (  74->  81)    0.08 (  71->  76)    0.07 (  73->  77)
  22   4.466     277.6   0.104595   0.091718  -135.552467  -114.185562     0.13 (  65->  80)    0.13 (  64->  80)    0.08 (  65->  79)
  23   4.518     274.4   0.061887   0.052302  17.976973  26.537326     0.36 (  74->  81)    0.07 (  71->  76)    0.07 (  74->  84)
  24   4.581     270.6   0.137350   0.120287  -18.250537  -13.785669     0.16 (  71->  76)    0.06 (  68->  77)    0.05 (  74->  81)
  25   4.633     267.6   0.279410   0.243173  -43.953214  -18.782932     0.30 (  68->  77)    0.06 (  73->  77)    0.06 (  72->  76)
  26   4.709     263.3   0.329051   0.275515  -324.895778  -306.402694     0.15 (  73->  78)    0.15 (  71->  78)    0.12 (  72->  78)
  27   4.752     260.9   0.490565   0.409986  -58.943806  -55.790425     0.12 (  73->  77)    0.11 (  73->  80)    0.09 (  72->  79)
  28   4.788     259.0   0.233090   0.196105  156.991872  150.069736     0.10 (  72->  80)    0.09 (  73->  79)    0.07 (  72->  77)
  29   4.820     257.2   0.046043   0.041064  -149.830007  -127.880947     0.11 (  74->  81)    0.11 (  71->  76)    0.09 (  72->  76)
  30   4.884     253.9   0.085689   0.067466  214.746978  186.498345     0.33 (  74->  83)    0.06 (  70->  77)    0.05 (  62->  78)
  31   4.913     252.4   0.070240   0.060493  -2.427249   0.073458     0.11 (  73->  80)    0.08 (  72->  77)    0.08 (  73->  79)
  32   4.958     250.1   0.012776   0.009998  -4.866529  -5.758705     0.12 (  74->  83)    0.10 (  62->  78)    0.08 (  74->  85)
  33   4.994     248.3   0.012942   0.010622  -45.199517  -42.170131     0.10 (  70->  76)    0.10 (  74->  85)    0.07 (  74->  83)

-----------------------------------------------------------------------------
         ABSORPTION SPECTRUM VIA TRANSITION ELECTRIC DIPOLE MOMENTS
-----------------------------------------------------------------------------
State   Energy  Wavelength   fosc         T2         TX        TY        TZ  
        (cm-1)    (nm)                  (au**2)     (au)      (au)      (au) 
-----------------------------------------------------------------------------
   0   17274.9    578.9   1.288319148  24.55183   1.75756   4.39568   1.46316
   1   21084.6    474.3   0.299323044   4.67358   0.82777  -1.83017   0.79927
   2   24507.2    408.0   0.015096468   0.20279   0.25998   0.30183   0.21001
   3   26031.3    384.2   0.015331407   0.19389   0.15681  -0.21067  -0.35344
   4   27000.9    370.4   0.058712309   0.71586   0.06152  -0.80732  -0.24557
   5   27399.2    365.0   0.129982678   1.56179  -0.24275  -1.04741  -0.63702
   6   27957.3    357.7   0.063436053   0.74699  -0.26250   0.67011   0.47857
   7   29165.8    342.9   0.002492556   0.02813   0.05569  -0.12980  -0.09048
   8   29649.0    337.3   0.014007143   0.15553  -0.28774   0.22706   0.14553
   9   29980.6    333.5   0.078799945   0.86529   0.27359  -0.88890   0.01716
  10   30858.0    324.1   0.334416387   3.56776  -0.54951   0.81836  -1.61124
  11   31794.0    314.5   0.041027599   0.42482  -0.51890   0.06747   0.38860
  12   32457.5    308.1   0.006363984   0.06455  -0.07936   0.22831  -0.07826
  13   32674.7    306.0   0.083506735   0.84137   0.10245   0.89845   0.15384
  14   33688.1    296.8   0.097687447   0.95464   0.52068   0.45130   0.69272
  15   33871.7    295.2   0.034967060   0.33986  -0.10053   0.57408   0.01374
  16   33954.0    294.5   0.060737823   0.58890  -0.10589   0.31405  -0.69214
  17   34104.3    293.2   0.040071491   0.38681  -0.06147   0.14186  -0.60242
  18   34900.8    286.5   0.121769571   1.14863  -1.03052   0.22817   0.18597
  19   35214.8    284.0   0.058188842   0.54399  -0.29054  -0.36519  -0.57115
  20   35439.6    282.2   0.243111692   2.25836  -0.83535  -0.25151  -1.22364
  21   35757.4    279.7   0.257709718   2.37268   0.03452   1.53624   0.10702
  22   36024.7    277.6   0.104594696   0.95584   0.50580  -0.00734   0.83663
  23   36438.0    274.4   0.061887198   0.55914   0.05911  -0.62523   0.40588
  24   36951.6    270.6   0.137349542   1.22368   0.23094  -0.80452   0.72326
  25   37368.0    267.6   0.279409544   2.46160  -0.13370   0.33170  -1.52764
  26   37978.3    263.3   0.329050755   2.85235   0.44322   0.48158  -1.55692
  27   38324.7    260.9   0.490565122   4.21399  -0.40738  -0.40982  -1.96979
  28   38614.3    259.0   0.233090136   1.98724   0.32924   0.82453   1.09498
  29   38875.3    257.2   0.046043089   0.38991  -0.39489   0.44461  -0.19052
  30   39391.2    253.9   0.085688521   0.71614   0.36443  -0.34320   0.68231
  31   39625.5    252.4   0.070240005   0.58356   0.38345   0.26079   0.60706
  32   39985.8    250.1   0.012775984   0.10519   0.02194   0.28277   0.15732
  33   40276.8    248.3   0.012942045   0.10578   0.23894   0.21795  -0.03450

-----------------------------------------------------------------------------
         ABSORPTION SPECTRUM VIA TRANSITION VELOCITY DIPOLE MOMENTS
-----------------------------------------------------------------------------
State   Energy  Wavelength   fosc         P2         PX        PY        PZ  
        (cm-1)    (nm)                  (au**2)     (au)      (au)      (au) 
-----------------------------------------------------------------------------
   0   17274.9    578.9   1.524854123   0.18003   0.14994   0.37587   0.12756
   1   21084.6    474.3   0.318048043   0.04583   0.08179  -0.18228   0.07693
   2   24507.2    408.0   0.018215628   0.00305   0.02998   0.03948   0.02436
   3   26031.3    384.2   0.015157593   0.00270   0.01928  -0.02607  -0.04056
   4   27000.9    370.4   0.064077184   0.01182   0.00534  -0.10242  -0.03613
   5   27399.2    365.0   0.132737632   0.02486  -0.03066  -0.13280  -0.07925
   6   27957.3    357.7   0.061792519   0.01181  -0.03238   0.08707   0.05637
   7   29165.8    342.9   0.002160868   0.00043   0.00898  -0.01481  -0.01143
   8   29649.0    337.3   0.012900663   0.00261  -0.03636   0.03189   0.01660
   9   29980.6    333.5   0.069170201   0.01417   0.03617  -0.11342   0.00108
  10   30858.0    324.1   0.294759279   0.06216  -0.07356   0.10604  -0.21333
  11   31794.0    314.5   0.037022233   0.00804  -0.07140   0.00943   0.05346
  12   32457.5    308.1   0.006184023   0.00137  -0.01004   0.03467  -0.00831
  13   32674.7    306.0   0.078013269   0.01742   0.01442   0.12903   0.02378
  14   33688.1    296.8   0.085635722   0.01972   0.07212   0.06892   0.09882
  15   33871.7    295.2   0.030190506   0.00699  -0.00979   0.08267   0.00767
  16   33954.0    294.5   0.054905543   0.01274  -0.01767   0.04681  -0.10118
  17   34104.3    293.2   0.035040068   0.00817  -0.00601   0.02228  -0.08738
  18   34900.8    286.5   0.106795599   0.02547  -0.15234   0.03806   0.02859
  19   35214.8    284.0   0.048721989   0.01173  -0.04344  -0.05376  -0.08336
  20   35439.6    282.2   0.209097269   0.05065  -0.12386  -0.03480  -0.18465
  21   35757.4    279.7   0.224854532   0.05495   0.00504   0.23361   0.01878
  22   36024.7    277.6   0.091718371   0.02258   0.07583  -0.00290   0.12970
  23   36438.0    274.4   0.052301742   0.01303   0.00573  -0.09674   0.06029
  24   36951.6    270.6   0.120286628   0.03038   0.03709  -0.12733   0.11309
  25   37368.0    267.6   0.243172714   0.06210  -0.02097   0.05683  -0.24173
  26   37978.3    263.3   0.275515377   0.07151   0.07071   0.07536  -0.24665
  27   38324.7    260.9   0.409986061   0.10739  -0.06534  -0.06545  -0.31438
  28   38614.3    259.0   0.196104699   0.05175   0.05121   0.13311   0.17724
  29   38875.3    257.2   0.041064463   0.01091  -0.06275   0.07769  -0.03062
  30   39391.2    253.9   0.067465805   0.01816   0.05803  -0.05284   0.10956
  31   39625.5    252.4   0.060493374   0.01638   0.06248   0.04423   0.10258
  32   39985.8    250.1   0.009997566   0.00273   0.00408   0.04658   0.02337
  33   40276.8    248.3   0.010621935   0.00292   0.04072   0.03500  -0.00637

-------------------------------------------------------------------
                             CD SPECTRUM
-------------------------------------------------------------------
State   Energy Wavelength       R         MX        MY        MZ   
        (cm-1)   (nm)       (1e40*cgs)   (au)      (au)      (au)  
-------------------------------------------------------------------
   0   17274.9    578.9    -346.34149   1.04125   2.87487  -8.88335
   1   21084.6    474.3    277.75621   2.12621   1.97576   0.84783
   2   24507.2    408.0    -17.28229   0.27577   0.21963  -0.30793
   3   26031.3    384.2    -19.93901  -0.80981  -0.13145  -0.52027
   4   27000.9    370.4    -30.05959   0.35577  -0.52943   1.31035
   5   27399.2    365.0     55.92749  -1.55035  -1.18764   2.91601
   6   27957.3    357.7    100.19310   0.86589   0.03870  -0.46739
   7   29165.8    342.9     19.73195  -0.46838   0.27986   0.23542
   8   29649.0    337.3    -71.96390  -1.07594   0.13235  -0.23602
   9   29980.6    333.5    -33.61449   1.61231   0.35382   0.93202
  10   30858.0    324.1    426.98935  -2.66497  -3.78841   0.10896
  11   31794.0    314.5    -97.10232   0.79251  -0.63146   2.22792
  12   32457.5    308.1     -1.93439  -0.28430  -0.27494  -0.61869
  13   32674.7    306.0    -10.29674  -0.87745   0.62579  -2.78647
  14   33688.1    296.8    176.79265   1.58422   1.82904  -3.46504
  15   33871.7    295.2      6.93151  -0.34527  -0.08599  -1.07357
  16   33954.0    294.5    161.65823  -1.41253  -1.87414   0.35657
  17   34104.3    293.2    -32.08629   0.62496  -1.32313  -0.60130
  18   34900.8    286.5    -186.14003  -0.60637  -1.35596   2.54976
  19   35214.8    284.0    102.32294  -1.29423  -1.33492   2.27190
  20   35439.6    282.2    -174.15481  -3.44586  -2.78313   2.32068
  21   35757.4    279.7    121.95233   0.48524  -0.08353  -3.79154
  22   36024.7    277.6    -135.55247   2.70603   1.50754  -0.93541
  23   36438.0    274.4     17.97697   1.22658   0.93554   1.07463
  24   36951.6    270.6    -18.25054   0.71178   1.91623   2.01128
  25   37368.0    267.6    -43.95321  -1.31968  -3.61746  -0.79203
  26   37978.3    263.3    -324.89578   4.17124  -4.87701  -1.20636
  27   38324.7    260.9    -58.94381  -3.94217  -3.51758   1.42019
  28   38614.3    259.0    156.99187   1.71995   1.75291  -2.44534
  29   38875.3    257.2    -149.83001  -2.28067  -0.71171  -0.27006
  30   39391.2    253.9    214.74698   0.75381   2.05351  -0.70493
  31   39625.5    252.4     -2.42725   0.90372   1.79945  -1.32690
  32   39985.8    250.1     -4.86653  -0.64691   0.41787  -0.52963
  33   40276.8    248.3    -45.19952   0.63123   0.08143  -0.67164

sTD-DFT done

Total run time:        1.611 sec

           *** ORCA-CIS/TD-DFT FINISHED WITHOUT ERROR ***

-------------------------   --------------------
FINAL SINGLE POINT ENERGY     -4474.974471329208
-------------------------   --------------------


                            ***************************************
                            *     ORCA property calculations      *
                            ***************************************

                                    ---------------------
                                    Active property flags
                                    ---------------------
   (+) Dipole Moment


------------------------------------------------------------------------------
                       ORCA ELECTRIC PROPERTIES CALCULATION
------------------------------------------------------------------------------

Dipole Moment Calculation                       ... on
Quadrupole Moment Calculation                   ... off
Polarizability Calculation                      ... off
GBWName                                         ... xtbopt.gbw
Electron density file                           ... xtbopt.scfp
The origin for moment calculation is the CENTER OF MASS  = (13.153847, -10.985595 -7.298730)

-------------
DIPOLE MOMENT
-------------
                                X             Y             Z
Electronic contribution:    -11.88118      -1.36082     -29.95854
Nuclear contribution   :     11.64822       2.87301      26.87803
                        -----------------------------------------
Total Dipole Moment    :     -0.23295       1.51219      -3.08050
                        -----------------------------------------
Magnitude (a.u.)       :      3.43955
Magnitude (Debye)      :      8.74263



--------------------
Rotational spectrum 
--------------------
 
Rotational constants in cm-1:     0.001702     0.000340     0.000297 
Rotational constants in MHz :    51.037258    10.191547     8.899366 

 Dipole components along the rotational axes: 
x,y,z [a.u.] :    -0.538805    -3.157963     1.251973 
x,y,z [Debye]:    -1.369534    -8.026903     3.182261 

 

Timings for individual modules:

Sum of individual times         ...      324.963 sec (=   5.416 min)
GTO integral calculation        ...        2.073 sec (=   0.035 min)   0.6 %
SCF iterations                  ...      320.619 sec (=   5.344 min)  98.7 %
CIS module                      ...        2.271 sec (=   0.038 min)   0.7 %
                             ****ORCA TERMINATED NORMALLY****
TOTAL RUN TIME: 0 days 0 hours 5 minutes 25 seconds 800 msec
