
                                 *****************
                                 * O   R   C   A *
                                 *****************

           --- An Ab Initio, DFT and Semiempirical electronic structure package ---

                  #######################################################
                  #                        -***-                        #
                  #          Department of theory and spectroscopy      #
                  #               Directorship: Frank Neese             #
                  #        Max Planck Institute fuer Kohlenforschung    #
                  #                Kaiser Wilhelm Platz 1               #
                  #                 D-45470 Muelheim/Ruhr               #
                  #                      Germany                        #
                  #                                                     #
                  #                  All rights reserved                #
                  #                        -***-                        #
                  #######################################################


                         Program Version 4.2.0 -  RELEASE  -


 With contributions from (in alphabetic order):
   Daniel Aravena         : Magnetic Suceptibility
   Michael Atanasov       : Ab Initio Ligand Field Theory (pilot matlab implementation)
   Alexander A. Auer      : GIAO ZORA, VPT2
   Ute Becker             : Parallelization
   Giovanni Bistoni       : ED, misc. LED, open-shell LED, HFLED
   Martin Brehm           : Molecular dynamics
   Dmytro Bykov           : SCF Hessian
   Vijay G. Chilkuri      : MRCI spin determinant printing, contributions to CSF-ICE
   Dipayan Datta          : RHF DLPNO-CCSD density
   Achintya Kumar Dutta   : EOM-CC, STEOM-CC
   Dmitry Ganyushin       : Spin-Orbit,Spin-Spin,Magnetic field MRCI
   Miquel Garcia          : C-PCM Hessian, Gaussian charge scheme
   Yang Guo               : DLPNO-NEVPT2, CIM, IAO-localization
   Andreas Hansen         : Spin unrestricted coupled pair/coupled cluster methods
   Benjamin Helmich-Paris : CASSCF linear response (MC-RPA)
   Lee Huntington         : MR-EOM, pCC
   Robert Izsak           : Overlap fitted RIJCOSX, COSX-SCS-MP3, EOM
   Christian Kollmar      : KDIIS, OOCD, Brueckner-CCSD(T), CCSD density
   Simone Kossmann        : Meta GGA functionals, TD-DFT gradient, OOMP2, MP2 Hessian
   Martin Krupicka        : AUTO-CI
   Lucas Lang             : DCDCAS
   Dagmar Lenk            : GEPOL surface, SMD
   Dimitrios Liakos       : Extrapolation schemes; Compound Job, initial MDCI parallelization
   Dimitrios Manganas     : Further ROCIS development; embedding schemes
   Dimitrios Pantazis     : SARC Basis sets
   Taras Petrenko         : DFT Hessian,TD-DFT gradient, ASA, ECA, R-Raman, ABS, FL, XAS/XES, NRVS
   Peter Pinski           : DLPNO-MP2, DLPNO-MP2 Gradient
   Christoph Reimann      : Effective Core Potentials
   Marius Retegan         : Local ZFS, SOC
   Christoph Riplinger    : Optimizer, TS searches, QM/MM, DLPNO-CCSD(T), (RO)-DLPNO pert. Triples
   Tobias Risthaus        : Range-separated hybrids, TD-DFT gradient, RPA, STAB
   Michael Roemelt        : Original ROCIS implementation
   Masaaki Saitow         : Open-shell DLPNO-CCSD energy and density
   Barbara Sandhoefer     : DKH picture change effects
   Avijit Sen             : IP-ROCIS
   Kantharuban Sivalingam : CASSCF convergence, NEVPT2, FIC-MRCI
   Bernardo de Souza      : ESD, SOC TD-DFT
   Georgi Stoychev        : AutoAux, RI-MP2 NMR
   Willem Van den Heuvel  : Paramagnetic NMR
   Boris Wezisla          : Elementary symmetry handling
   Frank Wennmohs         : Technical directorship


 We gratefully acknowledge several colleagues who have allowed us to
 interface, adapt or use parts of their codes:
   Stefan Grimme, W. Hujo, H. Kruse,             : VdW corrections, initial TS optimization,
                  C. Bannwarth                     DFT functionals, gCP, sTDA/sTD-DF
   Ed Valeev, F. Pavosevic, A. Kumar             : LibInt (2-el integral package), F12 methods
   Garnet Chan, S. Sharma, J. Yang, R. Olivares  : DMRG
   Ulf Ekstrom                                   : XCFun DFT Library
   Mihaly Kallay                                 : mrcc  (arbitrary order and MRCC methods)
   Andreas Klamt, Michael Diedenhofen            : otool_cosmo (COSMO solvation model)
   Jiri Pittner, Ondrej Demel                    : Mk-CCSD
   Frank Weinhold                                : gennbo (NPA and NBO analysis)
   Christopher J. Cramer and Donald G. Truhlar   : smd solvation model
   Lars Goerigk                                  : TD-DFT with DH, B97 family of functionals
   V. Asgeirsson, H. Jonsson                     : NEB implementation
   FAccTs GmbH                                   : IRC, NEB, NEB-TS, Multilevel, MM, QM/MM, CI optimization
   S Lehtola, MJT Oliveira, MAL Marques          : LibXC Library


 Your calculation uses the libint2 library for the computation of 2-el integrals
 For citations please refer to: http://libint.valeyev.net

 Your ORCA version has been built with support for libXC version: 4.2.3
 For citations please refer to: https://tddft.org/programs/libxc/

 This ORCA versions uses:
   CBLAS   interface :  Fast vector & matrix operations
   LAPACKE interface :  Fast linear algebra routines
   SCALAPACK package :  Parallel linear algebra routines


XCFun DFT library Copyright 2009-2010 Ulf Ekstrom and contributors.
See http://admol.org/xcfun for more information. This is free soft-
ware; see the source code for copying conditions. There is ABSOLUTELY
NO WARRANTY; not even for MERCHANTABILITY or FITNESS FOR A PARTICULAR
PURPOSE. For details see the documentation. Scientific users of this 
library should cite U. Ekstrom, L. Visscher, R. Bast, A. J. Thorvald-
sen and K. Ruud; J.Chem.Theor.Comp. 2010, DOI: 10.1021/ct100117s
XCFun Version 0.99 
----- Orbital basis set information -----
Your calculation utilizes the basis: def2-SVP
   F. Weigend and R. Ahlrichs, Phys. Chem. Chem. Phys. 7, 3297 (2005).

----- AuxJ basis set information -----
Your calculation utilizes the auxiliary basis: def2/J
   F. Weigend, Phys. Chem. Chem. Phys. 8, 1057 (2006).

================================================================================
                                        WARNINGS
                       Please study these warnings very carefully!
================================================================================

INFO   : Checking CIS options ...

WARNING: CIS/ROCIS methods need fully converged wavefunctions
  ===> : Setting SCFConvForced true
         You can overwrite this default with %scf ConvForced false 


INFO   : the flag for use of LIBINT has been found!

================================================================================
                                       INPUT FILE
================================================================================
NAME = xtbopt.inp
|  1> # ORCA input file
|  2> # SCF done       -241.449040203439          0.002064791929
|  3> ! CAM-B3LYP def2-SVP def2/J RIJCOSX Grid4 TightSCF
|  4> %maxcore 5000
|  5> %tddft
|  6>     Mode sTDDFT
|  7>     Ethresh 5.0
|  8>     maxcore 5000
|  9> end
| 10> 
| 11> %pal
| 12>   nprocs 6
| 13>   end
| 14> * xyz 0 1
| 15>    C        4.24918         2.45116         2.20583
| 16>    C        3.72403         3.51160         3.12871
| 17>    O        4.11810         4.65146         3.18497
| 18>    C        2.61703         2.86766         3.84763
| 19>    C        2.56431         1.51079         3.51527
| 20>    C        3.65148         1.18479         2.60457
| 21>    C        4.10044        -0.06733         2.29329
| 22>    C        5.24676        -0.34034         1.51991
| 23>    N        6.17570        -0.63757         0.91333
| 24>    C        3.50538        -1.26414         2.75303
| 25>    N        3.06917        -2.27175         3.08555
| 26>    C        1.55926         0.68857         4.04426
| 27>    C        0.63366         1.24012         4.89030
| 28>    C        0.66152         2.60652         5.24876
| 29>    C        1.67782         3.45411         4.71867
| 30>    C        1.69954         4.81819         5.07406
| 31>    C        0.74980         5.32249         5.91976
| 32>    C       -0.25455         4.49254         6.44294
| 33>    C       -0.29802         3.16411         6.11705
| 34>    C        4.98003         2.81792         1.14305
| 35>    C        5.35413         2.04135        -0.02626
| 36>    C        4.43502         1.39034        -0.86085
| 37>    C        2.97957         1.36262        -0.64300
| 38>    O        2.34414         1.87078         0.23802
| 39>    S        2.21122         0.38981        -1.93537
| 40>    C        3.77855         0.03053        -2.74831
| 41>    O        3.85923        -0.66195        -3.71860
| 42>    C        4.85451         0.70380        -2.00794
| 43>    C        6.19725         0.62732        -2.39102
| 44>    C        7.11380         1.27001        -1.55189
| 45>    C        6.69856         1.95554        -0.41075
| 46>    C        7.78405         2.52162         0.40188
| 47>    O        7.69218         3.09618         1.44668
| 48>    S        9.34345         2.20064        -0.42127
| 49>    C        8.56877         1.32304        -1.78747
| 50>    O        9.19565         0.89435        -2.71084
| 51>    C        6.62500        -0.05557        -3.62010
| 52>    C        7.42926        -1.16365        -3.55647
| 53>    C        7.89342        -1.74396        -4.75273
| 54>    C        8.77471        -2.80123        -4.97094
| 55>    C        9.40007        -3.65893        -3.93171
| 56>    C        9.10686        -5.15538        -4.18251
| 57>    N        9.20868        -5.86184        -2.92825
| 58>    C       10.91322        -3.38592        -3.82046
| 59>    N       11.45889        -4.04642        -2.64382
| 60>    C        8.98133        -2.88133        -6.39913
| 61>    C        9.80564        -3.64125        -7.14785
| 62>    C        9.88875        -3.47064        -8.62257
| 63>    C        8.89938        -2.51939        -9.20868
| 64>    C        8.09781        -1.74881        -8.44362
| 65>    C        8.13726        -1.86473        -7.03775
| 66>    C        7.49283        -1.16632        -6.02034
| 67>    C        6.63064        -0.05556        -6.04677
| 68>    C        6.21341         0.48804        -4.86811
| 69>    C        9.83250        -4.82528        -9.27862
| 70>    C       10.80648        -5.29969       -10.04016
| 71>    C       10.81341        -6.62342       -10.65643
| 72>    C       10.89569        -6.75968       -12.04554
| 73>    C       10.86517        -5.60285       -12.94747
| 74>    O       10.76289        -4.44465       -12.65919
| 75>    S       10.98725        -6.18989       -14.63879
| 76>    C       11.05386        -7.91778       -14.14820
| 77>    O       11.13481        -8.80310       -14.95340
| 78>    C       10.99873        -8.00216       -12.68241
| 79>    C       11.03335        -9.19244       -11.93918
| 80>    C       10.91323        -9.05466       -10.55040
| 81>    C       10.80621        -7.81178        -9.91805
| 82>    C       10.78619        -7.88517        -8.44786
| 83>    O       10.71056        -6.99397        -7.65005
| 84>    S       10.89934        -9.60685        -7.95156
| 85>    C       11.01091       -10.20266        -9.63962
| 86>    O       11.15592       -11.35565        -9.92206
| 87>    C       11.17376       -10.50617       -12.54323
| 88>    C       12.11888       -10.91523       -13.40335
| 89>    C       11.92772       -12.19562       -14.16209
| 90>    O       11.15472       -13.07673       -13.87333
| 91>    C       12.81941       -12.07765       -15.32460
| 92>    C       13.58836       -10.91549       -15.21432
| 93>    C       13.28979       -10.24828       -13.95692
| 94>    C       14.04769        -9.28385       -13.35558
| 95>    C       13.83152        -8.78308       -12.05604
| 96>    N       13.73702        -8.34373       -10.99947
| 97>    C       15.19349        -8.69346       -13.93504
| 98>    N       16.12121        -8.15919       -14.34689
| 99>    C       14.48808       -10.55797       -16.22848
|100>    C       14.61095       -11.37761       -17.31892
|101>    C       13.86291       -12.56881       -17.45230
|102>    C       12.93135       -12.93493       -16.43695
|103>    C       12.17676       -14.11683       -16.58109
|104>    C       12.34502       -14.90885       -17.68394
|105>    C       13.26674       -14.55717       -18.68259
|106>    C       14.00856       -13.41250       -18.57135
|107>    H        1.50264        -0.35449         3.77971
|108>    H       -0.15125         0.62108         5.30044
|109>    H        2.47375         5.44750         4.66464
|110>    H        0.76560         6.36756         6.19062
|111>    H       -0.99611         4.91281         7.10595
|112>    H       -1.06948         2.52347         6.51887
|113>    H        5.31768         3.85113         1.14492
|114>    H        7.71135        -1.57636        -2.59985
|115>    H        8.94976        -3.41734        -2.96386
|116>    H        9.78926        -5.53813        -4.95684
|117>    H        8.08161        -5.26330        -4.55500
|118>    H       10.14310        -5.74305        -2.54690
|119>    H        8.98949        -6.84436        -3.02815
|120>    H       11.06540        -2.29315        -3.81352
|121>    H       11.42741        -3.79075        -4.69603
|122>    H       11.08416        -3.62134        -1.80135
|123>    H       12.46726        -3.94223        -2.61860
|124>    H       10.44579        -4.40306        -6.72939
|125>    H       10.88991        -3.05937        -8.83507
|126>    H        8.88801        -2.45671       -10.28582
|127>    H        7.41730        -1.04168        -8.89450
|128>    H        6.32284         0.36861        -6.99032
|129>    H        5.57323         1.35767        -4.86306
|130>    H        8.93907        -5.39985        -9.08103
|131>    H       11.67083        -4.69054       -10.27463
|132>    H       10.41574       -11.23910       -12.28441
|133>    H       15.06338        -9.64924       -16.16145
|134>    H       15.29823       -11.11505       -18.11019
|135>    H       11.47109       -14.37754       -15.80838
|136>    H       11.76714       -15.81415       -17.79372
|137>    H       13.38474       -15.19819       -19.54357
|138>    H       14.71737       -13.13920       -19.33934
|139> *
|140> 
|141>                          ****END OF INPUT****
================================================================================

                       ****************************
                       * Single Point Calculation *
                       ****************************

---------------------------------
CARTESIAN COORDINATES (ANGSTROEM)
---------------------------------
  C      4.249180    2.451160    2.205830
  C      3.724030    3.511600    3.128710
  O      4.118100    4.651460    3.184970
  C      2.617030    2.867660    3.847630
  C      2.564310    1.510790    3.515270
  C      3.651480    1.184790    2.604570
  C      4.100440   -0.067330    2.293290
  C      5.246760   -0.340340    1.519910
  N      6.175700   -0.637570    0.913330
  C      3.505380   -1.264140    2.753030
  N      3.069170   -2.271750    3.085550
  C      1.559260    0.688570    4.044260
  C      0.633660    1.240120    4.890300
  C      0.661520    2.606520    5.248760
  C      1.677820    3.454110    4.718670
  C      1.699540    4.818190    5.074060
  C      0.749800    5.322490    5.919760
  C     -0.254550    4.492540    6.442940
  C     -0.298020    3.164110    6.117050
  C      4.980030    2.817920    1.143050
  C      5.354130    2.041350   -0.026260
  C      4.435020    1.390340   -0.860850
  C      2.979570    1.362620   -0.643000
  O      2.344140    1.870780    0.238020
  S      2.211220    0.389810   -1.935370
  C      3.778550    0.030530   -2.748310
  O      3.859230   -0.661950   -3.718600
  C      4.854510    0.703800   -2.007940
  C      6.197250    0.627320   -2.391020
  C      7.113800    1.270010   -1.551890
  C      6.698560    1.955540   -0.410750
  C      7.784050    2.521620    0.401880
  O      7.692180    3.096180    1.446680
  S      9.343450    2.200640   -0.421270
  C      8.568770    1.323040   -1.787470
  O      9.195650    0.894350   -2.710840
  C      6.625000   -0.055570   -3.620100
  C      7.429260   -1.163650   -3.556470
  C      7.893420   -1.743960   -4.752730
  C      8.774710   -2.801230   -4.970940
  C      9.400070   -3.658930   -3.931710
  C      9.106860   -5.155380   -4.182510
  N      9.208680   -5.861840   -2.928250
  C     10.913220   -3.385920   -3.820460
  N     11.458890   -4.046420   -2.643820
  C      8.981330   -2.881330   -6.399130
  C      9.805640   -3.641250   -7.147850
  C      9.888750   -3.470640   -8.622570
  C      8.899380   -2.519390   -9.208680
  C      8.097810   -1.748810   -8.443620
  C      8.137260   -1.864730   -7.037750
  C      7.492830   -1.166320   -6.020340
  C      6.630640   -0.055560   -6.046770
  C      6.213410    0.488040   -4.868110
  C      9.832500   -4.825280   -9.278620
  C     10.806480   -5.299690  -10.040160
  C     10.813410   -6.623420  -10.656430
  C     10.895690   -6.759680  -12.045540
  C     10.865170   -5.602850  -12.947470
  O     10.762890   -4.444650  -12.659190
  S     10.987250   -6.189890  -14.638790
  C     11.053860   -7.917780  -14.148200
  O     11.134810   -8.803100  -14.953400
  C     10.998730   -8.002160  -12.682410
  C     11.033350   -9.192440  -11.939180
  C     10.913230   -9.054660  -10.550400
  C     10.806210   -7.811780   -9.918050
  C     10.786190   -7.885170   -8.447860
  O     10.710560   -6.993970   -7.650050
  S     10.899340   -9.606850   -7.951560
  C     11.010910  -10.202660   -9.639620
  O     11.155920  -11.355650   -9.922060
  C     11.173760  -10.506170  -12.543230
  C     12.118880  -10.915230  -13.403350
  C     11.927720  -12.195620  -14.162090
  O     11.154720  -13.076730  -13.873330
  C     12.819410  -12.077650  -15.324600
  C     13.588360  -10.915490  -15.214320
  C     13.289790  -10.248280  -13.956920
  C     14.047690   -9.283850  -13.355580
  C     13.831520   -8.783080  -12.056040
  N     13.737020   -8.343730  -10.999470
  C     15.193490   -8.693460  -13.935040
  N     16.121210   -8.159190  -14.346890
  C     14.488080  -10.557970  -16.228480
  C     14.610950  -11.377610  -17.318920
  C     13.862910  -12.568810  -17.452300
  C     12.931350  -12.934930  -16.436950
  C     12.176760  -14.116830  -16.581090
  C     12.345020  -14.908850  -17.683940
  C     13.266740  -14.557170  -18.682590
  C     14.008560  -13.412500  -18.571350
  H      1.502640   -0.354490    3.779710
  H     -0.151250    0.621080    5.300440
  H      2.473750    5.447500    4.664640
  H      0.765600    6.367560    6.190620
  H     -0.996110    4.912810    7.105950
  H     -1.069480    2.523470    6.518870
  H      5.317680    3.851130    1.144920
  H      7.711350   -1.576360   -2.599850
  H      8.949760   -3.417340   -2.963860
  H      9.789260   -5.538130   -4.956840
  H      8.081610   -5.263300   -4.555000
  H     10.143100   -5.743050   -2.546900
  H      8.989490   -6.844360   -3.028150
  H     11.065400   -2.293150   -3.813520
  H     11.427410   -3.790750   -4.696030
  H     11.084160   -3.621340   -1.801350
  H     12.467260   -3.942230   -2.618600
  H     10.445790   -4.403060   -6.729390
  H     10.889910   -3.059370   -8.835070
  H      8.888010   -2.456710  -10.285820
  H      7.417300   -1.041680   -8.894500
  H      6.322840    0.368610   -6.990320
  H      5.573230    1.357670   -4.863060
  H      8.939070   -5.399850   -9.081030
  H     11.670830   -4.690540  -10.274630
  H     10.415740  -11.239100  -12.284410
  H     15.063380   -9.649240  -16.161450
  H     15.298230  -11.115050  -18.110190
  H     11.471090  -14.377540  -15.808380
  H     11.767140  -15.814150  -17.793720
  H     13.384740  -15.198190  -19.543570
  H     14.717370  -13.139200  -19.339340

----------------------------
CARTESIAN COORDINATES (A.U.)
----------------------------
  NO LB      ZA    FRAG     MASS         X           Y           Z
   0 C     6.0000    0    12.011    8.029786    4.632021    4.168415
   1 C     6.0000    0    12.011    7.037397    6.635962    5.912405
   2 O     8.0000    0    15.999    7.782081    8.789986    6.018721
   3 C     6.0000    0    12.011    4.945470    5.419092    7.270967
   4 C     6.0000    0    12.011    4.845844    2.854979    6.642898
   5 C     6.0000    0    12.011    6.900297    2.238929    4.921924
   6 C     6.0000    0    12.011    7.748709   -0.127235    4.333690
   7 C     6.0000    0    12.011    9.914939   -0.643149    2.872214
   8 N     7.0000    0    14.007   11.670382   -1.204833    1.725944
   9 C     6.0000    0    12.011    6.624208   -2.388878    5.202473
  10 N     7.0000    0    14.007    5.799891   -4.292985    5.830844
  11 C     6.0000    0    12.011    2.946574    1.301209    7.642544
  12 C     6.0000    0    12.011    1.197444    2.343487    9.241328
  13 C     6.0000    0    12.011    1.250092    4.925609    9.918719
  14 C     6.0000    0    12.011    3.170620    6.527322    8.916994
  15 C     6.0000    0    12.011    3.211665    9.105060    9.588584
  16 C     6.0000    0    12.011    1.416917   10.058048   11.186725
  17 C     6.0000    0    12.011   -0.481030    8.489670   12.175392
  18 C     6.0000    0    12.011   -0.563176    5.979301   11.559549
  19 C     6.0000    0    12.011    9.410893    5.325097    2.160051
  20 C     6.0000    0    12.011   10.117839    3.857592   -0.049624
  21 C     6.0000    0    12.011    8.380973    2.627362   -1.626771
  22 C     6.0000    0    12.011    5.630571    2.574979   -1.215094
  23 O     8.0000    0    15.999    4.429783    3.535262    0.449793
  24 S    16.0000    0    32.060    4.178600    0.736634   -3.657319
  25 C     6.0000    0    12.011    7.140425    0.057693   -5.193553
  26 O     8.0000    0    15.999    7.292888   -1.250904   -7.027136
  27 C     6.0000    0    12.011    9.173694    1.329989   -3.794457
  28 C     6.0000    0    12.011   11.711105    1.185463   -4.518373
  29 C     6.0000    0    12.011   13.443134    2.399971   -2.932647
  30 C     6.0000    0    12.011   12.658444    3.695435   -0.776205
  31 C     6.0000    0    12.011   14.709723    4.765171    0.759443
  32 O     8.0000    0    15.999   14.536114    5.850932    2.733829
  33 S    16.0000    0    32.060   17.656562    4.158607   -0.796085
  34 C     6.0000    0    12.011   16.192629    2.500183   -3.377829
  35 O     8.0000    0    15.999   17.377260    1.690077   -5.122745
  36 C     6.0000    0    12.011   12.519436   -0.105012   -6.840998
  37 C     6.0000    0    12.011   14.039267   -2.198980   -6.720754
  38 C     6.0000    0    12.011   14.916402   -3.295607   -8.981358
  39 C     6.0000    0    12.011   16.581799   -5.293558   -9.393715
  40 C     6.0000    0    12.011   17.763558   -6.914376   -7.429855
  41 C     6.0000    0    12.011   17.209471   -9.742256   -7.903798
  42 N     7.0000    0    14.007   17.401883  -11.077272   -5.533591
  43 C     6.0000    0    12.011   20.622997   -6.398462   -7.219623
  44 N     7.0000    0    14.007   21.654164   -7.646626   -4.996096
  45 C     6.0000    0    12.011   16.972254   -5.444925  -12.092603
  46 C     6.0000    0    12.011   18.529974   -6.880965  -13.507479
  47 C     6.0000    0    12.011   18.687029   -6.558559  -16.294296
  48 C     6.0000    0    12.011   16.817391   -4.760957  -17.401883
  49 C     6.0000    0    12.011   15.302643   -3.304772  -15.956129
  50 C     6.0000    0    12.011   15.377193   -3.523829  -13.299420
  51 C     6.0000    0    12.011   14.159397   -2.204025  -11.376794
  52 C     6.0000    0    12.011   12.530094   -0.104993  -11.426739
  53 C     6.0000    0    12.011   11.741643    0.922262   -9.199395
  54 C     6.0000    0    12.011   18.580732   -9.118458  -17.534051
  55 C     6.0000    0    12.011   20.421288  -10.014963  -18.973153
  56 C     6.0000    0    12.011   20.434383  -12.516450  -20.137734
  57 C     6.0000    0    12.011   20.589870  -12.773944  -22.762772
  58 C     6.0000    0    12.011   20.532196  -10.587852  -24.467172
  59 O     8.0000    0    15.999   20.338915   -8.399171  -23.922402
  60 S    16.0000    0    32.060   20.762893  -11.697197  -27.663304
  61 C     6.0000    0    12.011   20.888768  -14.962436  -26.736223
  62 O     8.0000    0    15.999   21.041741  -16.635448  -28.257831
  63 C     6.0000    0    12.011   20.784588  -15.121891  -23.966282
  64 C     6.0000    0    12.011   20.850010  -17.371194  -22.561780
  65 C     6.0000    0    12.011   20.623016  -17.110828  -19.937367
  66 C     6.0000    0    12.011   20.420777  -14.762125  -18.742398
  67 C     6.0000    0    12.011   20.382945  -14.900812  -15.964142
  68 O     8.0000    0    15.999   20.240025  -13.216688  -14.456499
  69 S    16.0000    0    32.060   20.596768  -18.154316  -15.026271
  70 C     6.0000    0    12.011   20.807604  -19.280233  -18.216242
  71 O     8.0000    0    15.999   21.081634  -21.459069  -18.749976
  72 C     6.0000    0    12.011   21.115346  -19.853784  -23.703270
  73 C     6.0000    0    12.011   22.901364  -20.626795  -25.328661
  74 C     6.0000    0    12.011   22.540124  -23.046382  -26.762472
  75 O     8.0000    0    15.999   21.079366  -24.711438  -26.216794
  76 C     6.0000    0    12.011   24.225174  -22.823451  -28.959297
  77 C     6.0000    0    12.011   25.678279  -20.627287  -28.750898
  78 C     6.0000    0    12.011   25.114063  -19.366443  -26.374756
  79 C     6.0000    0    12.011   26.546287  -17.543934  -25.238389
  80 C     6.0000    0    12.011   26.137785  -16.597616  -22.782614
  81 N     7.0000    0    14.007   25.959206  -15.767365  -20.785986
  82 C     6.0000    0    12.011   28.711535  -16.428259  -26.333409
  83 N     7.0000    0    14.007   30.464672  -15.418635  -27.111693
  84 C     6.0000    0    12.011   27.378503  -19.951672  -30.667383
  85 C     6.0000    0    12.011   27.610694  -21.500567  -32.728016
  86 C     6.0000    0    12.011   26.197103  -23.751609  -32.980067
  87 C     6.0000    0    12.011   24.436710  -24.443475  -31.061334
  88 C     6.0000    0    12.011   23.010742  -26.676943  -31.333719
  89 C     6.0000    0    12.011   23.328707  -28.173643  -33.417804
  90 C     6.0000    0    12.011   25.070505  -27.509065  -35.304979
  91 C     6.0000    0    12.011   26.472342  -25.345952  -35.094765
  92 H     1.0000    0     1.008    2.839578   -0.669889    7.142617
  93 H     1.0000    0     1.008   -0.285821    1.173671   10.016380
  94 H     1.0000    0     1.008    4.674710   10.294283    8.814892
  95 H     1.0000    0     1.008    1.446774   12.032945   11.698576
  96 H     1.0000    0     1.008   -1.882375    9.283865   13.428299
  97 H     1.0000    0     1.008   -2.021024    4.768667   12.318879
  98 H     1.0000    0     1.008   10.048959    7.277581    2.163585
  99 H     1.0000    0     1.008   14.572340   -2.978889   -4.913004
 100 H     1.0000    0     1.008   16.912595   -6.457837   -5.600884
 101 H     1.0000    0     1.008   18.499020  -10.465549   -9.367070
 102 H     1.0000    0     1.008   15.272030   -9.946196   -8.607703
 103 H     1.0000    0     1.008   19.167681  -10.852792   -4.812943
 104 H     1.0000    0     1.008   16.987674  -12.933966   -5.722374
 105 H     1.0000    0     1.008   20.910576   -4.333425   -7.206508
 106 H     1.0000    0     1.008   21.594675   -7.163479   -8.874211
 107 H     1.0000    0     1.008   20.946027   -6.843341   -3.404058
 108 H     1.0000    0     1.008   23.559707   -7.449735   -4.948437
 109 H     1.0000    0     1.008   19.739682   -8.320578  -12.716704
 110 H     1.0000    0     1.008   20.578948   -5.781371  -16.695863
 111 H     1.0000    0     1.008   16.795905   -4.642509  -19.437383
 112 H     1.0000    0     1.008   14.016666   -1.968490  -16.808169
 113 H     1.0000    0     1.008   11.948436    0.696572  -13.209790
 114 H     1.0000    0     1.008   10.531878    2.565624   -9.189852
 115 H     1.0000    0     1.008   16.892394  -10.204238  -17.160660
 116 H     1.0000    0     1.008   22.054672   -8.863836  -19.416237
 117 H     1.0000    0     1.008   19.682896  -21.238821  -23.214171
 118 H     1.0000    0     1.008   28.465663  -18.234421  -30.540714
 119 H     1.0000    0     1.008   28.909465  -21.004400  -34.223299
 120 H     1.0000    0     1.008   21.677219  -27.169613  -29.873509
 121 H     1.0000    0     1.008   22.236672  -29.884413  -33.625258
 122 H     1.0000    0     1.008   25.293493  -28.720417  -36.931995
 123 H     1.0000    0     1.008   27.811799  -24.829490  -36.546056

--------------------------------
INTERNAL COORDINATES (ANGSTROEM)
--------------------------------
 C      0   0   0     0.000000000000     0.00000000     0.00000000
 C      1   0   0     1.500674185325     0.00000000     0.00000000
 O      2   1   0     1.207367869417   125.56111075     0.00000000
 C      2   1   3     1.468657104296   104.77208969   176.86467550
 C      4   2   1     1.397976668224   109.73133611     6.13835863
 C      5   4   2     1.455193835508   109.75811450     1.91582107
 C      6   5   4     1.366113031341   126.40276037   164.73774885
 C      7   6   5     1.409503681052   124.73835784   187.19165483
 N      8   7   6     1.148570630349   176.07951396   167.36940765
 C      7   6   5     1.413439580350   124.30578361     4.41912650
 N     10   7   6     1.147225621489   176.41534895   175.72865096
 C      5   4   2     1.402141808449   120.43080537   182.09018775
 C     12   5   4     1.369936656966   118.76430555     0.00000000
 C     13  12   5     1.412911430770   122.18906297   359.82389509
 C      4   2   1     1.408811452324   128.50899547   188.19360660
 C     15   4   2     1.409782982200   123.25512973   357.81583479
 C     16  15   4     1.368039855998   120.12050876   179.58807905
 C     17  16  15     1.404013261120   120.60144157     0.00000000
 C     18  17  16     1.368510211105   120.51740761     0.12768254
 C      1   2   3     1.340953372978   119.00320249   343.21130174
 C     20   1   2     1.452686356720   129.20501253   194.40465409
 C     21  20   1     1.401826551432   123.96138053    55.32823566
 C     22  21  20     1.471924496501   124.67661802   357.69132793
 O     23  22  21     1.199247310149   128.65847706     0.41463625
 S     23  22  21     1.790793465339   109.12762096   181.15967022
 C     25  23  22     1.801798238122    93.48025767   359.87893827
 O     26  25  23     1.194780522481   122.73257442   177.97673600
 C     22  21  20     1.401115448420   121.24329285   177.21069744
 C     28  22  21     1.398409877110   122.58500858   359.83838039
 C     29  28  22     1.399018761668   116.07990553     0.57034385
 C     30  29  28     1.394480597965   121.43853837   359.34402113
 C     31  30  29     1.469388520236   114.95963413   177.16125316
 O     32  31  30     1.195895618564   127.69842932   183.56539631
 S     32  31  30     1.792298089856   108.64800047     2.93437748
 C     30  29  28     1.474872136221   124.54194512   180.89486485
 O     35  30  29     1.195560875656   128.88324969     2.89162972
 C     29  28  22     1.469675631219   122.27410350   182.13817959
 C     37  29  28     1.370665608710   120.50363617   243.60397575
 C     38  37  29     1.408276318518   119.14946412   184.10720584
 C     39  38  37     1.393595178343   130.84853550   175.41956742
 C     40  39  38     1.485504430320   126.49230027     4.11107860
 C     41  40  39     1.545391648289   111.44991886   124.38570125
 N     42  41  40     1.443128958756   108.63839132   204.34556668
 C     41  40  39     1.541601097917   111.18864621   249.69612250
 N     44  41  40     1.455505990541   110.24014407   169.55995685
 C     40  39  38     1.445280080296   106.68936269   185.25857325
 C     46  40  39     1.348164315245   131.87029308   174.15134064
 C     47  46  40     1.486880668581   121.35366649   183.90585768
 C     48  47  46     1.492398904951   115.18864280   353.60711468
 C     49  48  47     1.349675814742   122.34485248     7.70948152
 C     50  49  48     1.411192476525   120.07996449   357.36518026
 C     51  50  49     1.392188802246   132.36833553   176.06147199
 C     52  51  50     1.406363366488   131.77948763   356.17989763
 C     53  52  51     1.363385942608   119.09594497   184.64435872
 C     48  47  46     1.506192283409   109.06984950   226.45658785
 C     55  48  47     1.324252642097   123.03943446   240.32564978
 C     56  55  48     1.460170486861   124.81815890   177.77019377
 C     57  56  55     1.398200049385   120.52647870   120.55539514
 C     58  57  56     1.467196252790   122.18609548   354.78560077
 O     59  58  57     1.197912265903   128.03658373   359.45308899
 S     59  58  57     1.794458924133   108.66562139   180.21787896
 C     61  59  58     1.797420176892    93.42564396     0.68311172
 O     62  61  59     1.199454644787   121.92603926   179.45383337
 C     58  57  56     1.399991853155   122.87260208   175.47626352
 C     64  58  57     1.403693647382   120.89778773   359.58632063
 C     65  64  58     1.400757663267   116.06768535     2.10139671
 C     66  65  64     1.398595902075   122.83608852   358.06050137
 C     67  66  65     1.472156760878   114.09601377   184.13912284
 O     68  67  66     1.198523313499   128.94400508   179.56341126
 S     68  67  66     1.795354737900   108.84538963   359.62612380
 C     66  65  64     1.468661155883   122.15770881   183.64633112
 O     71  66  65     1.195903923315   127.96781422   357.61578900
 C     65  64  58     1.452748389605   123.30149975   181.63513730
 C     73  65  64     1.341785494183   127.61159137    52.98282739
 C     74  73  65     1.500542263750   119.63892817   194.10906959
 O     75  74  73     1.207172800265   125.69231729   341.74807891
 C     75  74  73     1.469849474300   104.72305888   158.87915780
 C     77  75  74     1.397877550610   109.75759207     5.97799563
 C     78  77  75     1.454430468947   109.67401351     2.58990472
 C     79  78  77     1.366070067932   126.19531380   163.35085958
 C     80  79  78     1.409363073661   124.86523723   188.96095137
 N     81  80  79     1.148171954630   175.63447064   162.52435872
 C     80  79  78     1.413220394595   124.35100891     6.09837157
 N     83  80  79     1.147052419813   175.98519934   168.38770652
 C     78  77  75     1.402083141044   120.52540038   182.12169999
 C     85  78  77     1.369659140115   118.74020813   359.15877929
 C     86  85  78     1.412908880997   122.15320822   359.92637045
 C     77  75  74     1.408822942921   128.59635349   187.28282696
 C     88  77  75     1.409634710732   123.25741512   358.33710064
 C     89  88  77     1.368168568013   120.12965035   180.54395794
 C     90  89  88     1.403762231754   120.60886245     0.00000000
 C     91  90  89     1.368554222126   120.50600737   359.73577006
 H     12   5   4     1.077574447776   120.84127024   178.97741402
 H     13  12   5     1.080513326757   119.64123475   179.55611174
 H     16  15   4     1.078451174880   118.68359085   359.75114943
 H     17  16  15     1.079715742453   120.11392804   180.09818503
 H     18  17  16     1.079870532332   119.33804655   180.21606467
 H     19  18  17     1.080291374399   120.64819026   179.96120708
 H     20   1   2     1.086983865336   115.33520797    12.57338772
 H     38  37  29     1.079363764724   120.23889728     3.35552738
 H     41  40  39     1.094476334463   108.54131120     7.75922792
 H     42  41  40     1.100797107282   109.46505770    80.00966276
 H     42  41  40     1.096144647845   109.14412938   322.17905308
 H     43  42  41     1.016208454501   109.49999699   300.64184539
 H     43  42  41     1.011617425957   111.98334506   177.74256148
 H     44  41  40     1.103337296070   108.13363427    45.42634529
 H     44  41  40     1.093115506202   109.77446224   287.97585250
 H     45  44  41     1.015318314717   110.02482462   293.16004979
 H     45  44  41     1.014052099944   110.25993368   174.55973124
 H     47  46  40     1.079469902406   123.03158082     3.69224875
 H     48  47  46     1.103005262227   106.53481605   111.77680511
 H     49  48  47     1.079022075261   115.85256159   185.51171063
 H     50  49  48     1.080009014499   120.75612241   177.64801796
 H     53  52  51     1.079327397688   120.10936915     3.42526084
 H     54  53  52     1.079866784284   120.43449771   178.31097151
 H     55  48  47     1.080458077808   115.43596311    59.82985465
 H     56  55  48     1.083116256872   120.66048926   356.01414396
 H     73  65  64     1.085711056267   116.35097147   234.23492585
 H     85  78  77     1.077614645316   120.83844434   178.29688096
 H     86  85  78     1.080462754980   119.64927132   179.85800260
 H     89  88  77     1.078434326744   118.66611336     0.56169672
 H     90  89  88     1.079613371907   120.10333808   179.97667834
 H     91  90  89     1.079869066508   119.35644407   179.87056888
 H     92  91  90     1.080237541562   120.63009198   180.09027361

---------------------------
INTERNAL COORDINATES (A.U.)
---------------------------
 C      0   0   0     0.000000000000     0.00000000     0.00000000
 C      1   0   0     2.835863226509     0.00000000     0.00000000
 O      2   1   0     2.281594616094   125.56111075     0.00000000
 C      2   1   3     2.775359711758   104.77208969   176.86467550
 C      4   2   1     2.641793044556   109.73133611     6.13835863
 C      5   4   2     2.749917820880   109.75811450     1.91582107
 C      6   5   4     2.581579497216   126.40276037   164.73774885
 C      7   6   5     2.663575941943   124.73835784   187.19165483
 N      8   7   6     2.170483936825   176.07951396   167.36940765
 C      7   6   5     2.671013713706   124.30578361     4.41912650
 N     10   7   6     2.167942238431   176.41534895   175.72865096
 C      5   4   2     2.649664018889   120.43080537   182.09018775
 C     12   5   4     2.588805102486   118.76430555     0.00000000
 C     13  12   5     2.670015655642   122.18906297   359.82389509
 C      4   2   1     2.662267819225   128.50899547   188.19360660
 C     15   4   2     2.664103744620   123.25512973   357.81583479
 C     16  15   4     2.585220668126   120.12050876   179.58807905
 C     17  16  15     2.653200551910   120.60144157     0.00000000
 C     18  17  16     2.586109510464   120.51740761     0.12768254
 C      1   2   3     2.534034633286   119.00320249   343.21130174
 C     20   1   2     2.745179372684   129.20501253   194.40465409
 C     21  20   1     2.649068269466   123.96138053    55.32823566
 C     22  21  20     2.781534188197   124.67661802   357.69132793
 O     23  22  21     2.266248983024   128.65847706     0.41463625
 S     23  22  21     3.384109211906   109.12762096   181.15967022
 C     25  23  22     3.404905218633    93.48025767   359.87893827
 O     26  25  23     2.257807977632   122.73257442   177.97673600
 C     22  21  20     2.647724479519   121.24329285   177.21069744
 C     28  22  21     2.642611690709   122.58500858   359.83838039
 C     29  28  22     2.643762315771   116.07990553     0.57034385
 C     30  29  28     2.635186429220   121.43853837   359.34402113
 C     31  30  29     2.776741887573   114.95963413   177.16125316
 O     32  31  30     2.259915203842   127.69842932   183.56539631
 S     32  31  30     3.386952540177   108.64800047     2.93437748
 C     30  29  28     2.787104420008   124.54194512   180.89486485
 O     35  30  29     2.259282631421   128.88324969     2.89162972
 C     29  28  22     2.777284448702   122.27410350   182.13817959
 C     37  29  28     2.590182621646   120.50363617   243.60397575
 C     38  37  29     2.661256562887   119.14946412   184.10720584
 C     39  38  37     2.633513228621   130.84853550   175.41956742
 C     40  39  38     2.807196544031   126.49230027     4.11107860
 C     41  40  39     2.920366984915   111.44991886   124.38570125
 N     42  41  40     2.727118507980   108.63839132   204.34556668
 C     41  40  39     2.913203882816   111.18864621   249.69612250
 N     44  41  40     2.750507708404   110.24014407   169.55995685
 C     40  39  38     2.731183538571   106.68936269   185.25857325
 C     46  40  39     2.547661339339   131.87029308   174.15134064
 C     47  46  40     2.809797257440   121.35366649   183.90585768
 C     48  47  46     2.820225212922   115.18864280   353.60711468
 C     49  48  47     2.550517659440   122.34485248     7.70948152
 C     50  49  48     2.666767302882   120.07996449   357.36518026
 C     51  50  49     2.630855562957   132.36833553   176.06147199
 C     52  51  50     2.657641607442   131.77948763   356.17989763
 C     53  52  51     2.576426046366   119.09594497   184.64435872
 C     48  47  46     2.846290920668   109.06984950   226.45658785
 C     55  48  47     2.502474825684   123.03943446   240.32564978
 C     56  55  48     2.759322329002   124.81815890   177.77019377
 C     57  56  55     2.642215173773   120.52647870   120.55539514
 C     58  57  56     2.772599102488   122.18609548   354.78560077
 O     59  58  57     2.263726115021   128.03658373   359.45308899
 S     59  58  57     3.391035925182   108.66562139   180.21787896
 C     61  59  58     3.396631881911    93.42564396     0.68311172
 O     62  61  59     2.266640788706   121.92603926   179.45383337
 C     58  57  56     2.645601192184   122.87260208   175.47626352
 C     64  58  57     2.652596569477   120.89778773   359.58632063
 C     65  64  58     2.647048363565   116.06768535     2.10139671
 C     66  65  64     2.642963226946   122.83608852   358.06050137
 C     67  66  65     2.781973104261   114.09601377   184.13912284
 O     68  67  66     2.264880827632   128.94400508   179.56341126
 S     68  67  66     3.392728767869   108.84538963   359.62612380
 C     66  65  64     2.775367368147   122.15770881   183.64633112
 O     71  66  65     2.259930897547   127.96781422   357.61578900
 C     65  64  58     2.745296597849   123.30149975   181.63513730
 C     73  65  64     2.535607114474   127.61159137    52.98282739
 C     74  73  65     2.835613930862   119.63892817   194.10906959
 O     75  74  73     2.281225988820   125.69231729   341.74807891
 C     75  74  73     2.777612964515   104.72305888   158.87915780
 C     77  75  74     2.641605739410   109.75759207     5.97799563
 C     78  77  75     2.748475267140   109.67401351     2.58990472
 C     79  78  77     2.581498308139   126.19531380   163.35085958
 C     80  79  78     2.663310232481   124.86523723   188.96095137
 N     81  80  79     2.169730548901   175.63447064   162.52435872
 C     80  79  78     2.670599512657   124.35100891     6.09837157
 N     83  80  79     2.167614934699   175.98519934   168.38770652
 C     78  77  75     2.649553153561   120.52540038   182.12169999
 C     85  78  77     2.588280671639   118.74020813   359.15877929
 C     86  85  78     2.670010837269   122.15320822   359.92637045
 C     77  75  74     2.662289533305   128.59635349   187.28282696
 C     88  77  75     2.663823552152   123.25741512   358.33710064
 C     89  88  77     2.585463898585   120.12965035   180.54395794
 C     90  89  88     2.652726175158   120.60886245     0.00000000
 C     91  90  89     2.586192679241   120.50600737   359.73577006
 H     12   5   4     2.036320595208   120.84127024   178.97741402
 H     13  12   5     2.041874271623   119.64123475   179.55611174
 H     16  15   4     2.037977369329   118.68359085   359.75114943
 H     17  16  15     2.040367055719   120.11392804   180.09818503
 H     18  17  16     2.040659566200   119.33804655   180.21606467
 H     19  18  17     2.041454842451   120.64819026   179.96120708
 H     20   1   2     2.054101817475   115.33520797    12.57338772
 H     38  37  29     2.039701914207   120.23889728     3.35552738
 H     41  40  39     2.068260532193   108.54131120     7.75922792
 H     42  41  40     2.080205061775   109.46505770    80.00966276
 H     42  41  40     2.071413187591   109.14412938   322.17905308
 H     43  42  41     1.920355673983   109.49999699   300.64184539
 H     43  42  41     1.911679887361   111.98334506   177.74256148
 H     44  41  40     2.085005322914   108.13363427    45.42634529
 H     44  41  40     2.065688939465   109.77446224   287.97585250
 H     45  44  41     1.918673553570   110.02482462   293.16004979
 H     45  44  41     1.916280754421   110.25993368   174.55973124
 H     47  46  40     2.039902485358   123.03158082     3.69224875
 H     48  47  46     2.084377869883   106.53481605   111.77680511
 H     49  48  47     2.039056214698   115.85256159   185.51171063
 H     50  49  48     2.040921259570   120.75612241   177.64801796
 H     53  52  51     2.039633190468   120.10936915     3.42526084
 H     54  53  52     2.040652483415   120.43449771   178.31097151
 H     55  48  47     2.041769866240   115.43596311    59.82985465
 H     56  55  48     2.046793096686   120.66048926   356.01414396
 H     73  65  64     2.051696556915   116.35097147   234.23492585
 H     85  78  77     2.036396557550   120.83844434   178.29688096
 H     86  85  78     2.041778704815   119.64927132   179.85800260
 H     89  88  77     2.037945530966   118.66611336     0.56169672
 H     90  89  88     2.040173603423   120.10333808   179.97667834
 H     91  90  89     2.040656796193   119.35644407   179.87056888
 H     92  91  90     2.041353113133   120.63009198   180.09027361

---------------------
BASIS SET INFORMATION
---------------------
There are 5 groups of distinct atoms

 Group   1 Type C   : 7s4p1d contracted to 3s2p1d pattern {511/31/1}
 Group   2 Type O   : 7s4p1d contracted to 3s2p1d pattern {511/31/1}
 Group   3 Type N   : 7s4p1d contracted to 3s2p1d pattern {511/31/1}
 Group   4 Type S   : 10s7p1d contracted to 4s3p1d pattern {5311/511/1}
 Group   5 Type H   : 4s1p contracted to 2s1p pattern {31/1}

Atom   0C    basis set group =>   1
Atom   1C    basis set group =>   1
Atom   2O    basis set group =>   2
Atom   3C    basis set group =>   1
Atom   4C    basis set group =>   1
Atom   5C    basis set group =>   1
Atom   6C    basis set group =>   1
Atom   7C    basis set group =>   1
Atom   8N    basis set group =>   3
Atom   9C    basis set group =>   1
Atom  10N    basis set group =>   3
Atom  11C    basis set group =>   1
Atom  12C    basis set group =>   1
Atom  13C    basis set group =>   1
Atom  14C    basis set group =>   1
Atom  15C    basis set group =>   1
Atom  16C    basis set group =>   1
Atom  17C    basis set group =>   1
Atom  18C    basis set group =>   1
Atom  19C    basis set group =>   1
Atom  20C    basis set group =>   1
Atom  21C    basis set group =>   1
Atom  22C    basis set group =>   1
Atom  23O    basis set group =>   2
Atom  24S    basis set group =>   4
Atom  25C    basis set group =>   1
Atom  26O    basis set group =>   2
Atom  27C    basis set group =>   1
Atom  28C    basis set group =>   1
Atom  29C    basis set group =>   1
Atom  30C    basis set group =>   1
Atom  31C    basis set group =>   1
Atom  32O    basis set group =>   2
Atom  33S    basis set group =>   4
Atom  34C    basis set group =>   1
Atom  35O    basis set group =>   2
Atom  36C    basis set group =>   1
Atom  37C    basis set group =>   1
Atom  38C    basis set group =>   1
Atom  39C    basis set group =>   1
Atom  40C    basis set group =>   1
Atom  41C    basis set group =>   1
Atom  42N    basis set group =>   3
Atom  43C    basis set group =>   1
Atom  44N    basis set group =>   3
Atom  45C    basis set group =>   1
Atom  46C    basis set group =>   1
Atom  47C    basis set group =>   1
Atom  48C    basis set group =>   1
Atom  49C    basis set group =>   1
Atom  50C    basis set group =>   1
Atom  51C    basis set group =>   1
Atom  52C    basis set group =>   1
Atom  53C    basis set group =>   1
Atom  54C    basis set group =>   1
Atom  55C    basis set group =>   1
Atom  56C    basis set group =>   1
Atom  57C    basis set group =>   1
Atom  58C    basis set group =>   1
Atom  59O    basis set group =>   2
Atom  60S    basis set group =>   4
Atom  61C    basis set group =>   1
Atom  62O    basis set group =>   2
Atom  63C    basis set group =>   1
Atom  64C    basis set group =>   1
Atom  65C    basis set group =>   1
Atom  66C    basis set group =>   1
Atom  67C    basis set group =>   1
Atom  68O    basis set group =>   2
Atom  69S    basis set group =>   4
Atom  70C    basis set group =>   1
Atom  71O    basis set group =>   2
Atom  72C    basis set group =>   1
Atom  73C    basis set group =>   1
Atom  74C    basis set group =>   1
Atom  75O    basis set group =>   2
Atom  76C    basis set group =>   1
Atom  77C    basis set group =>   1
Atom  78C    basis set group =>   1
Atom  79C    basis set group =>   1
Atom  80C    basis set group =>   1
Atom  81N    basis set group =>   3
Atom  82C    basis set group =>   1
Atom  83N    basis set group =>   3
Atom  84C    basis set group =>   1
Atom  85C    basis set group =>   1
Atom  86C    basis set group =>   1
Atom  87C    basis set group =>   1
Atom  88C    basis set group =>   1
Atom  89C    basis set group =>   1
Atom  90C    basis set group =>   1
Atom  91C    basis set group =>   1
Atom  92H    basis set group =>   5
Atom  93H    basis set group =>   5
Atom  94H    basis set group =>   5
Atom  95H    basis set group =>   5
Atom  96H    basis set group =>   5
Atom  97H    basis set group =>   5
Atom  98H    basis set group =>   5
Atom  99H    basis set group =>   5
Atom 100H    basis set group =>   5
Atom 101H    basis set group =>   5
Atom 102H    basis set group =>   5
Atom 103H    basis set group =>   5
Atom 104H    basis set group =>   5
Atom 105H    basis set group =>   5
Atom 106H    basis set group =>   5
Atom 107H    basis set group =>   5
Atom 108H    basis set group =>   5
Atom 109H    basis set group =>   5
Atom 110H    basis set group =>   5
Atom 111H    basis set group =>   5
Atom 112H    basis set group =>   5
Atom 113H    basis set group =>   5
Atom 114H    basis set group =>   5
Atom 115H    basis set group =>   5
Atom 116H    basis set group =>   5
Atom 117H    basis set group =>   5
Atom 118H    basis set group =>   5
Atom 119H    basis set group =>   5
Atom 120H    basis set group =>   5
Atom 121H    basis set group =>   5
Atom 122H    basis set group =>   5
Atom 123H    basis set group =>   5
---------------------------------
AUXILIARY/J BASIS SET INFORMATION
---------------------------------
There are 5 groups of distinct atoms

 Group   1 Type C   : 12s5p4d2f1g contracted to 6s4p3d1f1g pattern {711111/2111/211/2/1}
 Group   2 Type O   : 12s5p4d2f1g contracted to 6s4p3d1f1g pattern {711111/2111/211/2/1}
 Group   3 Type N   : 12s5p4d2f1g contracted to 6s4p3d1f1g pattern {711111/2111/211/2/1}
 Group   4 Type S   : 14s5p5d2f1g contracted to 8s4p3d1f1g pattern {71111111/2111/311/2/1}
 Group   5 Type H   : 5s2p1d contracted to 3s1p1d pattern {311/2/1}

Atom   0C    basis set group =>   1
Atom   1C    basis set group =>   1
Atom   2O    basis set group =>   2
Atom   3C    basis set group =>   1
Atom   4C    basis set group =>   1
Atom   5C    basis set group =>   1
Atom   6C    basis set group =>   1
Atom   7C    basis set group =>   1
Atom   8N    basis set group =>   3
Atom   9C    basis set group =>   1
Atom  10N    basis set group =>   3
Atom  11C    basis set group =>   1
Atom  12C    basis set group =>   1
Atom  13C    basis set group =>   1
Atom  14C    basis set group =>   1
Atom  15C    basis set group =>   1
Atom  16C    basis set group =>   1
Atom  17C    basis set group =>   1
Atom  18C    basis set group =>   1
Atom  19C    basis set group =>   1
Atom  20C    basis set group =>   1
Atom  21C    basis set group =>   1
Atom  22C    basis set group =>   1
Atom  23O    basis set group =>   2
Atom  24S    basis set group =>   4
Atom  25C    basis set group =>   1
Atom  26O    basis set group =>   2
Atom  27C    basis set group =>   1
Atom  28C    basis set group =>   1
Atom  29C    basis set group =>   1
Atom  30C    basis set group =>   1
Atom  31C    basis set group =>   1
Atom  32O    basis set group =>   2
Atom  33S    basis set group =>   4
Atom  34C    basis set group =>   1
Atom  35O    basis set group =>   2
Atom  36C    basis set group =>   1
Atom  37C    basis set group =>   1
Atom  38C    basis set group =>   1
Atom  39C    basis set group =>   1
Atom  40C    basis set group =>   1
Atom  41C    basis set group =>   1
Atom  42N    basis set group =>   3
Atom  43C    basis set group =>   1
Atom  44N    basis set group =>   3
Atom  45C    basis set group =>   1
Atom  46C    basis set group =>   1
Atom  47C    basis set group =>   1
Atom  48C    basis set group =>   1
Atom  49C    basis set group =>   1
Atom  50C    basis set group =>   1
Atom  51C    basis set group =>   1
Atom  52C    basis set group =>   1
Atom  53C    basis set group =>   1
Atom  54C    basis set group =>   1
Atom  55C    basis set group =>   1
Atom  56C    basis set group =>   1
Atom  57C    basis set group =>   1
Atom  58C    basis set group =>   1
Atom  59O    basis set group =>   2
Atom  60S    basis set group =>   4
Atom  61C    basis set group =>   1
Atom  62O    basis set group =>   2
Atom  63C    basis set group =>   1
Atom  64C    basis set group =>   1
Atom  65C    basis set group =>   1
Atom  66C    basis set group =>   1
Atom  67C    basis set group =>   1
Atom  68O    basis set group =>   2
Atom  69S    basis set group =>   4
Atom  70C    basis set group =>   1
Atom  71O    basis set group =>   2
Atom  72C    basis set group =>   1
Atom  73C    basis set group =>   1
Atom  74C    basis set group =>   1
Atom  75O    basis set group =>   2
Atom  76C    basis set group =>   1
Atom  77C    basis set group =>   1
Atom  78C    basis set group =>   1
Atom  79C    basis set group =>   1
Atom  80C    basis set group =>   1
Atom  81N    basis set group =>   3
Atom  82C    basis set group =>   1
Atom  83N    basis set group =>   3
Atom  84C    basis set group =>   1
Atom  85C    basis set group =>   1
Atom  86C    basis set group =>   1
Atom  87C    basis set group =>   1
Atom  88C    basis set group =>   1
Atom  89C    basis set group =>   1
Atom  90C    basis set group =>   1
Atom  91C    basis set group =>   1
Atom  92H    basis set group =>   5
Atom  93H    basis set group =>   5
Atom  94H    basis set group =>   5
Atom  95H    basis set group =>   5
Atom  96H    basis set group =>   5
Atom  97H    basis set group =>   5
Atom  98H    basis set group =>   5
Atom  99H    basis set group =>   5
Atom 100H    basis set group =>   5
Atom 101H    basis set group =>   5
Atom 102H    basis set group =>   5
Atom 103H    basis set group =>   5
Atom 104H    basis set group =>   5
Atom 105H    basis set group =>   5
Atom 106H    basis set group =>   5
Atom 107H    basis set group =>   5
Atom 108H    basis set group =>   5
Atom 109H    basis set group =>   5
Atom 110H    basis set group =>   5
Atom 111H    basis set group =>   5
Atom 112H    basis set group =>   5
Atom 113H    basis set group =>   5
Atom 114H    basis set group =>   5
Atom 115H    basis set group =>   5
Atom 116H    basis set group =>   5
Atom 117H    basis set group =>   5
Atom 118H    basis set group =>   5
Atom 119H    basis set group =>   5
Atom 120H    basis set group =>   5
Atom 121H    basis set group =>   5
Atom 122H    basis set group =>   5
Atom 123H    basis set group =>   5


           ************************************************************
           *        Program running with 6 parallel MPI-processes     *
           *              working on a common directory               *
           ************************************************************
------------------------------------------------------------------------------
                           ORCA GTO INTEGRAL CALCULATION
                           -- RI-GTO INTEGRALS CHOSEN --
------------------------------------------------------------------------------

                         BASIS SET STATISTICS AND STARTUP INFO

Gaussian basis set:
 # of primitive gaussian shells          ... 1288
 # of primitive gaussian functions       ... 2480
 # of contracted shells                  ...  656
 # of contracted basis functions         ... 1464
 Highest angular momentum                ...    2
 Maximum contraction depth               ...    5
Auxiliary gaussian basis set:
 # of primitive gaussian shells          ... 2476
 # of primitive gaussian functions       ... 6980
 # of contracted shells                  ... 1548
 # of contracted aux-basis functions     ... 4868
 Highest angular momentum                ...    4
 Maximum contraction depth               ...    7
Ratio of auxiliary to basis functions    ...  3.33
Integral package used                  ... LIBINT
 One Electron integrals                  ... done
 Ordering auxiliary basis shells         ... done
 Integral threshhold             Thresh  ...  2.500e-11
 Primitive cut-off               TCut    ...  2.500e-12
 Pre-screening matrix                    ... done
 Shell pair data                         ... 
 Ordering of the shell pairs             ... done (   0.012 sec) 64033 of 215496 pairs
 Determination of significant pairs      ... done (   0.000 sec)
 Creation of shell pair data             ... done (   0.009 sec)
 Storage of shell pair data              ... done (   0.011 sec)
 Shell pair data done in (   0.032 sec)
 Computing two index integrals           ... done
 Cholesky decomposition of the V-matrix  ... done


Timings:
 Total evaluation time                   ...   3.677 sec (  0.061 min)
 One electron matrix time                ...   0.875 sec (  0.015 min) = 23.8%
 Schwartz matrix evaluation time         ...   0.978 sec (  0.016 min) = 26.6%
 Two index repulsion integral time       ...   0.678 sec (  0.011 min) = 18.4%
 Cholesky decomposition of V             ...   1.099 sec (  0.018 min) = 29.9%
 Three index repulsion integral time     ...   0.000 sec (  0.000 min) =  0.0%



           ************************************************************
           *        Program running with 6 parallel MPI-processes     *
           *              working on a common directory               *
           ************************************************************
-------------------------------------------------------------------------------
                                 ORCA SCF
-------------------------------------------------------------------------------

------------
SCF SETTINGS
------------
Hamiltonian:
 Density Functional     Method          .... DFT(GTOs)
 Exchange Functional    Exchange        .... WB88
 Correlation Functional Correlation     .... LYP
 LDA part of GGA corr.  LDAOpt          .... VWN-5
 Gradients option       PostSCFGGA      .... off
 Hybrid DFT is turned on
   Fraction HF Exchange ScalHFX         ....  0.190000
   Scaling of DF-GGA-X  ScalDFX         ....  0.350000
   Scaling of DF-GGA-C  ScalDFC         ....  0.810000
   Scaling of DF-LDA-C  ScalLDAC        ....  1.000000
   Perturbative correction              ....  0.000000
   Density functional embedding theory  .... OFF
 Long-range corrected/Screened/Range-Separated Hybrid DFT is turned on
   Amount of maximum screened exact exchange              ....  0.460000
   Range separation parameter mu (erf(mu*r12)/r12)        ....  0.330000
 RI-approximation to the Coulomb term is turned on
   Number of auxiliary basis functions  .... 4868
   RIJ-COSX (HFX calculated with COS-X)).... on


General Settings:
 Integral files         IntName         .... xtbopt
 Hartree-Fock type      HFTyp           .... RHF
 Total Charge           Charge          ....    0
 Multiplicity           Mult            ....    1
 Number of Electrons    NEL             ....  650
 Basis Dimension        Dim             .... 1464
 Nuclear Repulsion      ENuc            ....  15187.4169413696 Eh

Convergence Acceleration:
 DIIS                   CNVDIIS         .... on
   Start iteration      DIISMaxIt       ....    12
   Startup error        DIISStart       ....  0.200000
   # of expansion vecs  DIISMaxEq       ....     5
   Bias factor          DIISBfac        ....   1.050
   Max. coefficient     DIISMaxC        ....  10.000
 Newton-Raphson         CNVNR           .... off
 SOSCF                  CNVSOSCF        .... on
   Start iteration      SOSCFMaxIt      ....   150
   Startup grad/error   SOSCFStart      ....  0.003300
 Level Shifting         CNVShift        .... on
   Level shift para.    LevelShift      ....    0.2500
   Turn off err/grad.   ShiftErr        ....    0.0010
 Zerner damping         CNVZerner       .... off
 Static damping         CNVDamp         .... on
   Fraction old density DampFac         ....    0.7000
   Max. Damping (<1)    DampMax         ....    0.9800
   Min. Damping (>=0)   DampMin         ....    0.0000
   Turn off err/grad.   DampErr         ....    0.1000
 Fernandez-Rico         CNVRico         .... off

SCF Procedure:
 Maximum # iterations   MaxIter         ....   125
 SCF integral mode      SCFMode         .... Direct
   Integral package                     .... LIBINT
 Reset frequency        DirectResetFreq ....    20
 Integral Threshold     Thresh          ....  2.500e-11 Eh
 Primitive CutOff       TCut            ....  2.500e-12 Eh

Convergence Tolerance:
 Convergence Check Mode ConvCheckMode   .... Total+1el-Energy
 Convergence forced     ConvForced      .... 1
 Energy Change          TolE            ....  1.000e-08 Eh
 1-El. energy change                    ....  1.000e-05 Eh
 Orbital Gradient       TolG            ....  1.000e-05
 Orbital Rotation angle TolX            ....  1.000e-05
 DIIS Error             TolErr          ....  5.000e-07


Diagonalization of the overlap matrix:
Smallest eigenvalue                        ... 1.513e-04
Time for diagonalization                   ...    0.305 sec
Threshold for overlap eigenvalues          ... 1.000e-08
Number of eigenvalues below threshold      ... 0
Time for construction of square roots      ...    0.227 sec
Total time needed                          ...    0.536 sec

-------------------
DFT GRID GENERATION
-------------------

General Integration Accuracy     IntAcc      ...  4.670
Radial Grid Type                 RadialGrid  ... Gauss-Chebyshev
Angular Grid (max. acc.)         AngularGrid ... Lebedev-302
Angular grid pruning method      GridPruning ... 3 (G Style)
Weight generation scheme         WeightScheme... Becke
Basis function cutoff            BFCut       ...    1.0000e-11
Integration weight cutoff        WCut        ...    1.0000e-14
Grids for H and He will be reduced by one unit

# of grid points (after initial pruning)     ... 682648 (   0.0 sec)
# of grid points (after weights+screening)   ... 575660 (  10.3 sec)
nearest neighbour list constructed           ...    0.0 sec
Grid point re-assignment to atoms done       ...    0.1 sec
Grid point division into batches done        ...    1.7 sec
Reduced shell lists constructed in    3.1 sec

Total number of grid points                  ...   575660
Total number of batches                      ...     9058
Average number of points per batch           ...       63
Average number of grid points per atom       ...     4642
Average number of shells per batch           ...   105.68 (16.11%)
Average number of basis functions per batch  ...   226.40 (15.46%)
Average number of large shells per batch     ...    65.41 (61.89%)
Average number of large basis fcns per batch ...   141.29 (62.41%)
Maximum spatial batch extension              ...  18.33, 20.88, 17.65 au
Average spatial batch extension              ...   0.31,  0.30,  0.31 au

Time for grid setup =   13.941 sec

------------------------------
INITIAL GUESS: MODEL POTENTIAL
------------------------------
Loading Hartree-Fock densities                     ... done
Calculating cut-offs                               ... done
Setting up the integral package                    ... done
Initializing the effective Hamiltonian             ... done
Starting the Coulomb interaction                   ... done (   2.1 sec)
Reading the grid                                   ... done
Mapping shells                                     ... done
Starting the XC term evaluation                    ... done (   2.0 sec)
  promolecular density results
     # of electrons  =    649.983385673
     EX              =   -598.240033119
     EC              =    -22.442834222
     EX+EC           =   -620.682867342
Transforming the Hamiltonian                       ... done (   0.2 sec)
Diagonalizing the Hamiltonian                      ... done (   0.3 sec)
Back transforming the eigenvectors                 ... done (   0.1 sec)
Now organizing SCF variables                       ... done
                      ------------------
                      INITIAL GUESS DONE (  18.8 sec)
                      ------------------
--------------------
COSX GRID GENERATION
--------------------

General Integration Accuracy     IntAcc      ...  3.340
Radial Grid Type                 RadialGrid  ... Gauss-Chebyshev
Angular Grid (max. acc.)         AngularGrid ... Lebedev-50
Angular grid pruning method      GridPruning ... 3 (G Style)
Weight generation scheme         WeightScheme... Becke
Basis function cutoff            BFCut       ...    1.0000e-11
Integration weight cutoff        WCut        ...    1.0000e-14
Grids for H and He will be reduced by one unit

# of grid points (after initial pruning)     ...  64020 (   0.0 sec)
# of grid points (after weights+screening)   ...  56822 (   1.0 sec)
nearest neighbour list constructed           ...    0.0 sec
Grid point re-assignment to atoms done       ...    0.0 sec
Grid point division into batches done        ...    0.0 sec
Reduced shell lists constructed in    0.2 sec

Total number of grid points                  ...    56822
Total number of batches                      ...      956
Average number of points per batch           ...       59
Average number of grid points per atom       ...      458
Average number of shells per batch           ...   123.55 (18.83%)
Average number of basis functions per batch  ...   268.11 (18.31%)
Average number of large shells per batch     ...    76.27 (61.73%)
Average number of large basis fcns per batch ...   166.30 (62.03%)
Maximum spatial batch extension              ...  17.84, 16.35, 15.58 au
Average spatial batch extension              ...   0.70,  0.60,  0.76 au

Overlap Fitting                  UseSFitting ... on
Constructing numerical overlap ... done (      0.1 sec)
Inverting numerical overlap    ... done (      0.1 sec)
Obtaining analytic overlap     ... done (      0.0 sec)
Final contraction and storage  ... done (      0.1 sec)


General Integration Accuracy     IntAcc      ...  3.670
Radial Grid Type                 RadialGrid  ... Gauss-Chebyshev
Angular Grid (max. acc.)         AngularGrid ... Lebedev-50
Angular grid pruning method      GridPruning ... 3 (G Style)
Weight generation scheme         WeightScheme... Becke
Basis function cutoff            BFCut       ...    1.0000e-11
Integration weight cutoff        WCut        ...    1.0000e-14
Grids for H and He will be reduced by one unit

# of grid points (after initial pruning)     ...  79800 (   0.0 sec)
# of grid points (after weights+screening)   ...  70510 (   1.2 sec)
nearest neighbour list constructed           ...    0.0 sec
Grid point re-assignment to atoms done       ...    0.0 sec
Grid point division into batches done        ...    0.0 sec
Reduced shell lists constructed in    0.2 sec

Total number of grid points                  ...    70510
Total number of batches                      ...     1162
Average number of points per batch           ...       60
Average number of grid points per atom       ...      569
Average number of shells per batch           ...   120.41 (18.35%)
Average number of basis functions per batch  ...   259.96 (17.76%)
Average number of large shells per batch     ...    74.06 (61.51%)
Average number of large basis fcns per batch ...   161.49 (62.12%)
Maximum spatial batch extension              ...  17.69, 18.20, 18.45 au
Average spatial batch extension              ...   0.65,  0.58,  0.69 au

Overlap Fitting                  UseSFitting ... on
Constructing numerical overlap ... done (      0.1 sec)
Inverting numerical overlap    ... done (      0.1 sec)
Obtaining analytic overlap     ... done (      0.0 sec)
Final contraction and storage  ... done (      0.1 sec)


General Integration Accuracy     IntAcc      ...  4.010
Radial Grid Type                 RadialGrid  ... Gauss-Chebyshev
Angular Grid (max. acc.)         AngularGrid ... Lebedev-110
Angular grid pruning method      GridPruning ... 3 (G Style)
Weight generation scheme         WeightScheme... Becke
Basis function cutoff            BFCut       ...    1.0000e-11
Integration weight cutoff        WCut        ...    1.0000e-14
Grids for H and He will be reduced by one unit

# of grid points (after initial pruning)     ... 156628 (   0.0 sec)
# of grid points (after weights+screening)   ... 136569 (   2.5 sec)
nearest neighbour list constructed           ...    0.0 sec
Grid point re-assignment to atoms done       ...    0.0 sec
Grid point division into batches done        ...    0.1 sec
Reduced shell lists constructed in    0.5 sec

Total number of grid points                  ...   136569
Total number of batches                      ...     2203
Average number of points per batch           ...       61
Average number of grid points per atom       ...     1101
Average number of shells per batch           ...   116.26 (17.72%)
Average number of basis functions per batch  ...   250.69 (17.12%)
Average number of large shells per batch     ...    72.18 (62.09%)
Average number of large basis fcns per batch ...   157.17 (62.70%)
Maximum spatial batch extension              ...  16.59, 19.16, 20.04 au
Average spatial batch extension              ...   0.53,  0.47,  0.54 au

Overlap Fitting                  UseSFitting ... on
Constructing numerical overlap ... done (      0.2 sec)
Inverting numerical overlap    ... done (      0.1 sec)
Obtaining analytic overlap     ... done (      0.0 sec)
Final contraction and storage  ... done (      0.1 sec)

Time for X-Grid setup             =    6.985 sec
--------------
SCF ITERATIONS
--------------
ITER       Energy         Delta-E        Max-DP      RMS-DP      [F,P]     Damp
               ***  Starting incremental Fock matrix formation  ***
  0  -5429.3381147428   0.000000000000 0.11344187  0.00113478  0.2297651 0.7000
  1  -5430.1383621634  -0.800247420673 0.06533798  0.00074058  0.1160415 0.7000
                               ***Turning on DIIS***
  2  -5430.4472740747  -0.308911911272 0.07262229  0.00116505  0.0451671 0.0000
  3  -5431.0166939858  -0.569419911040 0.06296259  0.00054198  0.0611178 0.0000
  4  -5431.0929575312  -0.076263545399 0.01474144  0.00013793  0.0244185 0.0000
  5  -5431.1025987028  -0.009641171655 0.00532209  0.00004722  0.0034968 0.0000
                      *** Initiating the SOSCF procedure ***
                           *** Shutting down DIIS ***
                      *** Re-Reading the Fockian *** 
                      *** Removing any level shift *** 
ITER      Energy       Delta-E        Grad      Rot      Max-DP    RMS-DP
  6  -5431.10336991  -0.0007712110  0.001230  0.001230  0.002164  0.000026
               *** Restarting incremental Fock matrix formation ***
  7  -5431.10364537  -0.0002754581  0.000832  0.005531  0.002243  0.000026
  8  -5431.10378639  -0.0001410172  0.000632  0.006422  0.002510  0.000030
  9  -5431.10381139  -0.0000249980  0.000584  0.001404  0.001091  0.000012
 10  -5431.10384928  -0.0000378902  0.000169  0.000765  0.000671  0.000006
 11  -5431.10384860   0.0000006805  0.000169  0.000570  0.000386  0.000004
 12  -5431.10385292  -0.0000043182  0.000057  0.000535  0.000225  0.000002
 13  -5431.10385313  -0.0000002188  0.000026  0.000232  0.000128  0.000001
 14  -5431.10385335  -0.0000002202  0.000011  0.000147  0.000065  0.000001
 15  -5431.10385342  -0.0000000618  0.000007  0.000046  0.000036  0.000000
                  ***Gradient check signals convergence***
              ***Rediagonalizing the Fockian in SOSCF/NRSCF***

               *****************************************************
               *                     SUCCESS                       *
               *           SCF CONVERGED AFTER  16 CYCLES          *
               *****************************************************

Setting up the final grid:

General Integration Accuracy     IntAcc      ...  5.010
Radial Grid Type                 RadialGrid  ... Gauss-Chebyshev
Angular Grid (max. acc.)         AngularGrid ... Lebedev-434
Angular grid pruning method      GridPruning ... 3 (G Style)
Weight generation scheme         WeightScheme... Becke
Basis function cutoff            BFCut       ...    1.0000e-11
Integration weight cutoff        WCut        ...    1.0000e-14
Grids for H and He will be reduced by one unit

# of grid points (after initial pruning)     ... 1203320 (   0.1 sec)
# of grid points (after weights+screening)   ... 1011431 (  17.7 sec)
nearest neighbour list constructed           ...    0.0 sec
Grid point re-assignment to atoms done       ...    0.1 sec
Grid point division into batches done        ...    5.6 sec
Reduced shell lists constructed in    7.9 sec

Total number of grid points                  ...  1011431
Total number of batches                      ...    15866
Average number of points per batch           ...       63
Average number of grid points per atom       ...     8157
Average number of shells per batch           ...   103.41 (15.76%)
Average number of basis functions per batch  ...   221.17 (15.11%)
Average number of large shells per batch     ...    64.04 (61.93%)
Average number of large basis fcns per batch ...   138.19 (62.48%)
Maximum spatial batch extension              ...  19.37, 20.15, 18.01 au
Average spatial batch extension              ...   0.26,  0.24,  0.25 au

Final grid set up in   26.4 sec
Final integration                            ... done (   3.8 sec)
Change in XC energy                          ...    -0.000097445
Integrated number of electrons               ...   649.999816910
Previous integrated no of electrons          ...   649.999634900
Old exchange energy                            =   -166.276484423 Eh
New exchange energy                            =   -166.275341361 Eh
Exchange energy change after final integration =      0.001143062 Eh
Total energy after final integration           =  -5431.102807785 Eh
Final COS-X integration done in                =    88.633 sec

----------------
TOTAL SCF ENERGY
----------------

Total Energy       :        -5431.10280779 Eh         -147787.82079 eV

Components:
Nuclear Repulsion  :        15187.41694137 Eh          413270.62525 eV
Electronic Energy  :       -20618.51974915 Eh         -561058.44603 eV
One Electron Energy:       -37687.19453377 Eh        -1025520.69973 eV
Two Electron Energy:        17068.67478462 Eh          464462.25369 eV

Virial components:
Potential Energy   :       -10824.36496926 Eh         -294545.94524 eV
Kinetic Energy     :         5393.26216147 Eh          146758.12445 eV
Virial Ratio       :            2.00701628


DFT components:
N(Alpha)           :      324.999908455138 electrons
N(Beta)            :      324.999908455138 electrons
N(Total)           :      649.999816910277 electrons
E(XC)              :     -464.535968818200 Eh       
DFET-embed. en.    :        0.000000000000 Eh       

---------------
SCF CONVERGENCE
---------------

  Last Energy change         ...    1.3848e-08  Tolerance :   1.0000e-08
  Last MAX-Density change    ...    6.6613e-15  Tolerance :   1.0000e-07
  Last RMS-Density change    ...    3.2262e-17  Tolerance :   5.0000e-09
  Last Orbital Gradient      ...    1.7586e-06  Tolerance :   1.0000e-05
  Last Orbital Rotation      ...    5.9691e-06  Tolerance :   1.0000e-05

             **** THE GBW FILE WAS UPDATED (xtbopt.gbw) ****
             **** DENSITY FILE WAS UPDATED (xtbopt.scfp) ****
             **** ENERGY FILE WAS UPDATED (xtbopt.en.tmp) ****
             **** THE GBW FILE WAS UPDATED (xtbopt.gbw) ****
             **** DENSITY FILE WAS UPDATED (xtbopt.scfp) ****
----------------
ORBITAL ENERGIES
----------------

  NO   OCC          E(Eh)            E(eV) 
   0   2.0000     -88.963067     -2420.8081 
   1   2.0000     -88.959132     -2420.7011 
   2   2.0000     -88.952856     -2420.5303 
   3   2.0000     -88.950468     -2420.4653 
   4   2.0000     -19.256935      -524.0078 
   5   2.0000     -19.254220      -523.9340 
   6   2.0000     -19.254092      -523.9305 
   7   2.0000     -19.251621      -523.8632 
   8   2.0000     -19.247049      -523.7388 
   9   2.0000     -19.245909      -523.7078 
  10   2.0000     -19.242568      -523.6169 
  11   2.0000     -19.240510      -523.5609 
  12   2.0000     -19.228885      -523.2446 
  13   2.0000     -19.222956      -523.0832 
  14   2.0000     -14.432471      -392.7275 
  15   2.0000     -14.426925      -392.5766 
  16   2.0000     -14.425673      -392.5425 
  17   2.0000     -14.420201      -392.3936 
  18   2.0000     -14.379190      -391.2776 
  19   2.0000     -14.341664      -390.2565 
  20   2.0000     -10.420738      -283.5627 
  21   2.0000     -10.415397      -283.4174 
  22   2.0000     -10.415178      -283.4114 
  23   2.0000     -10.414147      -283.3834 
  24   2.0000     -10.410878      -283.2944 
  25   2.0000     -10.405986      -283.1613 
  26   2.0000     -10.404474      -283.1201 
  27   2.0000     -10.404448      -283.1194 
  28   2.0000     -10.378871      -282.4234 
  29   2.0000     -10.372604      -282.2529 
  30   2.0000     -10.359173      -281.8874 
  31   2.0000     -10.356019      -281.8016 
  32   2.0000     -10.352203      -281.6978 
  33   2.0000     -10.349099      -281.6133 
  34   2.0000     -10.348754      -281.6039 
  35   2.0000     -10.342780      -281.4414 
  36   2.0000     -10.341853      -281.4161 
  37   2.0000     -10.339800      -281.3603 
  38   2.0000     -10.338238      -281.3178 
  39   2.0000     -10.337551      -281.2991 
  40   2.0000     -10.336147      -281.2609 
  41   2.0000     -10.335819      -281.2519 
  42   2.0000     -10.333073      -281.1772 
  43   2.0000     -10.330313      -281.1021 
  44   2.0000     -10.329134      -281.0700 
  45   2.0000     -10.328475      -281.0521 
  46   2.0000     -10.328185      -281.0442 
  47   2.0000     -10.327105      -281.0148 
  48   2.0000     -10.326734      -281.0047 
  49   2.0000     -10.326574      -281.0004 
  50   2.0000     -10.322432      -280.8877 
  51   2.0000     -10.319819      -280.8166 
  52   2.0000     -10.319061      -280.7959 
  53   2.0000     -10.314224      -280.6643 
  54   2.0000     -10.313330      -280.6400 
  55   2.0000     -10.306225      -280.4466 
  56   2.0000     -10.305891      -280.4376 
  57   2.0000     -10.304208      -280.3918 
  58   2.0000     -10.303443      -280.3709 
  59   2.0000     -10.302949      -280.3575 
  60   2.0000     -10.300031      -280.2781 
  61   2.0000     -10.299242      -280.2566 
  62   2.0000     -10.298974      -280.2493 
  63   2.0000     -10.298373      -280.2330 
  64   2.0000     -10.298012      -280.2231 
  65   2.0000     -10.293731      -280.1067 
  66   2.0000     -10.293585      -280.1027 
  67   2.0000     -10.290584      -280.0210 
  68   2.0000     -10.290480      -280.0182 
  69   2.0000     -10.289943      -280.0036 
  70   2.0000     -10.289158      -279.9822 
  71   2.0000     -10.287953      -279.9494 
  72   2.0000     -10.286182      -279.9012 
  73   2.0000     -10.286164      -279.9008 
  74   2.0000     -10.285569      -279.8845 
  75   2.0000     -10.284607      -279.8584 
[...]
  91   38691.7    258.5   0.007634911   0.06496   0.22919   0.03480   0.10595
  92   38700.0    258.4   0.160147711   1.36234   0.10672  -0.49485  -1.05170
  93   38724.1    258.2   0.044140477   0.37526   0.15439   0.19125   0.56111
  94   38779.1    257.9   0.075716794   0.64279  -0.16956  -0.77921  -0.08292
  95   38849.5    257.4   0.021759665   0.18439   0.36002   0.21317   0.09663
  96   39098.7    255.8   0.015189435   0.12790   0.26207   0.08084   0.22952
  97   39420.8    253.7   0.014587008   0.12182  -0.31022   0.12870   0.09497
  98   39468.6    253.4   0.159708438   1.33215   0.81050  -0.64860  -0.50452
  99   39740.9    251.6   0.014975412   0.12406  -0.25233   0.10246   0.22335
 100   39898.2    250.6   0.009309071   0.07681  -0.18114   0.18487   0.09912
 101   39951.7    250.3   0.005561088   0.04582  -0.04085  -0.19576  -0.07639
 102   40055.6    249.7   0.069597851   0.57202   0.07718  -0.55849  -0.50413
 103   40134.2    249.2   0.157141148   1.28899   0.59510  -0.63192  -0.73179
 104   40153.0    249.0   0.009911070   0.08126   0.07768  -0.12332  -0.24499
 105   40212.9    248.7   0.003708184   0.03036  -0.09510   0.01515   0.14520

-----------------------------------------------------------------------------
         ABSORPTION SPECTRUM VIA TRANSITION VELOCITY DIPOLE MOMENTS
-----------------------------------------------------------------------------
State   Energy  Wavelength   fosc         P2         PX        PY        PZ  
        (cm-1)    (nm)                  (au**2)     (au)      (au)      (au) 
-----------------------------------------------------------------------------
   0    7767.8   1287.4   0.001433453   0.00008   0.00854   0.00162   0.00074
   1    9129.3   1095.4   0.000236405   0.00001   0.00120  -0.00326   0.00163
   2   12976.4    770.6   0.022405749   0.00199   0.02392  -0.03482   0.01423
   3   14377.2    695.5   0.016878192   0.00166  -0.01207   0.00242   0.03882
   4   15271.1    654.8   0.044811408   0.00468  -0.00967   0.00550   0.06748
   5   18701.4    534.7   0.043852985   0.00561   0.02774  -0.02899  -0.06321
   6   19708.6    507.4   0.040126659   0.00540  -0.01785   0.02655   0.06619
   7   21200.2    471.7   0.003663508   0.00053  -0.00501   0.01420  -0.01744
   8   21579.0    463.4   0.007143795   0.00105   0.00523  -0.01887   0.02589
   9   21836.8    457.9   0.004123069   0.00062  -0.01087  -0.00885  -0.02046
  10   22256.7    449.3   0.018079927   0.00275   0.03064  -0.01869  -0.03824
  11   22970.0    435.4   0.019237877   0.00302   0.01339  -0.02006  -0.04938
  12   23732.5    421.4   0.000367584   0.00006   0.00134  -0.00293  -0.00702
  13   25269.0    395.7   0.160876269   0.02778   0.01092   0.12442   0.11038
  14   25304.3    395.2   0.022143253   0.00383  -0.03301  -0.01640  -0.04971
  15   25907.1    386.0   0.027144123   0.00481   0.02840  -0.06194  -0.01277
  16   26137.9    382.6   0.046310383   0.00827  -0.04432   0.06368   0.04747
  17   26227.9    381.3   0.137338068   0.02462   0.08295  -0.10080  -0.08704
  18   26951.7    371.0   0.000837467   0.00015   0.00177   0.01202  -0.00257
  19   26999.5    370.4   0.023854366   0.00440  -0.03070   0.05129   0.02879
  20   27218.3    367.4   0.008925706   0.00166  -0.02810   0.02288   0.01863
  21   27417.7    364.7   0.023485549   0.00440   0.04639   0.04513   0.01456
  22   27516.6    363.4   0.006857717   0.00129   0.00138  -0.03443   0.01012
  23   27816.7    359.5   0.038715546   0.00736   0.02752  -0.04658  -0.06658
  24   27903.5    358.4   0.015558017   0.00297  -0.03861   0.02233   0.03127
  25   27997.6    357.2   0.013788146   0.00264   0.02806  -0.02115  -0.03746
  26   28249.1    354.0   0.038558758   0.00744   0.03850  -0.04795  -0.06053
  27   28396.3    352.2   0.071056440   0.01379  -0.09032   0.06709   0.03364
  28   28560.6    350.1   0.071942812   0.01404   0.02728  -0.09508  -0.06526
  29   29166.3    342.9   0.056156903   0.01119   0.04721  -0.00406  -0.09460
  30   29199.9    342.5   0.015630906   0.00312  -0.02951   0.00324   0.04731
  31   29486.6    339.1   0.018130141   0.00365   0.03220  -0.05098  -0.00427
  32   29658.2    337.2   0.216124991   0.04381  -0.08559   0.08734   0.16986
  33   29713.7    336.5   0.017644940   0.00358  -0.02869   0.00686  -0.05209
  34   30036.9    332.9   0.018075902   0.00371   0.05356   0.02472  -0.01519
  35   30076.1    332.5   0.021712973   0.00446   0.01917  -0.04279  -0.04758
  36   30205.8    331.1   0.044583707   0.00920  -0.08102   0.02585   0.04441
  37   30370.9    329.3   0.029321201   0.00609   0.07274   0.02819   0.00002
  38   30501.3    327.9   0.037443986   0.00781   0.00980   0.05596  -0.06766
  39   30731.9    325.4   0.017060052   0.00358  -0.00373   0.01197  -0.05853
  40   30847.2    324.2   0.121487583   0.02561  -0.05957  -0.11549   0.09342
  41   30963.2    323.0   0.025016871   0.00529   0.03755  -0.06131   0.01121
  42   31108.3    321.5   0.029342353   0.00624   0.04805  -0.00748  -0.06224
  43   31171.7    320.8   0.167434772   0.03567  -0.00666   0.14918   0.11564
  44   31553.8    316.9   0.124841708   0.02692   0.14056  -0.02229  -0.08166
  45   31855.6    313.9   0.069799054   0.01520  -0.08047   0.06566   0.06641
  46   32064.8    311.9   0.072940892   0.01598  -0.01596  -0.09603  -0.08068
  47   32152.9    311.0   0.292234041   0.06422   0.03680  -0.15634  -0.19602
  48   32177.2    310.8   0.066686549   0.01467   0.09944  -0.03525  -0.05945
  49   32525.1    307.5   0.002444681   0.00054   0.00950  -0.01393  -0.01609
  50   32554.1    307.2   0.015686511   0.00349   0.03968   0.01115  -0.04233
  51   32769.1    305.2   0.044282403   0.00992  -0.06197  -0.07796   0.00071
  52   32807.3    304.8   0.017697874   0.00397  -0.01164  -0.04545   0.04203
  53   33069.9    302.4   0.141792199   0.03205   0.10122  -0.03579  -0.14325
  54   33196.8    301.2   0.006252704   0.00142   0.03630  -0.00422   0.00911
  55   33341.2    299.9   0.067654038   0.01542  -0.08787   0.01538   0.08636
  56   33384.3    299.5   0.099253242   0.02265  -0.03248   0.14149   0.03964
  57   33402.9    299.4   0.057163490   0.01305   0.08991   0.06394   0.02964
  58   33467.5    298.8   0.005940144   0.00136   0.01181   0.03477  -0.00328
  59   33915.7    294.8   1.285881915   0.29806   0.16785  -0.36135  -0.37325
  60   34065.0    293.6   0.093054818   0.02166   0.08894   0.08436   0.08148
  61   34296.6    291.6   0.042510061   0.00996   0.06080  -0.06134  -0.05005
  62   34395.2    290.7   0.014655091   0.00345  -0.00254  -0.05221  -0.02669
  63   34486.3    290.0   0.007920608   0.00187  -0.02345   0.03368   0.01352
  64   34609.2    288.9   0.005981162   0.00141  -0.00815   0.02613   0.02580
  65   34903.3    286.5   0.000025890   0.00001  -0.00126   0.00135   0.00166
  66   35044.2    285.4   0.000690471   0.00017  -0.00357   0.00749  -0.00982
  67   35375.8    282.7   0.038579405   0.00933   0.08083   0.05020  -0.01654
  68   35480.1    281.8   0.027033167   0.00656  -0.02942   0.05712   0.04927
  69   35568.9    281.1   0.027167202   0.00660   0.03446  -0.00938  -0.07300
  70   35576.9    281.1   0.109215410   0.02656   0.06946  -0.05938  -0.13493
  71   35843.7    279.0   0.213786085   0.05237  -0.12213   0.10749   0.16095
  72   36019.8    277.6   0.075870060   0.01868  -0.08683   0.08993   0.05523
  73   36279.3    275.6   0.009096549   0.00226  -0.04163   0.01369   0.01830
  74   36470.7    274.2   0.010587026   0.00264   0.04711  -0.01686  -0.01165
  75   36779.7    271.9   0.094685167   0.02380   0.07292  -0.11715  -0.06899
  76   36939.6    270.7   0.053104973   0.01341   0.01909  -0.07664  -0.08467
  77   37215.0    268.7   0.034110187   0.00868   0.00502  -0.01431  -0.09190
  78   37350.1    267.7   0.062172053   0.01587   0.00276   0.08380   0.09403
  79   37413.5    267.3   0.083747754   0.02141  -0.01010  -0.01399   0.14532
  80   37501.9    266.7   0.019222099   0.00493  -0.00369  -0.06170   0.03325
  81   37558.8    266.2   0.083187695   0.02135   0.13956   0.04103   0.01392
  82   37828.1    264.4   0.000084830   0.00002   0.00227   0.00158  -0.00378
  83   37864.8    264.1   0.085084448   0.02202   0.10325  -0.00389  -0.10650
  84   37991.4    263.2   0.007843115   0.00204   0.03292  -0.02685  -0.01521
  85   38010.3    263.1   0.006474629   0.00168  -0.03668   0.00959   0.01564
  86   38338.9    260.8   0.008894478   0.00233   0.01946   0.03679  -0.02447
  87   38386.2    260.5   0.005031775   0.00132  -0.00894   0.01023   0.03370
  88   38454.6    260.0   0.004951250   0.00130   0.00168  -0.03439   0.01075
  89   38619.8    258.9   0.006924790   0.00183   0.02840  -0.02355  -0.02160
  90   38657.0    258.7   0.000687602   0.00018  -0.00946  -0.00170   0.00945
  91   38691.7    258.5   0.006221405   0.00165   0.03596   0.00704   0.01739
  92   38700.0    258.4   0.131721140   0.03484   0.01595  -0.08117  -0.16732
  93   38724.1    258.2   0.036395267   0.00963   0.02470   0.03293   0.08909
  94   38779.1    257.9   0.064783348   0.01717  -0.03072  -0.12626  -0.01685
  95   38849.5    257.4   0.017442041   0.00463   0.05725   0.03348   0.01525
  96   39098.7    255.8   0.013858217   0.00370   0.04390   0.01561   0.03914
  97   39420.8    253.7   0.012637996   0.00340  -0.05121   0.02270   0.01633
  98   39468.6    253.4   0.134960580   0.03641   0.13195  -0.11092  -0.08179
  99   39740.9    251.6   0.012755808   0.00346  -0.04255   0.01569   0.03752
 100   39898.2    250.6   0.008758890   0.00239  -0.03131   0.03184   0.01985
 101   39951.7    250.3   0.004684039   0.00128  -0.00834  -0.03122  -0.01532
 102   40055.6    249.7   0.056330413   0.01542   0.00951  -0.09213  -0.08272
 103   40134.2    249.2   0.130185267   0.03571   0.09779  -0.10568  -0.12238
 104   40153.0    249.0   0.007883821   0.00216   0.01272  -0.02041  -0.03981
 105   40212.9    248.7   0.002874686   0.00079  -0.01487   0.00190   0.02378

-------------------------------------------------------------------
                             CD SPECTRUM
-------------------------------------------------------------------
State   Energy Wavelength       R         MX        MY        MZ   
        (cm-1)   (nm)       (1e40*cgs)   (au)      (au)      (au)  
-------------------------------------------------------------------
   0    7767.8   1287.4     -0.93760   0.01578   0.00308   0.02173
   1    9129.3   1095.4     -0.00021   0.06294   0.04327   0.04366
   2   12976.4    770.6     -3.50864  -0.04931   0.13656   0.45030
   3   14377.2    695.5     -7.87352  -0.18467   0.33125   0.01255
   4   15271.1    654.8      6.28275  -0.31152   0.65832  -0.06292
   5   18701.4    534.7     -1.70831   0.22906  -0.49966   0.30995
   6   19708.6    507.4      9.04391  -0.34394   0.66059  -0.37373
   7   21200.2    471.7      4.91706  -0.55968  -0.48478  -0.12197
   8   21579.0    463.4      6.05921   0.77469   0.70636   0.20709
   9   21836.8    457.9     -5.57056  -0.02138  -0.16106  -0.02338
  10   22256.7    449.3      8.68511   0.13441  -0.25875   0.30933
  11   22970.0    435.4      3.84769   0.25604  -0.53546   0.28706
  12   23732.5    421.4     -0.46003   0.04510  -0.09345   0.00585
  13   25269.0    395.7     22.83344  -1.37697   3.15226  -3.52133
  14   25304.3    395.2    -13.92679   0.05789  -0.59280   0.01664
  15   25907.1    386.0      5.49071   0.69342   0.18262   0.95066
  16   26137.9    382.6     19.26750  -0.51111   0.09664  -0.86267
  17   26227.9    381.3     39.64614  -0.60775  -0.87567   0.64434
  18   26951.7    371.0     -2.28955   0.02638   0.14035   0.11129
  19   26999.5    370.4     18.50969  -0.53162  -0.13882  -0.67145
  20   27218.3    367.4     15.90430  -0.00673  -0.33767  -0.02502
  21   27417.7    364.7    -35.19074  -1.13724   2.23004  -1.77502
  22   27516.6    363.4     12.71251  -0.10664  -0.01006  -0.48331
  23   27816.7    359.5     22.02999  -0.15042  -0.59734   0.53123
  24   27903.5    358.4     -9.97764   0.03536   0.25583   0.03325
  25   27997.6    357.2      2.85369  -0.18046  -0.01585  -0.09091
  26   28249.1    354.0    -23.86308  -0.01568  -0.43370   0.13225
  27   28396.3    352.2    -54.59566  -0.67122  -0.72496   0.56198
  28   28560.6    350.1     31.87985   0.01121  -0.87527   1.54203
  29   29166.3    342.9     11.14874   0.34086  -1.02945   0.30696
  30   29199.9    342.5     -6.16637  -0.55647   0.26164  -0.28048
  31   29486.6    339.1     49.19008   0.48894   0.85944   0.29750
  32   29658.2    337.2    175.78262   1.63554   2.58089  -0.99477
  33   29713.7    336.5    -111.79408  -0.93271  -1.01260  -0.80746
  34   30036.9    332.9    -43.22063  -0.86515   1.43671  -1.88448
  35   30076.1    332.5    -37.03563  -0.50474  -0.90944   0.13468
  36   30205.8    331.1    -27.43889  -0.55153   0.31627  -0.80981
  37   30370.9    329.3    110.23235  -1.57677   2.03101  -2.71748
  38   30501.3    327.9    -113.83054  -0.82842  -0.27646  -1.29244
  39   30731.9    325.4     40.45817  -1.34883  -1.59487  -0.04048
  40   30847.2    324.2     77.42465  -1.77606   1.38260   0.00695
  41   30963.2    323.0     -7.36615  -0.18222  -0.06515   0.45548
  42   31108.3    321.5    -18.14367   0.47825  -0.75389   0.31030
  43   31171.7    320.8    -120.02022  -1.06109   3.05625  -3.54328
  44   31553.8    316.9     20.90889   0.04142  -1.39562   0.55876
  45   31855.6    313.9     78.82575   0.54361   0.59262  -0.66336
  46   32064.8    311.9     25.99723   1.41381  -2.35083   2.75514
  47   32152.9    311.0    -62.51732   1.10780  -4.00354   3.23167
  48   32177.2    310.8    -10.90063  -0.35109   0.44748  -0.93343
  49   32525.1    307.5      1.97420  -0.28841  -0.02961  -0.06107
  50   32554.1    307.2     -9.23842  -1.19761   0.13024  -1.16527
  51   32769.1    305.2     32.34670   2.47812  -1.71448   3.67916
  52   32807.3    304.8      8.92134   2.63661   0.74852   1.40850
  53   33069.9    302.4    -57.04840   0.67898  -1.67837   0.66538
  54   33196.8    301.2    -39.80350   1.18877   1.26776  -0.94281
  55   33341.2    299.9    -20.10131  -1.02590   1.44647  -1.16830
  56   33384.3    299.5    -180.65867  -1.05294   1.37442  -2.96728
  57   33402.9    299.4    215.88806  -1.67858   1.25014  -2.12043
  58   33467.5    298.8    -75.56720  -0.02490   1.20610  -1.17602
  59   33915.7    294.8    -253.66549   0.71424  -4.86737   4.61019
  60   34065.0    293.6    277.21067  -1.92432   4.04468  -4.28908
  61   34296.6    291.6     -1.95386  -0.51822  -1.13218   0.69090
  62   34395.2    290.7     -7.10322   0.98717  -0.83471   1.35081
  63   34486.3    290.0     -5.78469  -0.35166  -0.00462  -0.33426
  64   34609.2    288.9     -1.85479  -0.21718   0.52540  -0.55978
  65   34903.3    286.5     -0.01513  -0.01766   0.03645  -0.03631
  66   35044.2    285.4      0.63449   0.02620  -0.09046  -0.04656
  67   35375.8    282.7     23.34912  -2.21725   2.27789  -3.21574
  68   35480.1    281.8     19.61518  -0.27177   0.20449  -0.67121
  69   35568.9    281.1     -8.26694   0.66016  -0.30227   0.28383
  70   35576.9    281.1     -8.64889   1.05643  -1.03841   0.98337
  71   35843.7    279.0    -62.25497   0.02281   0.86819  -0.31102
  72   36019.8    277.6     -0.62783  -1.09018  -0.74639  -0.52472
  73   36279.3    275.6    -22.03843  -0.60392   0.04503  -0.58230
  74   36470.7    274.2    -15.17788   0.59626   0.93014  -0.31485
  75   36779.7    271.9     57.70540   0.89664   0.26268   1.09243
  76   36939.6    270.7    -16.64521  -0.26144  -1.89997   1.45692
  77   37215.0    268.7     92.61901   0.68479  -1.27828   0.93786
  78   37350.1    267.7     37.52985  -0.84873   1.03102  -1.14678
  79   37413.5    267.3    -44.21119   2.27165   2.40491   0.57375
  80   37501.9    266.7    -10.55362   2.00502   0.59770   1.41358
  81   37558.8    266.2    -19.94536  -0.04171   0.39872   0.24007
  82   37828.1    264.4      0.22377  -0.08425  -0.06307  -0.03763
  83   37864.8    264.1    -23.36012   0.72846  -1.16143   0.59616
  84   37991.4    263.2     -3.92220   0.31757   0.25379   0.06265
  85   38010.3    263.1     -9.99971  -0.21424  -0.19116   0.03207
  86   38338.9    260.8     -3.46382  -0.00711  -0.22965  -0.43050
  87   38386.2    260.5      3.30458   0.50168   0.47553  -0.06844
  88   38454.6    260.0     -6.54164   0.09105   0.04929   0.49015
  89   38619.8    258.9      1.03856  -0.02101  -0.34471   0.37124
  90   38657.0    258.7      1.10147  -0.04748   0.16457  -0.09600
  91   38691.7    258.5    -36.03432   0.60022   0.92512  -0.15941
  92   38700.0    258.4    151.17478  -0.48710  -3.92731   2.40825
  93   38724.1    258.2     -3.17965   0.90082   2.62507  -1.11854
  94   38779.1    257.9    -106.60306   2.41910  -1.45521   3.27389
  95   38849.5    257.4    -19.84752   0.07543   0.33191  -0.14189
  96   39098.7    255.8     23.80405   0.15593   2.22704  -1.40240
  97   39420.8    253.7      6.66945   0.07777   0.08947  -0.16510
  98   39468.6    253.4     55.36483  -0.54109  -1.17981   1.11302
  99   39740.9    251.6     -3.15073  -0.31325   0.27266  -0.41913
 100   39898.2    250.6     -3.12296  -0.04448   0.08157  -0.09976
 101   39951.7    250.3    -18.15100  -0.06603  -0.44462   0.16670
 102   40055.6    249.7    -15.52411   0.65009  -1.84514   2.01301
 103   40134.2    249.2    -62.22521  -0.15416  -1.73484   1.01199
 104   40153.0    249.0      6.55703  -0.06642  -0.68124   0.43538
 105   40212.9    248.7      7.55440   0.32751   0.38936  -0.04682

sTD-DFT done

Total run time:        5.929 sec

           *** ORCA-CIS/TD-DFT FINISHED WITHOUT ERROR ***

-------------------------   --------------------
FINAL SINGLE POINT ENERGY     -5431.102807785322
-------------------------   --------------------


                            ***************************************
                            *     ORCA property calculations      *
                            ***************************************

                                    ---------------------
                                    Active property flags
                                    ---------------------
   (+) Dipole Moment


------------------------------------------------------------------------------
                       ORCA ELECTRIC PROPERTIES CALCULATION
------------------------------------------------------------------------------

Dipole Moment Calculation                       ... on
Quadrupole Moment Calculation                   ... off
Polarizability Calculation                      ... off
GBWName                                         ... xtbopt.gbw
Electron density file                           ... xtbopt.scfp
The origin for moment calculation is the CENTER OF MASS  = (15.729115, -7.098745 -11.239434)

-------------
DIPOLE MOMENT
-------------
                                X             Y             Z
Electronic contribution:     -4.06141       7.56431      -8.06478
Nuclear contribution   :      3.28394      -7.84622       6.12083
                        -----------------------------------------
Total Dipole Moment    :     -0.77747      -0.28191      -1.94395
                        -----------------------------------------
Magnitude (a.u.)       :      2.11255
Magnitude (Debye)      :      5.36968



--------------------
Rotational spectrum 
--------------------
 
Rotational constants in cm-1:     0.002112     0.000143     0.000141 
Rotational constants in MHz :    63.321656     4.283391     4.236871 

 Dipole components along the rotational axes: 
x,y,z [a.u.] :    -1.266133    -0.065625    -1.689816 
x,y,z [Debye]:    -3.218254    -0.166805    -4.295172 

 

Timings for individual modules:

Sum of individual times         ...      873.383 sec (=  14.556 min)
GTO integral calculation        ...        4.407 sec (=   0.073 min)   0.5 %
SCF iterations                  ...      861.121 sec (=  14.352 min)  98.6 %
CIS module                      ...        7.854 sec (=   0.131 min)   0.9 %
                             ****ORCA TERMINATED NORMALLY****
TOTAL RUN TIME: 0 days 0 hours 14 minutes 34 seconds 508 msec
