
                                 *****************
                                 * O   R   C   A *
                                 *****************

           --- An Ab Initio, DFT and Semiempirical electronic structure package ---

                  #######################################################
                  #                        -***-                        #
                  #          Department of theory and spectroscopy      #
                  #               Directorship: Frank Neese             #
                  #        Max Planck Institute fuer Kohlenforschung    #
                  #                Kaiser Wilhelm Platz 1               #
                  #                 D-45470 Muelheim/Ruhr               #
                  #                      Germany                        #
                  #                                                     #
                  #                  All rights reserved                #
                  #                        -***-                        #
                  #######################################################


                         Program Version 4.2.0 -  RELEASE  -


 With contributions from (in alphabetic order):
   Daniel Aravena         : Magnetic Suceptibility
   Michael Atanasov       : Ab Initio Ligand Field Theory (pilot matlab implementation)
   Alexander A. Auer      : GIAO ZORA, VPT2
   Ute Becker             : Parallelization
   Giovanni Bistoni       : ED, misc. LED, open-shell LED, HFLED
   Martin Brehm           : Molecular dynamics
   Dmytro Bykov           : SCF Hessian
   Vijay G. Chilkuri      : MRCI spin determinant printing, contributions to CSF-ICE
   Dipayan Datta          : RHF DLPNO-CCSD density
   Achintya Kumar Dutta   : EOM-CC, STEOM-CC
   Dmitry Ganyushin       : Spin-Orbit,Spin-Spin,Magnetic field MRCI
   Miquel Garcia          : C-PCM Hessian, Gaussian charge scheme
   Yang Guo               : DLPNO-NEVPT2, CIM, IAO-localization
   Andreas Hansen         : Spin unrestricted coupled pair/coupled cluster methods
   Benjamin Helmich-Paris : CASSCF linear response (MC-RPA)
   Lee Huntington         : MR-EOM, pCC
   Robert Izsak           : Overlap fitted RIJCOSX, COSX-SCS-MP3, EOM
   Christian Kollmar      : KDIIS, OOCD, Brueckner-CCSD(T), CCSD density
   Simone Kossmann        : Meta GGA functionals, TD-DFT gradient, OOMP2, MP2 Hessian
   Martin Krupicka        : AUTO-CI
   Lucas Lang             : DCDCAS
   Dagmar Lenk            : GEPOL surface, SMD
   Dimitrios Liakos       : Extrapolation schemes; Compound Job, initial MDCI parallelization
   Dimitrios Manganas     : Further ROCIS development; embedding schemes
   Dimitrios Pantazis     : SARC Basis sets
   Taras Petrenko         : DFT Hessian,TD-DFT gradient, ASA, ECA, R-Raman, ABS, FL, XAS/XES, NRVS
   Peter Pinski           : DLPNO-MP2, DLPNO-MP2 Gradient
   Christoph Reimann      : Effective Core Potentials
   Marius Retegan         : Local ZFS, SOC
   Christoph Riplinger    : Optimizer, TS searches, QM/MM, DLPNO-CCSD(T), (RO)-DLPNO pert. Triples
   Tobias Risthaus        : Range-separated hybrids, TD-DFT gradient, RPA, STAB
   Michael Roemelt        : Original ROCIS implementation
   Masaaki Saitow         : Open-shell DLPNO-CCSD energy and density
   Barbara Sandhoefer     : DKH picture change effects
   Avijit Sen             : IP-ROCIS
   Kantharuban Sivalingam : CASSCF convergence, NEVPT2, FIC-MRCI
   Bernardo de Souza      : ESD, SOC TD-DFT
   Georgi Stoychev        : AutoAux, RI-MP2 NMR
   Willem Van den Heuvel  : Paramagnetic NMR
   Boris Wezisla          : Elementary symmetry handling
   Frank Wennmohs         : Technical directorship


 We gratefully acknowledge several colleagues who have allowed us to
 interface, adapt or use parts of their codes:
   Stefan Grimme, W. Hujo, H. Kruse,             : VdW corrections, initial TS optimization,
                  C. Bannwarth                     DFT functionals, gCP, sTDA/sTD-DF
   Ed Valeev, F. Pavosevic, A. Kumar             : LibInt (2-el integral package), F12 methods
   Garnet Chan, S. Sharma, J. Yang, R. Olivares  : DMRG
   Ulf Ekstrom                                   : XCFun DFT Library
   Mihaly Kallay                                 : mrcc  (arbitrary order and MRCC methods)
   Andreas Klamt, Michael Diedenhofen            : otool_cosmo (COSMO solvation model)
   Jiri Pittner, Ondrej Demel                    : Mk-CCSD
   Frank Weinhold                                : gennbo (NPA and NBO analysis)
   Christopher J. Cramer and Donald G. Truhlar   : smd solvation model
   Lars Goerigk                                  : TD-DFT with DH, B97 family of functionals
   V. Asgeirsson, H. Jonsson                     : NEB implementation
   FAccTs GmbH                                   : IRC, NEB, NEB-TS, Multilevel, MM, QM/MM, CI optimization
   S Lehtola, MJT Oliveira, MAL Marques          : LibXC Library


 Your calculation uses the libint2 library for the computation of 2-el integrals
 For citations please refer to: http://libint.valeyev.net

 Your ORCA version has been built with support for libXC version: 4.2.3
 For citations please refer to: https://tddft.org/programs/libxc/

 This ORCA versions uses:
   CBLAS   interface :  Fast vector & matrix operations
   LAPACKE interface :  Fast linear algebra routines
   SCALAPACK package :  Parallel linear algebra routines


XCFun DFT library Copyright 2009-2010 Ulf Ekstrom and contributors.
See http://admol.org/xcfun for more information. This is free soft-
ware; see the source code for copying conditions. There is ABSOLUTELY
NO WARRANTY; not even for MERCHANTABILITY or FITNESS FOR A PARTICULAR
PURPOSE. For details see the documentation. Scientific users of this 
library should cite U. Ekstrom, L. Visscher, R. Bast, A. J. Thorvald-
sen and K. Ruud; J.Chem.Theor.Comp. 2010, DOI: 10.1021/ct100117s
XCFun Version 0.99 
----- Orbital basis set information -----
Your calculation utilizes the basis: def2-SVP
   F. Weigend and R. Ahlrichs, Phys. Chem. Chem. Phys. 7, 3297 (2005).

----- AuxJ basis set information -----
Your calculation utilizes the auxiliary basis: def2/J
   F. Weigend, Phys. Chem. Chem. Phys. 8, 1057 (2006).

================================================================================
                                        WARNINGS
                       Please study these warnings very carefully!
================================================================================

INFO   : Checking CIS options ...

WARNING: CIS/ROCIS methods need fully converged wavefunctions
  ===> : Setting SCFConvForced true
         You can overwrite this default with %scf ConvForced false 


INFO   : the flag for use of LIBINT has been found!

================================================================================
                                       INPUT FILE
================================================================================
NAME = xtbopt.inp
|  1> # ORCA input file
|  2> # SCF done       -186.321048278166          0.002089628651
|  3> ! CAM-B3LYP def2-SVP def2/J RIJCOSX Grid4 TightSCF
|  4> %maxcore 5000
|  5> %tddft
|  6>     Mode sTDDFT
|  7>     Ethresh 5.0
|  8>     maxcore 5000
|  9> end
| 10> 
| 11> %pal
| 12>   nprocs 6
| 13>   end
| 14> * xyz 0 1
| 15>    C        0.14608        -3.03310         2.17428
| 16>    C       -1.15997        -3.26433         2.46655
| 17>    S       -1.99500        -1.78104         2.76492
| 18>    C       -0.56173        -0.81921         2.47900
| 19>    C       -0.57494         0.65822         2.57067
| 20>    C        0.48033        -1.64071         2.18703
| 21>    C        1.89666        -1.47682         1.83821
| 22>    O        2.48339        -0.43359         1.62955
| 23>    C        2.42201        -2.85714         1.70374
| 24>    C        1.31980        -3.78861         1.79175
| 25>    C        1.30595        -5.14134         1.53354
| 26>    C        0.16872        -5.92956         1.78571
| 27>    N       -0.73824        -6.60992         1.97482
| 28>    C        2.33398        -5.88578         0.94208
| 29>    N        3.10262        -6.57955         0.43735
| 30>    C        3.72476        -3.26147         1.50335
| 31>    C        4.95739        -2.60910         1.54445
| 32>    S        6.27461        -3.56446         0.86798
| 33>    C        7.47654        -2.32899         1.13096
| 34>    C        6.85445        -1.24497         1.76601
| 35>    C        5.47204        -1.38755         2.02997
| 36>    C        4.98596        -0.30359         2.79459
| 37>    C        5.95247         0.62729         3.04614
| 38>    C        5.84530         1.88105         3.79307
| 39>    O        6.74949         2.67030         3.92240
| 40>    O        4.62655         2.04346         4.32650
| 41>    C        4.43721         3.24003         5.06701
| 42>    S        7.51328         0.22304         2.38401
| 43>    C        8.81850        -2.44169         0.77903
| 44>    C        9.42346        -3.57830         0.27220
| 45>    C       10.77641        -3.74836        -0.09613
| 46>    C       11.09016        -5.01310        -0.51945
| 47>    C        9.99946        -5.89745        -0.49192
| 48>    S        8.55497        -5.07141         0.04759
| 49>    C        9.88846        -7.25412        -0.77918
| 50>    C       10.78829        -8.18455        -1.33014
| 51>    C       10.26088        -9.44087        -1.46842
| 52>    C        8.92678        -9.56876        -1.01726
| 53>    S        8.37007        -8.02186        -0.41246
| 54>    C        8.09838       -10.67064        -1.10417
| 55>    C        6.79026       -10.70799        -0.60121
| 56>    C        6.22042        -9.87228         0.36316
| 57>    C        4.86156       -10.06529         0.49495
| 58>    C        4.34952       -11.07821        -0.34738
| 59>    S        5.58815       -11.81946        -1.27116
| 60>    C        2.94754       -11.08898        -0.21641
| 61>    C        2.57081       -10.07686         0.70202
| 62>    C        3.76226        -9.44907         1.22248
| 63>    C        3.86194        -8.47376         2.17159
| 64>    C        5.08992        -7.86857         2.51251
| 65>    N        6.07236        -7.35043         2.79699
| 66>    C        2.76243        -7.99146         2.91051
| 67>    N        1.90605        -7.57903         3.55299
| 68>    C        1.19736        -9.86427         0.73704
| 69>    C        0.51313       -10.72709        -0.10248
| 70>    S        1.59416       -11.85055        -0.92161
| 71>    C       -0.88308       -10.77992        -0.34077
| 72>    C       -1.74083        -9.72437        -0.35213
| 73>    C       -3.20840        -9.96216        -0.18032
| 74>    O       -3.77187       -11.03321        -0.21551
| 75>    C       -3.76660        -8.63432         0.07791
| 76>    C       -4.98508        -8.12642         0.40762
| 77>    S       -4.86548        -6.38955         0.55649
| 78>    C       -3.18760        -6.38174         0.15453
| 79>    C       -2.73730        -7.64449        -0.06446
| 80>    C       -1.50047        -8.29483        -0.44202
| 81>    C       -0.42796        -7.64986        -1.00368
| 82>    C       -0.38204        -6.24593        -1.09650
| 83>    N       -0.30979        -5.10122        -1.16144
| 84>    C        0.67718        -8.27813        -1.60628
| 85>    N        1.56722        -8.73569        -2.16966
| 86>    C       -6.25916        -8.84758         0.62249
| 87>    H       -1.69407        -4.19032         2.53916
| 88>    H       -0.84197         0.97985         3.57723
| 89>    H       -1.30552         1.07990         1.88119
| 90>    H        0.41367         1.03730         2.32133
| 91>    H        3.83478        -4.31085         1.24811
| 92>    H        3.97801        -0.18794         3.13921
| 93>    H        4.52816         4.10934         4.41260
| 94>    H        5.18446         3.31815         5.85946
| 95>    H        3.43663         3.18112         5.48671
| 96>    H        9.43413        -1.56664         0.94034
| 97>    H       11.48142        -2.93843        -0.03279
| 98>    H       12.07334        -5.32335        -0.82562
| 99>    H       11.78389        -7.90969        -1.62983
|100>    H       10.79586       -10.27747        -1.88260
|101>    H        8.45419       -11.52604        -1.66207
|102>    H        6.78605        -9.18456         0.96194
|103>    H        0.70197        -9.12918         1.34802
|104>    H       -1.32919       -11.75847        -0.48724
|105>    H       -2.65603        -5.45213         0.12698
|106>    H       -6.09363        -9.91352         0.48281
|107>    H       -7.01712        -8.50681        -0.08229
|108>    H       -6.63671        -8.67037         1.62911
|109> *
|110> 
|111>                          ****END OF INPUT****
================================================================================

                       ****************************
                       * Single Point Calculation *
                       ****************************

---------------------------------
CARTESIAN COORDINATES (ANGSTROEM)
---------------------------------
  C      0.146080   -3.033100    2.174280
  C     -1.159970   -3.264330    2.466550
  S     -1.995000   -1.781040    2.764920
  C     -0.561730   -0.819210    2.479000
  C     -0.574940    0.658220    2.570670
  C      0.480330   -1.640710    2.187030
  C      1.896660   -1.476820    1.838210
  O      2.483390   -0.433590    1.629550
  C      2.422010   -2.857140    1.703740
  C      1.319800   -3.788610    1.791750
  C      1.305950   -5.141340    1.533540
  C      0.168720   -5.929560    1.785710
  N     -0.738240   -6.609920    1.974820
  C      2.333980   -5.885780    0.942080
  N      3.102620   -6.579550    0.437350
  C      3.724760   -3.261470    1.503350
  C      4.957390   -2.609100    1.544450
  S      6.274610   -3.564460    0.867980
  C      7.476540   -2.328990    1.130960
  C      6.854450   -1.244970    1.766010
  C      5.472040   -1.387550    2.029970
  C      4.985960   -0.303590    2.794590
  C      5.952470    0.627290    3.046140
  C      5.845300    1.881050    3.793070
  O      6.749490    2.670300    3.922400
  O      4.626550    2.043460    4.326500
  C      4.437210    3.240030    5.067010
  S      7.513280    0.223040    2.384010
  C      8.818500   -2.441690    0.779030
  C      9.423460   -3.578300    0.272200
  C     10.776410   -3.748360   -0.096130
  C     11.090160   -5.013100   -0.519450
  C      9.999460   -5.897450   -0.491920
  S      8.554970   -5.071410    0.047590
  C      9.888460   -7.254120   -0.779180
  C     10.788290   -8.184550   -1.330140
  C     10.260880   -9.440870   -1.468420
  C      8.926780   -9.568760   -1.017260
  S      8.370070   -8.021860   -0.412460
  C      8.098380  -10.670640   -1.104170
  C      6.790260  -10.707990   -0.601210
  C      6.220420   -9.872280    0.363160
  C      4.861560  -10.065290    0.494950
  C      4.349520  -11.078210   -0.347380
  S      5.588150  -11.819460   -1.271160
  C      2.947540  -11.088980   -0.216410
  C      2.570810  -10.076860    0.702020
  C      3.762260   -9.449070    1.222480
  C      3.861940   -8.473760    2.171590
  C      5.089920   -7.868570    2.512510
  N      6.072360   -7.350430    2.796990
  C      2.762430   -7.991460    2.910510
  N      1.906050   -7.579030    3.552990
  C      1.197360   -9.864270    0.737040
  C      0.513130  -10.727090   -0.102480
  S      1.594160  -11.850550   -0.921610
  C     -0.883080  -10.779920   -0.340770
  C     -1.740830   -9.724370   -0.352130
  C     -3.208400   -9.962160   -0.180320
  O     -3.771870  -11.033210   -0.215510
  C     -3.766600   -8.634320    0.077910
  C     -4.985080   -8.126420    0.407620
  S     -4.865480   -6.389550    0.556490
  C     -3.187600   -6.381740    0.154530
  C     -2.737300   -7.644490   -0.064460
  C     -1.500470   -8.294830   -0.442020
  C     -0.427960   -7.649860   -1.003680
  C     -0.382040   -6.245930   -1.096500
  N     -0.309790   -5.101220   -1.161440
  C      0.677180   -8.278130   -1.606280
  N      1.567220   -8.735690   -2.169660
  C     -6.259160   -8.847580    0.622490
  H     -1.694070   -4.190320    2.539160
  H     -0.841970    0.979850    3.577230
  H     -1.305520    1.079900    1.881190
  H      0.413670    1.037300    2.321330
  H      3.834780   -4.310850    1.248110
  H      3.978010   -0.187940    3.139210
  H      4.528160    4.109340    4.412600
  H      5.184460    3.318150    5.859460
  H      3.436630    3.181120    5.486710
  H      9.434130   -1.566640    0.940340
  H     11.481420   -2.938430   -0.032790
  H     12.073340   -5.323350   -0.825620
  H     11.783890   -7.909690   -1.629830
  H     10.795860  -10.277470   -1.882600
  H      8.454190  -11.526040   -1.662070
  H      6.786050   -9.184560    0.961940
  H      0.701970   -9.129180    1.348020
  H     -1.329190  -11.758470   -0.487240
  H     -2.656030   -5.452130    0.126980
  H     -6.093630   -9.913520    0.482810
  H     -7.017120   -8.506810   -0.082290
  H     -6.636710   -8.670370    1.629110

----------------------------
CARTESIAN COORDINATES (A.U.)
----------------------------
  NO LB      ZA    FRAG     MASS         X           Y           Z
   0 C     6.0000    0    12.011    0.276051   -5.731728    4.108794
   1 C     6.0000    0    12.011   -2.192026   -6.168690    4.661104
   2 S    16.0000    0    32.060   -3.770004   -3.365678    5.224942
   3 C     6.0000    0    12.011   -1.061516   -1.548083    4.684631
   4 C     6.0000    0    12.011   -1.086479    1.243856    4.857862
   5 C     6.0000    0    12.011    0.907692   -3.100493    4.132888
   6 C     6.0000    0    12.011    3.584168   -2.790785    3.473713
   7 O     8.0000    0    15.999    4.692927   -0.819366    3.079403
   8 C     6.0000    0    12.011    4.576936   -5.399212    3.219602
   9 C     6.0000    0    12.011    2.494061   -7.159435    3.385917
  10 C     6.0000    0    12.011    2.467888   -9.715725    2.897971
  11 C     6.0000    0    12.011    0.318835  -11.205244    3.374503
  12 N     7.0000    0    14.007   -1.395071  -12.490939    3.731869
  13 C     6.0000    0    12.011    4.410583  -11.122512    1.780273
  14 N     7.0000    0    14.007    5.863102  -12.433548    0.826472
  15 C     6.0000    0    12.011    7.038776   -6.163285    2.840920
  16 C     6.0000    0    12.011    9.368109   -4.930484    2.918588
  17 S    16.0000    0    32.060   11.857294   -6.735853    1.640244
  18 C     6.0000    0    12.011   14.128613   -4.401153    2.137205
  19 C     6.0000    0    12.011   12.953033   -2.352652    3.337275
  20 C     6.0000    0    12.011   10.340657   -2.622089    3.836087
  21 C     6.0000    0    12.011    9.422099   -0.573702    5.281010
  22 C     6.0000    0    12.011   11.248538    1.185406    5.756370
  23 C     6.0000    0    12.011   11.046016    3.554669    7.167864
  24 O     8.0000    0    15.999   12.754688    5.046136    7.412262
  25 O     8.0000    0    15.999    8.742912    3.861580    8.175900
  26 C     6.0000    0    12.011    8.385112    6.122769    9.575261
  27 S    16.0000    0    32.060   14.198042    0.421485    4.505126
  28 C     6.0000    0    12.011   16.664550   -4.614125    1.472153
  29 C     6.0000    0    12.011   17.807759   -6.762007    0.514383
  30 C     6.0000    0    12.011   20.364464   -7.083374   -0.181659
  31 C     6.0000    0    12.011   20.957365   -9.473386   -0.981618
  32 C     6.0000    0    12.011   18.896241  -11.144565   -0.929594
  33 S    16.0000    0    32.060   16.166550   -9.583576    0.089932
  34 C     6.0000    0    12.011   18.686481  -13.708300   -1.472437
  35 C     6.0000    0    12.011   20.386914  -15.466558   -2.513600
  36 C     6.0000    0    12.011   19.390253  -17.840659   -2.774912
  37 C     6.0000    0    12.011   16.869169  -18.082336   -1.922343
  38 S    16.0000    0    32.060   15.817140  -15.159118   -0.779436
  39 C     6.0000    0    12.011   15.303720  -20.164587   -2.086579
  40 C     6.0000    0    12.011   12.831732  -20.235169   -1.136122
  41 C     6.0000    0    12.011   11.754890  -18.655906    0.686273
  42 C     6.0000    0    12.011    9.187017  -19.020642    0.935320
  43 C     6.0000    0    12.011    8.219402  -20.934783   -0.656453
  44 S    16.0000    0    32.060   10.560073  -22.335542   -2.402144
  45 C     6.0000    0    12.011    5.570043  -20.955135   -0.408956
  46 C     6.0000    0    12.011    4.858127  -19.042506    1.326626
  47 C     6.0000    0    12.011    7.109641  -17.856155    2.310152
  48 C     6.0000    0    12.011    7.298009  -16.013086    4.103710
  49 C     6.0000    0    12.011    9.618555  -14.869442    4.747956
  50 N     7.0000    0    14.007   11.475097  -13.890300    5.285545
  51 C     6.0000    0    12.011    5.220236  -15.101671    5.500067
  52 N     7.0000    0    14.007    3.601912  -14.322291    6.714178
  53 C     6.0000    0    12.011    2.262682  -18.640769    1.392804
  54 C     6.0000    0    12.011    0.969675  -20.271262   -0.193659
  55 S    16.0000    0    32.060    3.012526  -22.394294   -1.741591
  56 C     6.0000    0    12.011   -1.668779  -20.371097   -0.643962
  57 C     6.0000    0    12.011   -3.289692  -18.376396   -0.665429
  58 C     6.0000    0    12.011   -6.062997  -18.825754   -0.340755
  59 O     8.0000    0    15.999   -7.127801  -20.849745   -0.407255
  60 C     6.0000    0    12.011   -7.117842  -16.316500    0.147229
  61 C     6.0000    0    12.011   -9.420436  -15.356708    0.770290
  62 S    16.0000    0    32.060   -9.194425  -12.074500    1.051614
  63 C     6.0000    0    12.011   -6.023691  -12.059741    0.292019
  64 C     6.0000    0    12.011   -5.172747  -14.445993   -0.121812
  65 C     6.0000    0    12.011   -2.835477  -15.674957   -0.835297
  66 C     6.0000    0    12.011   -0.808727  -14.456140   -1.896680
  67 C     6.0000    0    12.011   -0.721951  -11.803097   -2.072085
  68 N     7.0000    0    14.007   -0.585418   -9.639909   -2.194804
  69 C     6.0000    0    12.011    1.279685  -15.643399   -3.035429
  70 N     7.0000    0    14.007    2.961617  -16.508062   -4.100063
  71 C     6.0000    0    12.011  -11.828098  -16.719503    1.176336
  72 H     1.0000    0     1.008   -3.201328   -7.918557    4.798317
  73 H     1.0000    0     1.008   -1.591093    1.851648    6.759985
  74 H     1.0000    0     1.008   -2.467075    2.040715    3.554934
  75 H     1.0000    0     1.008    0.781723    1.960213    4.386678
  76 H     1.0000    0     1.008    7.246684   -8.146326    2.358586
  77 H     1.0000    0     1.008    7.517349   -0.355155    5.932247
  78 H     1.0000    0     1.008    8.556982    7.765527    8.338606
  79 H     1.0000    0     1.008    9.797210    6.270395   11.072775
  80 H     1.0000    0     1.008    6.494290    6.011446   10.368379
  81 H     1.0000    0     1.008   17.827922   -2.960521    1.776985
  82 H     1.0000    0     1.008   21.696739   -5.552828   -0.061964
  83 H     1.0000    0     1.008   22.815306  -10.059674   -1.560196
  84 H     1.0000    0     1.008   22.268325  -14.947148   -3.079932
  85 H     1.0000    0     1.008   20.401219  -19.421604   -3.557598
  86 H     1.0000    0     1.008   15.976104  -21.781059   -3.140857
  87 H     1.0000    0     1.008   12.823776  -17.356303    1.817803
  88 H     1.0000    0     1.008    1.326531  -17.251650    2.547389
  89 H     1.0000    0     1.008   -2.511805  -22.220288   -0.920750
  90 H     1.0000    0     1.008   -5.019169  -10.303033    0.239957
  91 H     1.0000    0     1.008  -11.515292  -18.733838    0.912379
  92 H     1.0000    0     1.008  -13.260435  -16.075541   -0.155506
  93 H     1.0000    0     1.008  -12.541564  -16.384625    3.078572

--------------------------------
INTERNAL COORDINATES (ANGSTROEM)
--------------------------------
 C      0   0   0     0.000000000000     0.00000000     0.00000000
 C      1   0   0     1.358181014556     0.00000000     0.00000000
 S      2   1   0     1.728134538136   110.83488843     0.00000000
 C      3   2   1     1.749608552848    92.74003465     0.43254936
 C      4   3   2     1.480330131390   122.08880599   179.69810218
 C      4   3   2     1.358675006946   109.33085169   359.39396732
 C      6   4   3     1.467830369423   136.35381933   178.74765651
 O      7   6   4     1.214956757008   127.06101015   354.21972234
 C      7   6   4     1.483023299143   105.03678845   178.10124063
 C      9   7   6     1.445769347130   108.90936321     7.36592215
 C     10   9   7     1.377222814036   128.98144633   169.79698370
 C     11  10   9     1.406475222036   121.66636776   174.14204074
 N     12  11  10     1.149447155506   177.71488596   177.75880116
 C     11  10   9     1.400307654089   126.43985627   350.36592223
 N     14  11  10     1.151901313221   174.35099246   196.52423316
 C      9   7   6     1.378693752615   128.37963842   186.31350704
 C     16   9   7     1.395224907963   133.89919804    10.49458231
 S     17  16   9     1.762212506737   113.30184845   192.21442872
 C     18  17  16     1.743611288734    94.19919326   178.85934639
 C     19  18  17     1.401921478186   108.07908085     1.99500463
 C     17  16   9     1.411658136873   137.46140476    15.17125684
 C     21  17  16     1.412758575412   136.43956399     6.16601464
 C     22  21  17     1.365267943299   112.28981942   176.77155950
 C     23  22  21     1.463319504210   128.78402485   179.81973688
 O     24  23  22     1.207145959485   124.05665778   182.86726942
 O     24  23  22     1.340252265620   111.93657272     3.40409378
 C     26  24  23     1.419853675771   115.52859164   180.14486140
 S     20  19  18     1.723668857118   130.64370999   175.30801257
 C     19  18  17     1.391909715643   124.68682965   181.00909002
 C     29  19  18     1.383739694668   125.49412487   354.43432446
 C     30  29  19     1.412466316413   127.81985673   180.21851160
 C     31  30  29     1.370111729933   114.27120649   177.55326138
 C     32  31  30     1.404442705631   113.41305866   359.48692851
 S     30  29  19     1.741867389987   122.23186799   358.20018262
 C     33  32  31     1.391183954946   132.21968582   182.93940701
 C     35  33  32     1.406751909684   132.44085466   352.17086347
 C     36  35  33     1.369533719519   113.57452990   181.09920180
 C     37  36  35     1.414115980993   114.46015102   359.17572879
 S     35  33  32     1.740521892451   117.14564843   172.12390672
 C     38  37  36     1.381281811398   128.16063031   175.25045185
 C     40  38  37     1.401977788162   123.93570491   178.73217207
 C     41  40  38     1.397547253799   127.73924067   340.27394787
 C     42  41  40     1.378811794191   112.58734528   171.69056246
 C     43  42  41     1.413404300581   113.60244107     1.25324072
 S     44  43  42     1.713775168393   111.67720948     1.71215732
 C     44  43  42     1.408125368779   108.10409251   185.63540571
 C     46  44  43     1.417683339889   108.62493677     0.39050519
 C     47  46  44     1.443797769149   108.94557673   357.04951787
 C     48  47  46     1.364542227489   128.44788126   183.19976588
 C     49  48  47     1.410821130725   122.56546916   185.31028675
 N     50  49  48     1.146554091005   178.42902357   150.53324649
 C     49  48  47     1.409800800291   123.51178649     6.17302873
 N     52  49  48     1.147286258830   177.01782077   159.24387373
 C     47  46  44     1.390246672717   112.83103055   170.28434337
 C     54  47  46     1.384710394162   112.18558826     2.12981823
 S     46  44  43     1.705559535548   139.02589046   173.51495650
 C     55  54  47     1.417383327509   127.72722640   181.37250013
 C     57  55  54     1.360165399722   126.41859360    33.59458458
 C     58  57  55     1.496604311466   119.61212645   199.56142922
 O     59  58  57     1.210737328862   126.41173817   348.69444154
 C     59  58  57     1.463362237623   104.48557600   166.84208034
 C     61  59  58     1.360648596993   136.30794992   185.46176044
 S     62  61  59     1.747336210865   109.29255782   179.78554314
 C     63  62  61     1.725373621017    92.93561604     0.63469498
 C     64  63  62     1.358405047326   110.83735665   359.20500806
 C     65  64  63     1.447495118506   137.98297421   178.64640360
 C     66  65  64     1.371760167303   124.30617168   343.67596637
 C     67  66  65     1.407744168413   121.42644114     8.63884549
 N     68  67  66     1.148824725622   178.18301399   136.62784616
 C     67  66  65     1.406834877482   125.42166405   192.60205037
 N     70  67  66     1.148446507069   175.45001582   130.16602462
 C     62  61  59     1.479702912378   128.63340200   359.64767548
 H      2   1   3     1.071444119961   129.87190841   180.67164273
 H      5   4   3     1.089914634914   110.72568325    61.55765701
 H      5   4   3     1.089469517334   110.67621930   302.05685655
 H      5   4   3     1.087759998391   108.99636827   181.89808095
 H     16   9   7     1.085564480996   114.42079481   191.17148868
 H     22  21  17     1.071494782722   125.48887750   355.84347960
 H     27  26  24     1.091890208171   110.32009239    64.26257999
 H     27  26  24     1.091999221337   110.33516541   304.11242983
 H     27  26  24     1.086636468420   106.17317825   184.09729900
 H     29  19  18     1.082004489593   116.44753387   175.84040720
 H     31  30  29     1.075656850766   121.45265637   357.99212142
 H     32  31  30     1.075471079946   124.30479192   180.78611122
 H     36  35  33     1.075444780405   122.15838542   359.71334668
 H     37  36  35     1.075940626986   124.10159824   179.16978755
 H     40  38  37     1.081463048883   117.78228578   353.69809574
 H     42  41  40     1.073048733143   123.59886653   349.38941884
 H     54  47  46     1.076598867081   124.97986361   181.35901614
 H     57  55  54     1.085369842726   117.46285417   216.45141664
 H     64  63  62     1.071214460087   119.50446856   180.29757768
 H     72  62  61     1.087721824227   109.14306097     0.46068488
 H     72  62  61     1.089652422977   110.64631576   240.24485076
 H     72  62  61     1.089601400054   110.68563722   120.81196302

---------------------------
INTERNAL COORDINATES (A.U.)
---------------------------
 C      0   0   0     0.000000000000     0.00000000     0.00000000
 C      1   0   0     2.566590157802     0.00000000     0.00000000
 S      2   1   0     3.265700999648   110.83488843     0.00000000
 C      3   2   1     3.306281006450    92.74003465     0.43254936
 C      4   3   2     2.797418536118   122.08880599   179.69810218
 C      4   3   2     2.567523668132   109.33085169   359.39396732
 C      6   4   3     2.773797409262   136.35381933   178.74765651
 O      7   6   4     2.295935535303   127.06101015   354.21972234
 C      7   6   4     2.802507885604   105.03678845   178.10124063
 C      9   7   6     2.732108118893   108.90936321     7.36592215
 C     10   9   7     2.602573943916   128.98144633   169.79698370
 C     11  10   9     2.657852983793   121.66636776   174.14204074
 N     12  11  10     2.172140329320   177.71488596   177.75880116
 C     11  10   9     2.646197969462   126.43985627   350.36592223
 N     14  11  10     2.176778015292   174.35099246   196.52423316
 C      9   7   6     2.605353614991   128.37963842   186.31350704
 C     16   9   7     2.636592971275   133.89919804    10.49458231
 S     17  16   9     3.330099027504   113.30184845   192.21442872
 C     18  17  16     3.294947819720    94.19919326   178.85934639
 C     19  18  17     2.649247655034   108.07908085     1.99500463
 C     17  16   9     2.667647273412   137.46140476    15.17125684
 C     21  17  16     2.669726800877   136.43956399     6.16601464
 C     22  21  17     2.579982512257   112.28981942   176.77155950
 C     23  22  21     2.765273109381   128.78402485   179.81973688
 O     24  23  22     2.281175267095   124.05665778   182.86726942
 O     24  23  22     2.532709732390   111.93657272     3.40409378
 C     26  24  23     2.683134597448   115.52859164   180.14486140
 S     20  19  18     3.257262085523   130.64370999   175.30801257
 C     19  18  17     2.630328165709   124.68682965   181.00909002
 C     29  19  18     2.614889063558   125.49412487   354.43432446
 C     30  29  19     2.669174511408   127.81985673   180.21851160
 C     31  30  29     2.589135942446   114.27120649   177.55326138
 C     32  31  30     2.654012084426   113.41305866   359.48692851
 S     30  29  19     3.291652328684   122.23186799   358.20018262
 C     33  32  31     2.628956676754   132.21968582   182.93940701
 C     35  33  32     2.658375847674   132.44085466   352.17086347
 C     36  35  33     2.588043661062   113.57452990   181.09920180
 C     37  36  35     2.672291925678   114.46015102   359.17572879
 S     35  33  32     3.289109706826   117.14564843   172.12390672
 C     38  37  36     2.610244337310   128.16063031   175.25045185
 C     40  38  37     2.649354065467   123.93570491   178.73217207
 C     41  40  38     2.640981568893   127.73924067   340.27394787
 C     42  41  40     2.605576681241   112.58734528   171.69056246
 C     43  42  41     2.670947044604   113.60244107     1.25324072
 S     44  43  42     3.238565723377   111.67720948     1.71215732
 C     44  43  42     2.660971309220   108.10409251   185.63540571
 C     46  44  43     2.679033257014   108.62493677     0.39050519
 C     47  46  44     2.728382376458   108.94557673   357.04951787
 C     48  47  46     2.578611108125   128.44788126   183.19976588
 C     49  48  47     2.666065561019   122.56546916   185.31028675
 N     50  49  48     2.166673229726   178.42902357   150.53324649
 C     49  48  47     2.664137415932   123.51178649     6.17302873
 N     52  49  48     2.168056826400   177.01782077   159.24387373
 C     47  46  44     2.627185470030   112.83103055   170.28434337
 C     54  47  46     2.616723419760   112.18558826     2.12981823
 S     46  44  43     3.223040427284   139.02589046   173.51495650
 C     55  54  47     2.678466315778   127.72722640   181.37250013
 C     57  55  54     2.570340102309   126.41859360    33.59458458
 C     58  57  55     2.828172279517   119.61212645   199.56142922
 O     59  58  57     2.287961971665   126.41173817   348.69444154
 C     59  58  57     2.765353863829   104.48557600   166.84208034
 C     61  59  58     2.571253212822   136.30794992   185.46176044
 S     62  61  59     3.301986902418   109.29255782   179.78554314
 C     63  62  61     3.260483622413    92.93561604     0.63469498
 C     64  63  62     2.567013518382   110.83735665   359.20500806
 C     65  64  63     2.735369354165   137.98297421   178.64640360
 C     66  65  64     2.592251037625   124.30617168   343.67596637
 C     67  66  65     2.660250944925   121.42644114     8.63884549
 N     68  67  66     2.170964107302   178.18301399   136.62784616
 C     67  66  65     2.658532634090   125.42166405   192.60205037
 N     70  67  66     2.170249377820   175.45001582   130.16602462
 C     62  61  59     2.796233263960   128.63340200   359.64767548
 H      2   1   3     2.024735954527   129.87190841   180.67164273
 H      5   4   3     2.059640169340   110.72568325    61.55765701
 H      5   4   3     2.058799019017   110.67621930   302.05685655
 H      5   4   3     2.055568496394   108.99636827   181.89808095
 H     16   9   7     2.051419569795   114.42079481   191.17148868
 H     22  21  17     2.024831693270   125.48887750   355.84347960
 H     27  26  24     2.063373461754   110.32009239    64.26257999
 H     27  26  24     2.063579466782   110.33516541   304.11242983
 H     27  26  24     2.053445332445   106.17317825   184.09729900
 H     29  19  18     2.044692161005   116.44753387   175.84040720
 H     31  30  29     2.032696862024   121.45265637   357.99212142
 H     32  31  30     2.032345806050   124.30479192   180.78611122
 H     36  35  33     2.032296107120   122.15838542   359.71334668
 H     37  36  35     2.033233121364   124.10159824   179.16978755
 H     40  38  37     2.043668986345   117.78228578   353.69809574
 H     42  41  40     2.027768233992   123.59886653   349.38941884
 H     54  47  46     2.034477014873   124.97986361   181.35901614
 H     57  55  54     2.051051756770   117.46285417   216.45141664
 H     64  63  62     2.024301960261   119.50446856   180.29757768
 H     72  62  61     2.055496357679   109.14306097     0.46068488
 H     72  62  61     2.059144660591   110.64631576   240.24485076
 H     72  62  61     2.059048241240   110.68563722   120.81196302

---------------------
BASIS SET INFORMATION
---------------------
There are 5 groups of distinct atoms

 Group   1 Type C   : 7s4p1d contracted to 3s2p1d pattern {511/31/1}
 Group   2 Type S   : 10s7p1d contracted to 4s3p1d pattern {5311/511/1}
 Group   3 Type O   : 7s4p1d contracted to 3s2p1d pattern {511/31/1}
 Group   4 Type N   : 7s4p1d contracted to 3s2p1d pattern {511/31/1}
 Group   5 Type H   : 4s1p contracted to 2s1p pattern {31/1}

Atom   0C    basis set group =>   1
Atom   1C    basis set group =>   1
Atom   2S    basis set group =>   2
Atom   3C    basis set group =>   1
Atom   4C    basis set group =>   1
Atom   5C    basis set group =>   1
Atom   6C    basis set group =>   1
Atom   7O    basis set group =>   3
Atom   8C    basis set group =>   1
Atom   9C    basis set group =>   1
Atom  10C    basis set group =>   1
Atom  11C    basis set group =>   1
Atom  12N    basis set group =>   4
Atom  13C    basis set group =>   1
Atom  14N    basis set group =>   4
Atom  15C    basis set group =>   1
Atom  16C    basis set group =>   1
Atom  17S    basis set group =>   2
Atom  18C    basis set group =>   1
Atom  19C    basis set group =>   1
Atom  20C    basis set group =>   1
Atom  21C    basis set group =>   1
Atom  22C    basis set group =>   1
Atom  23C    basis set group =>   1
Atom  24O    basis set group =>   3
Atom  25O    basis set group =>   3
Atom  26C    basis set group =>   1
Atom  27S    basis set group =>   2
Atom  28C    basis set group =>   1
Atom  29C    basis set group =>   1
Atom  30C    basis set group =>   1
Atom  31C    basis set group =>   1
Atom  32C    basis set group =>   1
Atom  33S    basis set group =>   2
Atom  34C    basis set group =>   1
Atom  35C    basis set group =>   1
Atom  36C    basis set group =>   1
Atom  37C    basis set group =>   1
Atom  38S    basis set group =>   2
Atom  39C    basis set group =>   1
Atom  40C    basis set group =>   1
Atom  41C    basis set group =>   1
Atom  42C    basis set group =>   1
Atom  43C    basis set group =>   1
Atom  44S    basis set group =>   2
Atom  45C    basis set group =>   1
Atom  46C    basis set group =>   1
Atom  47C    basis set group =>   1
Atom  48C    basis set group =>   1
Atom  49C    basis set group =>   1
Atom  50N    basis set group =>   4
Atom  51C    basis set group =>   1
Atom  52N    basis set group =>   4
Atom  53C    basis set group =>   1
Atom  54C    basis set group =>   1
Atom  55S    basis set group =>   2
Atom  56C    basis set group =>   1
Atom  57C    basis set group =>   1
Atom  58C    basis set group =>   1
Atom  59O    basis set group =>   3
Atom  60C    basis set group =>   1
Atom  61C    basis set group =>   1
Atom  62S    basis set group =>   2
Atom  63C    basis set group =>   1
Atom  64C    basis set group =>   1
Atom  65C    basis set group =>   1
Atom  66C    basis set group =>   1
Atom  67C    basis set group =>   1
Atom  68N    basis set group =>   4
Atom  69C    basis set group =>   1
Atom  70N    basis set group =>   4
Atom  71C    basis set group =>   1
Atom  72H    basis set group =>   5
Atom  73H    basis set group =>   5
Atom  74H    basis set group =>   5
Atom  75H    basis set group =>   5
Atom  76H    basis set group =>   5
Atom  77H    basis set group =>   5
Atom  78H    basis set group =>   5
Atom  79H    basis set group =>   5
Atom  80H    basis set group =>   5
Atom  81H    basis set group =>   5
Atom  82H    basis set group =>   5
Atom  83H    basis set group =>   5
Atom  84H    basis set group =>   5
Atom  85H    basis set group =>   5
Atom  86H    basis set group =>   5
Atom  87H    basis set group =>   5
Atom  88H    basis set group =>   5
Atom  89H    basis set group =>   5
Atom  90H    basis set group =>   5
Atom  91H    basis set group =>   5
Atom  92H    basis set group =>   5
Atom  93H    basis set group =>   5
---------------------------------
AUXILIARY/J BASIS SET INFORMATION
---------------------------------
There are 5 groups of distinct atoms

 Group   1 Type C   : 12s5p4d2f1g contracted to 6s4p3d1f1g pattern {711111/2111/211/2/1}
 Group   2 Type S   : 14s5p5d2f1g contracted to 8s4p3d1f1g pattern {71111111/2111/311/2/1}
 Group   3 Type O   : 12s5p4d2f1g contracted to 6s4p3d1f1g pattern {711111/2111/211/2/1}
 Group   4 Type N   : 12s5p4d2f1g contracted to 6s4p3d1f1g pattern {711111/2111/211/2/1}
 Group   5 Type H   : 5s2p1d contracted to 3s1p1d pattern {311/2/1}

Atom   0C    basis set group =>   1
Atom   1C    basis set group =>   1
Atom   2S    basis set group =>   2
Atom   3C    basis set group =>   1
Atom   4C    basis set group =>   1
Atom   5C    basis set group =>   1
Atom   6C    basis set group =>   1
Atom   7O    basis set group =>   3
Atom   8C    basis set group =>   1
Atom   9C    basis set group =>   1
Atom  10C    basis set group =>   1
Atom  11C    basis set group =>   1
Atom  12N    basis set group =>   4
Atom  13C    basis set group =>   1
Atom  14N    basis set group =>   4
Atom  15C    basis set group =>   1
Atom  16C    basis set group =>   1
Atom  17S    basis set group =>   2
Atom  18C    basis set group =>   1
Atom  19C    basis set group =>   1
Atom  20C    basis set group =>   1
Atom  21C    basis set group =>   1
Atom  22C    basis set group =>   1
Atom  23C    basis set group =>   1
Atom  24O    basis set group =>   3
Atom  25O    basis set group =>   3
Atom  26C    basis set group =>   1
Atom  27S    basis set group =>   2
Atom  28C    basis set group =>   1
Atom  29C    basis set group =>   1
Atom  30C    basis set group =>   1
Atom  31C    basis set group =>   1
Atom  32C    basis set group =>   1
Atom  33S    basis set group =>   2
Atom  34C    basis set group =>   1
Atom  35C    basis set group =>   1
Atom  36C    basis set group =>   1
Atom  37C    basis set group =>   1
Atom  38S    basis set group =>   2
Atom  39C    basis set group =>   1
Atom  40C    basis set group =>   1
Atom  41C    basis set group =>   1
Atom  42C    basis set group =>   1
Atom  43C    basis set group =>   1
Atom  44S    basis set group =>   2
Atom  45C    basis set group =>   1
Atom  46C    basis set group =>   1
Atom  47C    basis set group =>   1
Atom  48C    basis set group =>   1
Atom  49C    basis set group =>   1
Atom  50N    basis set group =>   4
Atom  51C    basis set group =>   1
Atom  52N    basis set group =>   4
Atom  53C    basis set group =>   1
Atom  54C    basis set group =>   1
Atom  55S    basis set group =>   2
Atom  56C    basis set group =>   1
Atom  57C    basis set group =>   1
Atom  58C    basis set group =>   1
Atom  59O    basis set group =>   3
Atom  60C    basis set group =>   1
Atom  61C    basis set group =>   1
Atom  62S    basis set group =>   2
Atom  63C    basis set group =>   1
Atom  64C    basis set group =>   1
Atom  65C    basis set group =>   1
Atom  66C    basis set group =>   1
Atom  67C    basis set group =>   1
Atom  68N    basis set group =>   4
Atom  69C    basis set group =>   1
Atom  70N    basis set group =>   4
Atom  71C    basis set group =>   1
Atom  72H    basis set group =>   5
Atom  73H    basis set group =>   5
Atom  74H    basis set group =>   5
Atom  75H    basis set group =>   5
Atom  76H    basis set group =>   5
Atom  77H    basis set group =>   5
Atom  78H    basis set group =>   5
Atom  79H    basis set group =>   5
Atom  80H    basis set group =>   5
Atom  81H    basis set group =>   5
Atom  82H    basis set group =>   5
Atom  83H    basis set group =>   5
Atom  84H    basis set group =>   5
Atom  85H    basis set group =>   5
Atom  86H    basis set group =>   5
Atom  87H    basis set group =>   5
Atom  88H    basis set group =>   5
Atom  89H    basis set group =>   5
Atom  90H    basis set group =>   5
Atom  91H    basis set group =>   5
Atom  92H    basis set group =>   5
Atom  93H    basis set group =>   5


           ************************************************************
           *        Program running with 6 parallel MPI-processes     *
           *              working on a common directory               *
           ************************************************************
------------------------------------------------------------------------------
                           ORCA GTO INTEGRAL CALCULATION
                           -- RI-GTO INTEGRALS CHOSEN --
------------------------------------------------------------------------------

                         BASIS SET STATISTICS AND STARTUP INFO

Gaussian basis set:
 # of primitive gaussian shells          ... 1022
 # of primitive gaussian functions       ... 1978
 # of contracted shells                  ...  514
 # of contracted basis functions         ... 1150
 Highest angular momentum                ...    2
 Maximum contraction depth               ...    5
Auxiliary gaussian basis set:
 # of primitive gaussian shells          ... 1928
 # of primitive gaussian functions       ... 5448
 # of contracted shells                  ... 1206
 # of contracted aux-basis functions     ... 3786
 Highest angular momentum                ...    4
 Maximum contraction depth               ...    7
Ratio of auxiliary to basis functions    ...  3.29
Integral package used                  ... LIBINT
 One Electron integrals                  ... done
 Ordering auxiliary basis shells         ... done
 Integral threshhold             Thresh  ...  2.500e-11
 Primitive cut-off               TCut    ...  2.500e-12
 Pre-screening matrix                    ... done
 Shell pair data                         ... 
 Ordering of the shell pairs             ... done (   0.011 sec) 51898 of 132355 pairs
 Determination of significant pairs      ... done (   0.000 sec)
 Creation of shell pair data             ... done (   0.005 sec)
 Storage of shell pair data              ... done (   0.006 sec)
 Shell pair data done in (   0.022 sec)
 Computing two index integrals           ... done
 Cholesky decomposition of the V-matrix  ... done


Timings:
 Total evaluation time                   ...   2.268 sec (  0.038 min)
 One electron matrix time                ...   0.521 sec (  0.009 min) = 23.0%
 Schwartz matrix evaluation time         ...   0.626 sec (  0.010 min) = 27.6%
 Two index repulsion integral time       ...   0.255 sec (  0.004 min) = 11.2%
 Cholesky decomposition of V             ...   0.827 sec (  0.014 min) = 36.5%
 Three index repulsion integral time     ...   0.000 sec (  0.000 min) =  0.0%



           ************************************************************
           *        Program running with 6 parallel MPI-processes     *
           *              working on a common directory               *
           ************************************************************
-------------------------------------------------------------------------------
                                 ORCA SCF
-------------------------------------------------------------------------------

------------
SCF SETTINGS
------------
Hamiltonian:
 Density Functional     Method          .... DFT(GTOs)
 Exchange Functional    Exchange        .... WB88
 Correlation Functional Correlation     .... LYP
 LDA part of GGA corr.  LDAOpt          .... VWN-5
 Gradients option       PostSCFGGA      .... off
 Hybrid DFT is turned on
   Fraction HF Exchange ScalHFX         ....  0.190000
   Scaling of DF-GGA-X  ScalDFX         ....  0.350000
   Scaling of DF-GGA-C  ScalDFC         ....  0.810000
   Scaling of DF-LDA-C  ScalLDAC        ....  1.000000
   Perturbative correction              ....  0.000000
   Density functional embedding theory  .... OFF
 Long-range corrected/Screened/Range-Separated Hybrid DFT is turned on
   Amount of maximum screened exact exchange              ....  0.460000
   Range separation parameter mu (erf(mu*r12)/r12)        ....  0.330000
 RI-approximation to the Coulomb term is turned on
   Number of auxiliary basis functions  .... 3786
   RIJ-COSX (HFX calculated with COS-X)).... on


General Settings:
 Integral files         IntName         .... xtbopt
 Hartree-Fock type      HFTyp           .... RHF
 Total Charge           Charge          ....    0
 Multiplicity           Mult            ....    1
 Number of Electrons    NEL             ....  548
 Basis Dimension        Dim             .... 1150
 Nuclear Repulsion      ENuc            ....  12913.7068308356 Eh

Convergence Acceleration:
 DIIS                   CNVDIIS         .... on
   Start iteration      DIISMaxIt       ....    12
   Startup error        DIISStart       ....  0.200000
   # of expansion vecs  DIISMaxEq       ....     5
   Bias factor          DIISBfac        ....   1.050
   Max. coefficient     DIISMaxC        ....  10.000
 Newton-Raphson         CNVNR           .... off
 SOSCF                  CNVSOSCF        .... on
   Start iteration      SOSCFMaxIt      ....   150
   Startup grad/error   SOSCFStart      ....  0.003300
 Level Shifting         CNVShift        .... on
   Level shift para.    LevelShift      ....    0.2500
   Turn off err/grad.   ShiftErr        ....    0.0010
 Zerner damping         CNVZerner       .... off
 Static damping         CNVDamp         .... on
   Fraction old density DampFac         ....    0.7000
   Max. Damping (<1)    DampMax         ....    0.9800
   Min. Damping (>=0)   DampMin         ....    0.0000
   Turn off err/grad.   DampErr         ....    0.1000
 Fernandez-Rico         CNVRico         .... off

SCF Procedure:
 Maximum # iterations   MaxIter         ....   125
 SCF integral mode      SCFMode         .... Direct
   Integral package                     .... LIBINT
 Reset frequency        DirectResetFreq ....    20
 Integral Threshold     Thresh          ....  2.500e-11 Eh
 Primitive CutOff       TCut            ....  2.500e-12 Eh

Convergence Tolerance:
 Convergence Check Mode ConvCheckMode   .... Total+1el-Energy
 Convergence forced     ConvForced      .... 1
 Energy Change          TolE            ....  1.000e-08 Eh
 1-El. energy change                    ....  1.000e-05 Eh
 Orbital Gradient       TolG            ....  1.000e-05
 Orbital Rotation angle TolX            ....  1.000e-05
 DIIS Error             TolErr          ....  5.000e-07


Diagonalization of the overlap matrix:
Smallest eigenvalue                        ... 1.865e-04
Time for diagonalization                   ...    0.293 sec
Threshold for overlap eigenvalues          ... 1.000e-08
Number of eigenvalues below threshold      ... 0
Time for construction of square roots      ...    0.213 sec
Total time needed                          ...    0.507 sec

-------------------
DFT GRID GENERATION
-------------------

General Integration Accuracy     IntAcc      ...  4.670
Radial Grid Type                 RadialGrid  ... Gauss-Chebyshev
Angular Grid (max. acc.)         AngularGrid ... Lebedev-302
Angular grid pruning method      GridPruning ... 3 (G Style)
Weight generation scheme         WeightScheme... Becke
Basis function cutoff            BFCut       ...    1.0000e-11
Integration weight cutoff        WCut        ...    1.0000e-14
Grids for H and He will be reduced by one unit

# of grid points (after initial pruning)     ... 527004 (   0.0 sec)
# of grid points (after weights+screening)   ... 447328 (   3.3 sec)
nearest neighbour list constructed           ...    0.0 sec
Grid point re-assignment to atoms done       ...    0.1 sec
Grid point division into batches done        ...    1.7 sec
Reduced shell lists constructed in    2.8 sec

Total number of grid points                  ...   447328
Total number of batches                      ...     7036
Average number of points per batch           ...       63
Average number of grid points per atom       ...     4759
Average number of shells per batch           ...   131.68 (25.62%)
Average number of basis functions per batch  ...   275.53 (23.96%)
Average number of large shells per batch     ...    72.30 (54.90%)
Average number of large basis fcns per batch ...   153.68 (55.78%)
Maximum spatial batch extension              ...  19.18, 14.59, 20.21 au
Average spatial batch extension              ...   0.27,  0.27,  0.30 au

Time for grid setup =    6.272 sec

------------------------------
INITIAL GUESS: MODEL POTENTIAL
------------------------------
Loading Hartree-Fock densities                     ... done
Calculating cut-offs                               ... done
Setting up the integral package                    ... done
Initializing the effective Hamiltonian             ... done
Starting the Coulomb interaction                   ... done (   1.5 sec)
Reading the grid                                   ... done
Mapping shells                                     ... done
Starting the XC term evaluation                    ... done (   1.2 sec)
  promolecular density results
     # of electrons  =    547.989843268
     EX              =   -553.860309316
     EC              =    -19.285912013
     EX+EC           =   -573.146221329
Transforming the Hamiltonian                       ... done (   0.2 sec)
Diagonalizing the Hamiltonian                      ... done (   0.3 sec)
Back transforming the eigenvectors                 ... done (   0.1 sec)
Now organizing SCF variables                       ... done
                      ------------------
                      INITIAL GUESS DONE (   9.6 sec)
                      ------------------
--------------------
COSX GRID GENERATION
--------------------

General Integration Accuracy     IntAcc      ...  3.340
Radial Grid Type                 RadialGrid  ... Gauss-Chebyshev
Angular Grid (max. acc.)         AngularGrid ... Lebedev-50
Angular grid pruning method      GridPruning ... 3 (G Style)
Weight generation scheme         WeightScheme... Becke
Basis function cutoff            BFCut       ...    1.0000e-11
Integration weight cutoff        WCut        ...    1.0000e-14
Grids for H and He will be reduced by one unit

# of grid points (after initial pruning)     ...  49724 (   0.0 sec)
# of grid points (after weights+screening)   ...  44356 (   0.3 sec)
nearest neighbour list constructed           ...    0.0 sec
Grid point re-assignment to atoms done       ...    0.0 sec
Grid point division into batches done        ...    0.0 sec
Reduced shell lists constructed in    0.2 sec

Total number of grid points                  ...    44356
Total number of batches                      ...      745
Average number of points per batch           ...       59
Average number of grid points per atom       ...      472
Average number of shells per batch           ...   157.09 (30.56%)
Average number of basis functions per batch  ...   333.88 (29.03%)
Average number of large shells per batch     ...    86.13 (54.83%)
Average number of large basis fcns per batch ...   185.33 (55.51%)
Maximum spatial batch extension              ...  16.28, 13.55, 17.24 au
Average spatial batch extension              ...   0.53,  0.49,  0.69 au

Overlap Fitting                  UseSFitting ... on
Constructing numerical overlap ... done (      0.2 sec)
Inverting numerical overlap    ... done (      0.1 sec)
Obtaining analytic overlap     ... done (      0.0 sec)
Final contraction and storage  ... done (      0.3 sec)


General Integration Accuracy     IntAcc      ...  3.670
Radial Grid Type                 RadialGrid  ... Gauss-Chebyshev
Angular Grid (max. acc.)         AngularGrid ... Lebedev-50
Angular grid pruning method      GridPruning ... 3 (G Style)
Weight generation scheme         WeightScheme... Becke
Basis function cutoff            BFCut       ...    1.0000e-11
Integration weight cutoff        WCut        ...    1.0000e-14
Grids for H and He will be reduced by one unit

# of grid points (after initial pruning)     ...  61832 (   0.0 sec)
# of grid points (after weights+screening)   ...  54925 (   0.4 sec)
nearest neighbour list constructed           ...    0.0 sec
Grid point re-assignment to atoms done       ...    0.0 sec
Grid point division into batches done        ...    0.0 sec
Reduced shell lists constructed in    0.2 sec

Total number of grid points                  ...    54925
Total number of batches                      ...      910
Average number of points per batch           ...       60
Average number of grid points per atom       ...      584
Average number of shells per batch           ...   153.50 (29.86%)
Average number of basis functions per batch  ...   325.28 (28.29%)
Average number of large shells per batch     ...    83.70 (54.53%)
Average number of large basis fcns per batch ...   179.39 (55.15%)
Maximum spatial batch extension              ...  16.91, 14.23, 18.84 au
Average spatial batch extension              ...   0.47,  0.46,  0.64 au

Overlap Fitting                  UseSFitting ... on
Constructing numerical overlap ... done (      0.2 sec)
Inverting numerical overlap    ... done (      0.1 sec)
Obtaining analytic overlap     ... done (      0.0 sec)
Final contraction and storage  ... done (      0.3 sec)


General Integration Accuracy     IntAcc      ...  4.010
Radial Grid Type                 RadialGrid  ... Gauss-Chebyshev
Angular Grid (max. acc.)         AngularGrid ... Lebedev-110
Angular grid pruning method      GridPruning ... 3 (G Style)
Weight generation scheme         WeightScheme... Becke
Basis function cutoff            BFCut       ...    1.0000e-11
Integration weight cutoff        WCut        ...    1.0000e-14
Grids for H and He will be reduced by one unit

# of grid points (after initial pruning)     ... 121520 (   0.0 sec)
# of grid points (after weights+screening)   ... 106469 (   0.8 sec)
nearest neighbour list constructed           ...    0.0 sec
Grid point re-assignment to atoms done       ...    0.0 sec
Grid point division into batches done        ...    0.1 sec
Reduced shell lists constructed in    0.4 sec

Total number of grid points                  ...   106469
Total number of batches                      ...     1704
Average number of points per batch           ...       62
Average number of grid points per atom       ...     1133
Average number of shells per batch           ...   146.15 (28.43%)
Average number of basis functions per batch  ...   308.82 (26.85%)
Average number of large shells per batch     ...    80.76 (55.26%)
Average number of large basis fcns per batch ...   173.09 (56.05%)
Maximum spatial batch extension              ...  14.63, 13.74, 19.34 au
Average spatial batch extension              ...   0.43,  0.42,  0.53 au

Overlap Fitting                  UseSFitting ... on
Constructing numerical overlap ... done (      0.4 sec)
Inverting numerical overlap    ... done (      0.1 sec)
Obtaining analytic overlap     ... done (      0.0 sec)
Final contraction and storage  ... done (      0.3 sec)

Time for X-Grid setup             =    4.351 sec
--------------
SCF ITERATIONS
--------------
ITER       Energy         Delta-E        Max-DP      RMS-DP      [F,P]     Damp
               ***  Starting incremental Fock matrix formation  ***
  0  -5879.7574219935   0.000000000000 0.08221809  0.00109271  0.2426017 0.7000
  1  -5880.4687758850  -0.711353891558 0.05882401  0.00077949  0.1089171 0.7000
                               ***Turning on DIIS***
  2  -5880.7659476195  -0.297171734519 0.11098943  0.00139335  0.0428731 0.0000
  3  -5881.2189926667  -0.453045047117 0.05613414  0.00062244  0.0588939 0.0000
  4  -5881.3307026700  -0.111710003375 0.01572143  0.00022208  0.0140233 0.0000
  5  -5881.3381053632  -0.007402693178 0.00698614  0.00008552  0.0101090 0.0000
                      *** Initiating the SOSCF procedure ***
                           *** Shutting down DIIS ***
                      *** Re-Reading the Fockian *** 
                      *** Removing any level shift *** 
ITER      Energy       Delta-E        Grad      Rot      Max-DP    RMS-DP
  6  -5881.33997773  -0.0018723711  0.002879  0.002879  0.003044  0.000048
               *** Restarting incremental Fock matrix formation ***
  7  -5881.34067185  -0.0006941188  0.002257  0.019720  0.004322  0.000068
  8  -5881.34142534  -0.0007534896  0.001870  0.040186  0.008435  0.000130
  9  -5881.34155377  -0.0001284235  0.002009  0.007504  0.004178  0.000040
 10  -5881.34187449  -0.0003207194  0.000488  0.004471  0.001345  0.000020
 11  -5881.34188326  -0.0000087737  0.000240  0.002080  0.000791  0.000010
 12  -5881.34190653  -0.0000232754  0.000109  0.001923  0.000816  0.000007
 13  -5881.34190758  -0.0000010460  0.000088  0.000434  0.000287  0.000003
 14  -5881.34190986  -0.0000022763  0.000043  0.000386  0.000276  0.000002
 15  -5881.34190990  -0.0000000392  0.000038  0.000326  0.000144  0.000001
 16  -5881.34191024  -0.0000003434  0.000014  0.000173  0.000090  0.000001
 17  -5881.34191025  -0.0000000064  0.000016  0.000119  0.000039  0.000000
 18  -5881.34191022   0.0000000250  0.000004  0.000064  0.000017  0.000000
 19  -5881.34191025  -0.0000000301  0.000004  0.000030  0.000010  0.000000
                  ***Gradient check signals convergence***
              ***Rediagonalizing the Fockian in SOSCF/NRSCF***

               *****************************************************
               *                     SUCCESS                       *
               *           SCF CONVERGED AFTER  20 CYCLES          *
               *****************************************************

Setting up the final grid:

General Integration Accuracy     IntAcc      ...  5.010
Radial Grid Type                 RadialGrid  ... Gauss-Chebyshev
Angular Grid (max. acc.)         AngularGrid ... Lebedev-434
Angular grid pruning method      GridPruning ... 3 (G Style)
Weight generation scheme         WeightScheme... Becke
Basis function cutoff            BFCut       ...    1.0000e-11
Integration weight cutoff        WCut        ...    1.0000e-14
Grids for H and He will be reduced by one unit

# of grid points (after initial pruning)     ... 925744 (   0.0 sec)
# of grid points (after weights+screening)   ... 783328 (   5.7 sec)
nearest neighbour list constructed           ...    0.0 sec
Grid point re-assignment to atoms done       ...    0.1 sec
Grid point division into batches done        ...    5.6 sec
Reduced shell lists constructed in    7.4 sec

Total number of grid points                  ...   783328
Total number of batches                      ...    12289
Average number of points per batch           ...       63
Average number of grid points per atom       ...     8333
Average number of shells per batch           ...   127.14 (24.74%)
Average number of basis functions per batch  ...   265.06 (23.05%)
Average number of large shells per batch     ...    69.80 (54.90%)
Average number of large basis fcns per batch ...   148.08 (55.87%)
Maximum spatial batch extension              ...  16.77, 18.43, 22.85 au
Average spatial batch extension              ...   0.22,  0.22,  0.24 au

Final grid set up in   13.3 sec
Final integration                            ... done (   3.0 sec)
Change in XC energy                          ...    -0.000062510
Integrated number of electrons               ...   548.000010177
Previous integrated no of electrons          ...   548.000277934
Old exchange energy                            =   -149.546547106 Eh
New exchange energy                            =   -149.542728791 Eh
Exchange energy change after final integration =      0.003818315 Eh
Total energy after final integration           =  -5881.338154408 Eh
Final COS-X integration done in                =    64.027 sec

----------------
TOTAL SCF ENERGY
----------------

Total Energy       :        -5881.33815441 Eh         -160039.34742 eV

Components:
Nuclear Repulsion  :        12913.70683084 Eh          351399.82769 eV
Electronic Energy  :       -18795.04498524 Eh         -511439.17511 eV
One Electron Energy:       -33807.40365599 Eh         -919946.22264 eV
Two Electron Energy:        15012.35867075 Eh          408507.04753 eV

Virial components:
Potential Energy   :       -11730.95806787 Eh         -319215.59763 eV
Kinetic Energy     :         5849.61991346 Eh          159176.25021 eV
Virial Ratio       :            2.00542227


DFT components:
N(Alpha)           :      274.000005088552 electrons
N(Beta)            :      274.000005088552 electrons
N(Total)           :      548.000010177105 electrons
E(XC)              :     -431.559315627111 Eh       
DFET-embed. en.    :        0.000000000000 Eh       

---------------
SCF CONVERGENCE
---------------

  Last Energy change         ...    3.8608e-08  Tolerance :   1.0000e-08
  Last MAX-Density change    ...    6.6613e-15  Tolerance :   1.0000e-07
  Last RMS-Density change    ...    4.0353e-17  Tolerance :   5.0000e-09
  Last Orbital Gradient      ...    1.7307e-06  Tolerance :   1.0000e-05
  Last Orbital Rotation      ...    1.2626e-05  Tolerance :   1.0000e-05

             **** THE GBW FILE WAS UPDATED (xtbopt.gbw) ****
             **** DENSITY FILE WAS UPDATED (xtbopt.scfp) ****
             **** ENERGY FILE WAS UPDATED (xtbopt.en.tmp) ****
             **** THE GBW FILE WAS UPDATED (xtbopt.gbw) ****
             **** DENSITY FILE WAS UPDATED (xtbopt.scfp) ****
----------------
ORBITAL ENERGIES
----------------

  NO   OCC          E(Eh)            E(eV) 
   0   2.0000     -88.984256     -2421.3847 
   1   2.0000     -88.982262     -2421.3304 
   2   2.0000     -88.965805     -2420.8826 
   3   2.0000     -88.965031     -2420.8616 
   4   2.0000     -88.960750     -2420.7451 
   5   2.0000     -88.958726     -2420.6900 
   6   2.0000     -88.958286     -2420.6780 
   7   2.0000     -88.957164     -2420.6475 
   8   2.0000     -19.256101      -523.9851 
   9   2.0000     -19.205729      -522.6145 
  10   2.0000     -19.200113      -522.4616 
  11   2.0000     -19.197668      -522.3951 
  12   2.0000     -14.419952      -392.3869 
  13   2.0000     -14.419312      -392.3694 
  14   2.0000     -14.406078      -392.0093 
  15   2.0000     -14.404013      -391.9531 
  16   2.0000     -14.401551      -391.8861 
  17   2.0000     -14.397639      -391.7797 
  18   2.0000     -10.399791      -282.9927 
  19   2.0000     -10.359887      -281.9069 
  20   2.0000     -10.353925      -281.7446 
  21   2.0000     -10.352266      -281.6995 
  22   2.0000     -10.336103      -281.2597 
  23   2.0000     -10.330972      -281.1200 
  24   2.0000     -10.329728      -281.0862 
  25   2.0000     -10.328997      -281.0663 
  26   2.0000     -10.327301      -281.0202 
  27   2.0000     -10.327087      -281.0143 
  28   2.0000     -10.326121      -280.9880 
  29   2.0000     -10.324116      -280.9335 
  30   2.0000     -10.323279      -280.9107 
  31   2.0000     -10.323027      -280.9039 
  32   2.0000     -10.322997      -280.9030 
  33   2.0000     -10.320209      -280.8272 
  34   2.0000     -10.319394      -280.8050 
  35   2.0000     -10.319342      -280.8036 
  36   2.0000     -10.318509      -280.7809 
  37   2.0000     -10.317474      -280.7527 
  38   2.0000     -10.316446      -280.7248 
  39   2.0000     -10.315213      -280.6912 
  40   2.0000     -10.314144      -280.6621 
  41   2.0000     -10.312234      -280.6102 
  42   2.0000     -10.312173      -280.6085 
  43   2.0000     -10.309812      -280.5442 
  44   2.0000     -10.309289      -280.5300 
  45   2.0000     -10.306863      -280.4640 
  46   2.0000     -10.305721      -280.4329 
  47   2.0000     -10.304595      -280.4023 
  48   2.0000     -10.304576      -280.4018 
  49   2.0000     -10.304513      -280.4000 
  50   2.0000     -10.304418      -280.3975 
  51   2.0000     -10.304372      -280.3962 
  52   2.0000     -10.304270      -280.3935 
  53   2.0000     -10.302965      -280.3579 
  54   2.0000     -10.301603      -280.3209 
  55   2.0000     -10.300344      -280.2866 
  56   2.0000     -10.299094      -280.2526 
  57   2.0000     -10.298115      -280.2260 
  58   2.0000     -10.296804      -280.1903 
  59   2.0000     -10.295211      -280.1469 
  60   2.0000     -10.294365      -280.1239 
  61   2.0000     -10.293605      -280.1032 
  62   2.0000     -10.293397      -280.0976 
  63   2.0000     -10.292448      -280.0717 
  64   2.0000     -10.285816      -279.8913 
  65   2.0000     -10.282826      -279.8099 
  66   2.0000     -10.280871      -279.7567 
  67   2.0000     -10.277908      -279.6761 
  68   2.0000     -10.275391      -279.6076 
  69   2.0000     -10.273009      -279.5428 
  70   2.0000     -10.272685      -279.5340 
  71   2.0000     -10.267053      -279.3807 
  72   2.0000      -8.078806      -219.8355 
  73   2.0000      -8.076898      -219.7836 
  74   2.0000      -8.061690      -219.3697 
  75   2.0000      -8.059820      -219.3189 
  76   2.0000      -8.056718      -219.2344 
  77   2.0000      -8.054887      -219.1846 
  78   2.0000      -8.054624      -219.1775 
  79   2.0000      -8.052435      -219.1179 
  80   2.0000      -6.048088      -164.5768 
  81   2.0000      -6.046175      -164.5248 
  82   2.0000      -6.044066      -164.4674 
  83   2.0000      -6.041982      -164.4107 
  84   2.0000      -6.040966      -164.3831 
  85   2.0000      -6.039213      -164.3353 
  86   2.0000      -6.030920      -164.1097 
  87   2.0000      -6.029134      -164.0611 
  88   2.0000      -6.026390      -163.9864 
  89   2.0000      -6.026052      -163.9772 
  90   2.0000      -6.024906      -163.9460 
  91   2.0000      -6.024595      -163.9376 
  92   2.0000      -6.024271      -163.9288 
  93   2.0000      -6.024236      -163.9278 
  94   2.0000      -6.022017      -163.8674 
  95   2.0000      -6.021918      -163.8647 
  96   2.0000      -6.021474      -163.8526 
  97   2.0000      -6.020308      -163.8209 
  98   2.0000      -6.019979      -163.8120 
  99   2.0000      -6.019124      -163.7887 
 100   2.0000      -6.017795      -163.7525 
 101   2.0000      -6.015964      -163.7027 
 102   2.0000      -6.015832      -163.6991 
 103   2.0000      -6.014018      -163.6497 
 104   2.0000      -1.187819       -32.3222 
 105   2.0000      -1.120895       -30.5011 
 106   2.0000      -1.113274       -30.2937 
 107   2.0000      -1.093947       -29.7678 
 108   2.0000      -1.037300       -28.2264 
 109   2.0000      -1.014879       -27.6163 
 110   2.0000      -1.014628       -27.6094 
 111   2.0000      -1.011575       -27.5263 
 112   2.0000      -1.009014       -27.4567 
 113   2.0000      -1.005476       -27.3604 
 114   2.0000      -0.997842       -27.1527 
 115   2.0000      -0.994763       -27.0689 
 116   2.0000      -0.993680       -27.0394 
 117   2.0000      -0.991594       -26.9827 
 118   2.0000      -0.986087       -26.8328 
 119   2.0000      -0.982670       -26.7398 
 120   2.0000      -0.979448       -26.6521 
 121   2.0000      -0.955478       -25.9999 
 122   2.0000      -0.953389       -25.9430 
 123   2.0000      -0.946678       -25.7604 
 124   2.0000      -0.944010       -25.6878 
 125   2.0000      -0.917213       -24.9586 
 126   2.0000      -0.908561       -24.7232 
 127   2.0000      -0.895198       -24.3596 
 128   2.0000      -0.886356       -24.1190 
 129   2.0000      -0.881267       -23.9805 
 130   2.0000      -0.872588       -23.7443 
 131   2.0000      -0.869965       -23.6730 
 132   2.0000      -0.861843       -23.4519 
 133   2.0000      -0.860396       -23.4126 
 134   2.0000      -0.857484       -23.3333 
 135   2.0000      -0.850491       -23.1430 
 136   2.0000      -0.849024       -23.1031 
 137   2.0000      -0.844251       -22.9732 
 138   2.0000      -0.838392       -22.8138 
 139   2.0000      -0.832444       -22.6520 
 140   2.0000      -0.819175       -22.2909 
 141   2.0000      -0.802617       -21.8403 
 142   2.0000      -0.791585       -21.5401 
 143   2.0000      -0.786629       -21.4053 
 144   2.0000      -0.783328       -21.3154 
 145   2.0000      -0.779704       -21.2168 
 146   2.0000      -0.773791       -21.0559 
 147   2.0000      -0.765361       -20.8265 
 148   2.0000      -0.746958       -20.3258 
 149   2.0000      -0.731900       -19.9160 
 150   2.0000      -0.724680       -19.7196 
 151   2.0000      -0.721504       -19.6331 
 152   2.0000      -0.713552       -19.4167 
 153   2.0000      -0.702111       -19.1054 
 154   2.0000      -0.693054       -18.8590 
 155   2.0000      -0.687051       -18.6956 
 156   2.0000      -0.680083       -18.5060 
 157   2.0000      -0.675421       -18.3792 
 158   2.0000      -0.672742       -18.3062 
 159   2.0000      -0.660417       -17.9708 
 160   2.0000      -0.657767       -17.8987 
 161   2.0000      -0.653418       -17.7804 
 162   2.0000      -0.650211       -17.6931 
 163   2.0000      -0.647220       -17.6118 
 164   2.0000      -0.637814       -17.3558 
 165   2.0000      -0.636543       -17.3212 
 166   2.0000      -0.630321       -17.1519 
 167   2.0000      -0.626061       -17.0360 
 168   2.0000      -0.617832       -16.8121 
 169   2.0000      -0.607658       -16.5352 
 170   2.0000      -0.606893       -16.5144 
 171   2.0000      -0.604827       -16.4582 
 172   2.0000      -0.596456       -16.2304 
 173   2.0000      -0.593999       -16.1635 
 174   2.0000      -0.592046       -16.1104 
 175   2.0000      -0.583437       -15.8761 
 176   2.0000      -0.580914       -15.8075 
 177   2.0000      -0.572899       -15.5894 
 178   2.0000      -0.570534       -15.5250 
 179   2.0000      -0.567206       -15.4344 
 180   2.0000      -0.557985       -15.1836 
 181   2.0000      -0.551720       -15.0131 
 182   2.0000      -0.550348       -14.9757 
 183   2.0000      -0.548872       -14.9356 
 184   2.0000      -0.543415       -14.7871 
 185   2.0000      -0.535648       -14.5757 
 186   2.0000      -0.533828       -14.5262 
 187   2.0000      -0.531733       -14.4692 
 188   2.0000      -0.529032       -14.3957 
 189   2.0000      -0.527387       -14.3509 
 190   2.0000      -0.520838       -14.1727 
 191   2.0000      -0.517940       -14.0939 
 192   2.0000      -0.516848       -14.0641 
 193   2.0000      -0.515485       -14.0271 
 194   2.0000      -0.513303       -13.9677 
 195   2.0000      -0.510806       -13.8997 
 196   2.0000      -0.508175       -13.8282 
 197   2.0000      -0.506464       -13.7816 
 198   2.0000      -0.505253       -13.7486 
 199   2.0000      -0.503784       -13.7086 
 200   2.0000      -0.501767       -13.6538 
 201   2.0000      -0.500990       -13.6326 
 202   2.0000      -0.500295       -13.6137 
 203   2.0000      -0.495859       -13.4930 
 204   2.0000      -0.495287       -13.4774 
 205   2.0000      -0.492766       -13.4088 
 206   2.0000      -0.491175       -13.3655 
 207   2.0000      -0.489881       -13.3303 
 208   2.0000      -0.484595       -13.1865 
 209   2.0000      -0.480462       -13.0740 
 210   2.0000      -0.475938       -12.9509 
 211   2.0000      -0.474273       -12.9056 
 212   2.0000      -0.472559       -12.8590 
 213   2.0000      -0.470059       -12.7910 
 214   2.0000      -0.469158       -12.7664 
 215   2.0000      -0.465587       -12.6693 
 216   2.0000      -0.463461       -12.6114 
 217   2.0000      -0.462883       -12.5957 
 218   2.0000      -0.460041       -12.5184 
 219   2.0000      -0.453370       -12.3368 
 220   2.0000      -0.451982       -12.2990 
 221   2.0000      -0.450136       -12.2488 
 222   2.0000      -0.448687       -12.2094 
 223   2.0000      -0.446505       -12.1500 
 224   2.0000      -0.445631       -12.1262 
 225   2.0000      -0.443693       -12.0735 
 226   2.0000      -0.442349       -12.0369 
 227   2.0000      -0.440333       -11.9821 
 228   2.0000      -0.439097       -11.9484 
 229   2.0000      -0.436931       -11.8895 
 230   2.0000      -0.433997       -11.8096 
 231   2.0000      -0.433231       -11.7888 
 232   2.0000      -0.432476       -11.7683 
 233   2.0000      -0.430552       -11.7159 
 234   2.0000      -0.430273       -11.7083 
 235   2.0000      -0.428871       -11.6702 
 236   2.0000      -0.426899       -11.6165 
 237   2.0000      -0.426377       -11.6023 
 238   2.0000      -0.425051       -11.5662 
 239   2.0000      -0.422799       -11.5049 
 240   2.0000      -0.420535       -11.4433 
 241   2.0000      -0.419026       -11.4023 
 242   2.0000      -0.416445       -11.3320 
 243   2.0000      -0.415500       -11.3063 
 244   2.0000      -0.413727       -11.2581 
 245   2.0000      -0.410573       -11.1723 
 246   2.0000      -0.407809       -11.0970 
 247   2.0000      -0.404195       -10.9987 
 248   2.0000      -0.400162       -10.8890 
 249   2.0000      -0.396172       -10.7804 
 250   2.0000      -0.392359       -10.6766 
 251   2.0000      -0.388364       -10.5679 
 252   2.0000      -0.387171       -10.5355 
 253   2.0000      -0.380553       -10.3554 
 254   2.0000      -0.374335       -10.1862 
 255   2.0000      -0.365102        -9.9349 
 256   2.0000      -0.354137        -9.6365 
 257   2.0000      -0.351844        -9.5742 
 258   2.0000      -0.343697        -9.3525 
 259   2.0000      -0.341156        -9.2833 
 260   2.0000      -0.334085        -9.0909 
 261   2.0000      -0.328081        -8.9275 
 262   2.0000      -0.327794        -8.9197 
 263   2.0000      -0.321635        -8.7521 
 264   2.0000      -0.317727        -8.6458 
 265   2.0000      -0.315348        -8.5811 
 266   2.0000      -0.312952        -8.5159 
 267   2.0000      -0.309697        -8.4273 
 268   2.0000      -0.305972        -8.3259 
 269   2.0000      -0.293654        -7.9907 
 270   2.0000      -0.288840        -7.8597 
 271   2.0000      -0.278094        -7.5673 
 272   2.0000      -0.250916        -6.8278 
 273   2.0000      -0.214957        -5.8493 
 274   0.0000      -0.114045        -3.1033 
 275   0.0000      -0.096948        -2.6381 
 276   0.0000      -0.077067        -2.0971 
 277   0.0000      -0.061976        -1.6865 
 278   0.0000      -0.035574        -0.9680 
 279   0.0000      -0.031148        -0.8476 
 280   0.0000      -0.015805        -0.4301 
 281   0.0000      -0.007702        -0.2096 
 282   0.0000       0.008297         0.2258 
 283   0.0000       0.016834         0.4581 
 284   0.0000       0.027580         0.7505 
 285   0.0000       0.037396         1.0176 
 286   0.0000       0.040648         1.1061 
 287   0.0000       0.047591         1.2950 
 288   0.0000       0.048267         1.3134 
 289   0.0000       0.052952         1.4409 
 290   0.0000       0.054381         1.4798 
 291   0.0000       0.058311         1.5867 
 292   0.0000       0.066014         1.7963 
 293   0.0000       0.070251         1.9116 
 294   0.0000       0.072797         1.9809 
 295   0.0000       0.074315         2.0222 
 296   0.0000       0.076009         2.0683 
 297   0.0000       0.084651         2.3035 
 298   0.0000       0.089167         2.4264 
 299   0.0000       0.092640         2.5209 
 300   0.0000       0.097538         2.6541 
 301   0.0000       0.100723         2.7408 
 302   0.0000       0.104408         2.8411 
 303   0.0000       0.109175         2.9708 
 304   0.0000       0.112177         3.0525 
 305   0.0000       0.113501         3.0885 
 306   0.0000       0.113962         3.1011 
 307   0.0000       0.114806         3.1240 
 308   0.0000       0.116971         3.1830 
 309   0.0000       0.119498         3.2517 
 310   0.0000       0.120884         3.2894 
 311   0.0000       0.123744         3.3672 
 312   0.0000       0.124246         3.3809 
 313   0.0000       0.126600         3.4450 
 314   0.0000       0.126997         3.4558 
 315   0.0000       0.131696         3.5836 
 316   0.0000       0.131741         3.5849 
 317   0.0000       0.133762         3.6398 
 318   0.0000       0.137775         3.7490 
[...]

-----------------------------------------------------------------------------
         ABSORPTION SPECTRUM VIA TRANSITION ELECTRIC DIPOLE MOMENTS
-----------------------------------------------------------------------------
State   Energy  Wavelength   fosc         T2         TX        TY        TZ  
        (cm-1)    (nm)                  (au**2)     (au)      (au)      (au) 
-----------------------------------------------------------------------------
   0    7943.2   1258.9   0.264872575  10.97788   0.03639   3.19805   0.86548
   1   10157.3    984.5   0.127337828   4.12718  -1.90247   0.57036   0.42715
   2   14950.0    668.9   0.115729512   2.54846  -1.39783   0.62511   0.45140
   3   16964.7    589.5   0.990374076  19.21892  -4.35878   0.45202   0.12492
   4   17751.7    563.3   0.202774024   3.76052  -1.27027  -1.46254  -0.08887
   5   19464.7    513.8   0.753556325  12.74511   3.03023   1.87136  -0.24666
   6   21459.1    466.0   0.119849495   1.83865   1.08131   0.81623  -0.05660
   7   21831.1    458.1   0.295276355   4.45275   0.11965   2.09122  -0.25539
   8   23512.9    425.3   0.194166440   2.71859  -0.08763  -1.56133  -0.52265
   9   24255.3    412.3   0.065593836   0.89029  -0.16510   0.76345   0.52931
  10   24661.6    405.5   0.109850228   1.46641   0.95626  -0.58164  -0.46225
  11   25261.1    395.9   0.020369056   0.26546   0.39790  -0.32529   0.03633
  12   26503.2    377.3   0.039036524   0.48489  -0.02046   0.53712   0.44269
  13   26621.9    375.6   0.014038236   0.17360  -0.31841   0.21431   0.16214
  14   26861.8    372.3   0.198730980   2.43560   1.00824  -1.03115  -0.59646
  15   26876.6    372.1   0.006847855   0.08388   0.22272  -0.15611  -0.09952
  16   27439.0    364.4   0.256255132   3.07454   1.23271  -0.80544  -0.95196
  17   27772.0    360.1   0.099096920   1.17470  -0.18801  -0.79086  -0.71687
  18   28202.5    354.6   0.022760467   0.26569   0.30323  -0.06335   0.41198
  19   28495.8    350.9   0.042552488   0.49161  -0.34268   0.60378   0.09810
  20   28880.3    346.3   0.006421770   0.07320  -0.23266  -0.10760   0.08658
  21   28975.5    345.1   0.009121458   0.10364   0.18032   0.15055  -0.22012
  22   29555.1    338.4   0.096245975   1.07208   0.36986   0.62889   0.73469
  23   29782.6    335.8   0.052141779   0.57637  -0.52585   0.53706   0.10684
  24   30001.3    333.3   0.008726367   0.09576   0.29763   0.07475  -0.03981
  25   30516.8    327.7   0.055975019   0.60385  -0.12235  -0.40426  -0.65227
  26   30539.1    327.4   0.079792854   0.86017  -0.39223   0.52793   0.65392
  27   30884.5    323.8   0.094403999   1.00629   0.03316   0.70928   0.70860
  28   31035.2    322.2   0.047001477   0.49858  -0.42897   0.19825   0.52465
  29   31466.4    317.8   0.041610821   0.43535  -0.08965  -0.54249  -0.36472
  30   31674.7    315.7   0.031669345   0.32916   0.24015  -0.43469  -0.28728
  31   32056.7    311.9   0.138685231   1.42425  -0.98354  -0.66147  -0.13917
  32   32068.7    311.8   0.128400875   1.31814  -1.13256   0.16859   0.08385
  33   32251.6    310.1   0.092402200   0.94321   0.88172  -0.30718  -0.26723
  34   32662.5    306.2   0.090008299   0.90721   0.34580   0.75865   0.46052
  35   32867.8    304.2   0.009995716   0.10012   0.21641   0.19133  -0.12915
  36   33153.8    301.6   0.055467308   0.55078  -0.62165   0.33424   0.22936
  37   33328.5    300.0   0.144906920   1.43136   1.15557  -0.23040  -0.20721
  38   33533.8    298.2   0.163852933   1.60860   1.26763  -0.03445   0.02318
  39   33848.3    295.4   0.093197413   0.90645  -0.04137   0.71916   0.62253
  40   34052.2    293.7   0.060937247   0.58913   0.41453  -0.61656  -0.19275
  41   34273.4    291.8   0.111078017   1.06696  -0.53030  -0.67728  -0.57187
  42   34752.3    287.8   0.027114234   0.25686   0.47457   0.17694   0.01809
  43   34988.5    285.8   0.003366351   0.03167  -0.11835   0.09242  -0.09554
  44   35352.6    282.9   0.022220426   0.20692   0.39368   0.02226   0.22680
  45   35579.3    281.1   0.018714850   0.17317   0.36017   0.20626   0.02999
  46   35866.9    278.8   0.005662263   0.05197  -0.21140  -0.07933  -0.03144
  47   35953.6    278.1   0.018615573   0.17045   0.30470  -0.27478  -0.04588
  48   36074.6    277.2   0.092382682   0.84307  -0.78542  -0.43670   0.18834
  49   36234.2    276.0   0.009016990   0.08193  -0.23693  -0.15924   0.02083
  50   36543.8    273.6   0.030378817   0.27367  -0.52015   0.00383  -0.05568
  51   36660.4    272.8   0.014833618   0.13321   0.18660   0.30147  -0.08660
  52   36823.8    271.6   0.007056136   0.06308   0.13930   0.15490  -0.14030
  53   37030.5    270.0   0.029551517   0.26272  -0.03093   0.50269   0.09525
  54   37262.6    268.4   0.293100083   2.58951  -1.14188   1.11114   0.22581
  55   37535.7    266.4   0.196926747   1.72717  -1.17019   0.48796   0.34601
  56   37589.2    266.0   0.002245491   0.01967   0.04648  -0.11051  -0.07276
  57   37753.5    264.9   0.145016597   1.26455   1.06898   0.30701  -0.16605
  58   37986.5    263.3   0.094577652   0.81966   0.76131   0.36828  -0.32317
  59   38350.3    260.8   0.002274681   0.01953  -0.10587  -0.04356   0.08014
  60   38354.1    260.7   0.115957033   0.99531   0.93221  -0.19408  -0.29770
  61   38486.2    259.8   0.021458478   0.18356  -0.39973   0.09669   0.12011
  62   38948.0    256.8   0.030415197   0.25709  -0.04244   0.24325   0.44285
  63   39005.0    256.4   0.054699085   0.46167  -0.50193   0.29515   0.35018
  64   39099.1    255.8   0.008385913   0.07061  -0.19358   0.14409   0.11124
  65   39275.4    254.6   0.032175242   0.26970   0.23571  -0.19249  -0.42082
  66   39443.8    253.5   0.008099597   0.06760   0.15707  -0.00506  -0.20714
  67   39560.9    252.8   0.058196774   0.48429  -0.17522   0.65226   0.16777
  68   39756.5    251.5   0.110355909   0.91383  -0.22108  -0.92283  -0.11545
  69   39826.3    251.1   0.016583945   0.13709   0.23847  -0.23059  -0.16446
  70   40077.6    249.5   0.006205959   0.05098  -0.19447   0.11384   0.01416
  71   40185.5    248.8   0.047012136   0.38514   0.17111   0.55410   0.22097

-----------------------------------------------------------------------------
         ABSORPTION SPECTRUM VIA TRANSITION VELOCITY DIPOLE MOMENTS
-----------------------------------------------------------------------------
State   Energy  Wavelength   fosc         P2         PX        PY        PZ  
        (cm-1)    (nm)                  (au**2)     (au)      (au)      (au) 
-----------------------------------------------------------------------------
   0    7943.2   1258.9   0.822462408   0.04465  -0.00673   0.20406   0.05444
   1   10157.3    984.5   0.274576144   0.01906  -0.12694   0.04441   0.03122
   2   14950.0    668.9   0.180732691   0.01847  -0.11882   0.05371   0.03825
   3   16964.7    589.5   1.283704834   0.14884  -0.38281   0.04515   0.01609
   4   17751.7    563.3   0.266019156   0.03227  -0.11944  -0.13401  -0.00703
   5   19464.7    513.8   0.980787809   0.13048   0.30308   0.19537  -0.02118
   6   21459.1    466.0   0.152878258   0.02242   0.11783   0.09226  -0.00502
   7   21831.1    458.1   0.343532088   0.05126   0.01550   0.22489  -0.02099
   8   23512.9    425.3   0.222939654   0.03583  -0.00724  -0.17962  -0.05925
   9   24255.3    412.3   0.070518977   0.01169  -0.01650   0.08946   0.05844
  10   24661.6    405.5   0.119599465   0.02016   0.11257  -0.06813  -0.05334
  11   25261.1    395.9   0.024469013   0.00422   0.04885  -0.04282   0.00211
  12   26503.2    377.3   0.031682940   0.00574  -0.00248   0.05614   0.05080
  13   26621.9    375.6   0.015219160   0.00277  -0.03736   0.03046   0.02111
  14   26861.8    372.3   0.208580109   0.03829   0.12365  -0.13196  -0.07476
  15   26876.6    372.1   0.005787753   0.00106   0.02666  -0.01567  -0.01034
  16   27439.0    364.4   0.260786310   0.04891   0.15436  -0.10552  -0.11808
  17   27772.0    360.1   0.091563061   0.01738  -0.02443  -0.09803  -0.08469
  18   28202.5    354.6   0.022156367   0.00427   0.03852  -0.01295   0.05118
  19   28495.8    350.9   0.046612637   0.00908  -0.05144   0.07911   0.01319
  20   28880.3    346.3   0.007565636   0.00149  -0.03402  -0.01352   0.01239
  21   28975.5    345.1   0.007979047   0.00158   0.02313   0.02044  -0.02505
  22   29555.1    338.4   0.093237113   0.01883   0.04534   0.08642   0.09649
  23   29782.6    335.8   0.047799446   0.00973  -0.06758   0.07057   0.01352
  24   30001.3    333.3   0.008171243   0.00168   0.03980   0.00616  -0.00731
  25   30516.8    327.7   0.058573367   0.01222  -0.01340  -0.06329  -0.08962
  26   30539.1    327.4   0.078105426   0.01630  -0.05839   0.07210   0.08772
  27   30884.5    323.8   0.090696112   0.01914   0.00126   0.09929   0.09636
  28   31035.2    322.2   0.043456105   0.00922  -0.05982   0.02547   0.07064
  29   31466.4    317.8   0.033560592   0.00722  -0.00998  -0.07044  -0.04644
  30   31674.7    315.7   0.030631630   0.00663   0.03620  -0.06044  -0.04083
  31   32056.7    311.9   0.139875615   0.03065  -0.14760  -0.09274  -0.01606
  32   32068.7    311.8   0.119750347   0.02625  -0.15990   0.02270   0.01270
  33   32251.6    310.1   0.083977778   0.01851   0.12448  -0.04005  -0.03757
  34   32662.5    306.2   0.087702612   0.01958   0.04781   0.11318   0.06696
  35   32867.8    304.2   0.008594185   0.00193   0.03108   0.02500  -0.01843
  36   33153.8    301.6   0.058000605   0.01314  -0.09388   0.05529   0.03567
  37   33328.5    300.0   0.137283315   0.03127   0.17094  -0.03413  -0.02976
  38   33533.8    298.2   0.135941018   0.03116   0.17638  -0.00312   0.00598
  39   33848.3    295.4   0.087592217   0.02026  -0.00564   0.10895   0.09144
  40   34052.2    293.7   0.053374465   0.01242   0.05654  -0.09192  -0.02784
  41   34273.4    291.8   0.099874030   0.02339  -0.07500  -0.10121  -0.08676
  42   34752.3    287.8   0.025189956   0.00598   0.07317   0.02507   0.00099
  43   34988.5    285.8   0.002788383   0.00067  -0.01655   0.01456  -0.01346
  44   35352.6    282.9   0.018453759   0.00446   0.05698   0.00192   0.03476
  45   35579.3    281.1   0.015977371   0.00389   0.05353   0.03178   0.00317
  46   35866.9    278.8   0.004191752   0.00103  -0.03040  -0.00913  -0.00445
  47   35953.6    278.1   0.016895781   0.00415   0.04666  -0.04377  -0.00767
  48   36074.6    277.2   0.084068751   0.02073  -0.12321  -0.06816   0.03002
  49   36234.2    276.0   0.007788123   0.00193  -0.03542  -0.02558   0.00446
  50   36543.8    273.6   0.026189570   0.00654  -0.08041   0.00455  -0.00741
  51   36660.4    272.8   0.012619851   0.00316   0.02920   0.04566  -0.01498
  52   36823.8    271.6   0.006425592   0.00162   0.02082   0.02817  -0.01975
  53   37030.5    270.0   0.023528411   0.00595  -0.00576   0.07563   0.01422
  54   37262.6    268.4   0.257140810   0.06549  -0.18068   0.17758   0.03613
  55   37535.7    266.4   0.170854699   0.04383  -0.18615   0.07809   0.05550
  56   37589.2    266.0   0.002784528   0.00072   0.00782  -0.02230  -0.01252
  57   37753.5    264.9   0.124532470   0.03213   0.17002   0.05107  -0.02483
  58   37986.5    263.3   0.082173065   0.02133   0.12255   0.06122  -0.05067
  59   38350.3    260.8   0.001679615   0.00044  -0.01660  -0.00608   0.01130
  60   38354.1    260.7   0.095891857   0.02514   0.14726  -0.03338  -0.04835
  61   38486.2    259.8   0.016557646   0.00436  -0.06132   0.01644   0.01804
  62   38948.0    256.8   0.026813033   0.00714  -0.00393   0.04383   0.07212
  63   39005.0    256.4   0.047589433   0.01269  -0.08292   0.04942   0.05804
  64   39099.1    255.8   0.007011747   0.00187  -0.03191   0.02379   0.01701
  65   39275.4    254.6   0.026352055   0.00707   0.03554  -0.03285  -0.06878
  66   39443.8    253.5   0.006854507   0.00185   0.02700  -0.00014  -0.03345
  67   39560.9    252.8   0.047149960   0.01275  -0.02987   0.10564   0.02641
  68   39756.5    251.5   0.090180873   0.02450  -0.03833  -0.15074  -0.01768
  69   39826.3    251.1   0.012790732   0.00348   0.03604  -0.03864  -0.02625
  70   40077.6    249.5   0.006185216   0.00169  -0.03459   0.02168   0.00524
  71   40185.5    248.8   0.038947321   0.01070   0.02710   0.09259   0.03727

-------------------------------------------------------------------
                             CD SPECTRUM
-------------------------------------------------------------------
State   Energy Wavelength       R         MX        MY        MZ   
        (cm-1)   (nm)       (1e40*cgs)   (au)      (au)      (au)  
-------------------------------------------------------------------
   0    7943.2   1258.9    133.58311  -0.13588   1.65676  -6.77099
   1   10157.3    984.5    -62.89681  -0.05853   0.62840  -0.47509
   2   14950.0    668.9     22.88278   0.52446   0.26324   1.04449
   3   16964.7    589.5    -368.99095  -0.09534   1.02369   5.50022
   4   17751.7    563.3    114.60869  -0.17425   0.32299   2.64594
   5   19464.7    513.8    185.45486  -0.48689  -0.44535  -6.17062
   6   21459.1    466.0     71.45504  -0.24680  -0.22862  -2.65588
   7   21831.1    458.1    -158.46368  -0.97519   0.29001  -0.71439
   8   23512.9    425.3    -35.06758  -1.02110  -0.72089   2.04010
   9   24255.3    412.3     56.23973   0.87382   0.66210  -1.13315
  10   24661.6    405.5     21.43951  -0.80705  -0.52921  -0.80688
  11   25261.1    395.9    -48.89421   0.03952  -0.57082   0.16562
  12   26503.2    377.3    -16.25755   0.77080   0.64469  -0.59079
  13   26621.9    375.6      5.98484   0.38262   0.17485   0.36367
  14   26861.8    372.3     51.52855  -1.28920  -0.64923  -0.69035
  15   26876.6    372.1      0.28413  -0.30205  -0.25222  -0.26819
  16   27439.0    364.4      3.45626  -1.64238  -1.05438  -1.21927
  17   27772.0    360.1     10.07048  -1.76196  -0.52549   1.10142
  18   28202.5    354.6     39.84321   0.70955   0.06478  -0.92256
  19   28495.8    350.9    -78.19636   0.05291   0.54839   0.19116
  20   28880.3    346.3      0.92813   0.14970   0.14214   0.53342
  21   28975.5    345.1     15.35133  -0.60458  -0.16594  -0.31289
  22   29555.1    338.4     88.42048   1.80008   0.93162  -2.21422
  23   29782.6    335.8     44.87000   0.47250  -0.07264   0.90908
  24   30001.3    333.3     20.13794  -0.24823  -0.15516  -0.00120
  25   30516.8    327.7    -33.99027  -1.63300  -0.50890   0.40063
  26   30539.1    327.4    119.37675   1.86184   0.57188  -0.11941
  27   30884.5    323.8      8.94720   2.05896   0.75337  -0.90401
  28   31035.2    322.2    116.20511   1.20659   0.28362  -0.06025
  29   31466.4    317.8    -12.98489  -0.60846  -1.01559   1.50912
  30   31674.7    315.7    -27.82491  -0.63033  -0.12162  -0.75377
  31   32056.7    311.9    -33.32422  -0.65185   0.20796   2.60245
  32   32068.7    311.8    -123.23622  -0.26317   0.21552   2.24713
  33   32251.6    310.1     16.04886  -0.83427  -0.62958  -1.77416
  34   32662.5    306.2    -103.15761   1.15064   1.03196  -1.61377
  35   32867.8    304.2    -47.71614  -0.77490   0.27850  -2.45326
  36   33153.8    301.6     -8.29752   0.53831   0.43213   0.98274
  37   33328.5    300.0    -21.12740  -0.39623  -0.02115  -2.61874
  38   33533.8    298.2      7.34454   0.02885   0.03949  -2.86322
  39   33848.3    295.4    105.63976   1.72049   0.90664  -1.65294
  40   34052.2    293.7     29.04600  -0.42740  -0.05094  -0.11694
  41   34273.4    291.8    -94.42804  -1.84835  -0.41561   1.50573
  42   34752.3    287.8      0.86972   0.00432   0.13446  -1.63288
  43   34988.5    285.8     25.56860  -0.15216  -0.22401   1.10717
  44   35352.6    282.9    -14.22814   0.59768   0.22400  -0.79330
  45   35579.3    281.1      3.57465   0.02749   0.04037  -1.11353
  46   35866.9    278.8    -12.68510  -0.25370  -0.19938   0.49741
  47   35953.6    278.1    -21.76933  -0.25993  -0.47684  -0.88324
  48   36074.6    277.2    -93.35305   0.32194  -0.50670   2.27038
  49   36234.2    276.0     -4.73797  -0.11185   0.17611   1.03882
  50   36543.8    273.6     64.37206   0.33456  -0.20950   1.76484
  51   36660.4    272.8    -38.34241  -0.04020   0.37203  -0.66973
  52   36823.8    271.6     -2.39534  -0.15153   0.01170  -0.20997
  53   37030.5    270.0     10.56690   0.26571  -0.02182  -0.26921
  54   37262.6    268.4    -67.09994   0.68263   0.65450   1.49195
  55   37535.7    266.4     35.47045   0.85634  -0.08405   2.57972
  56   37589.2    266.0      4.13560  -0.52717   0.34606  -0.62120
  57   37753.5    264.9    -21.62971  -0.28141   0.05950  -2.25420
  58   37986.5    263.3    -31.04592  -0.73491   0.18165  -1.93177
  59   38350.3    260.8     25.40134   0.23760   0.63346  -0.68653
  60   38354.1    260.7     64.49595  -0.84256   0.44552  -2.00972
  61   38486.2    259.8     18.48796   0.37986   0.05904   0.56367
  62   38948.0    256.8     43.47758   1.33420   0.25908  -0.43093
  63   39005.0    256.4     85.62110   0.87362   0.20858   0.03912
  64   39099.1    255.8      8.40121   0.39144   0.01205   0.34519
  65   39275.4    254.6     67.26328  -1.25844  -0.61756   0.25570
  66   39443.8    253.5     27.91738  -0.50804  -0.14998   0.19020
  67   39560.9    252.8     -4.33633   0.57490   0.07048   0.43607
  68   39756.5    251.5    -25.85739  -0.30376  -0.25813   1.69488
  69   39826.3    251.1    -30.59439  -0.31959  -0.10472  -1.10576
  70   40077.6    249.5      2.70785   0.07570  -0.07258   0.81211
  71   40185.5    248.8    -36.64715   0.62557   0.11096  -0.05911

sTD-DFT done

Total run time:        3.367 sec

           *** ORCA-CIS/TD-DFT FINISHED WITHOUT ERROR ***

-------------------------   --------------------
FINAL SINGLE POINT ENERGY     -5881.338154408138
-------------------------   --------------------


                            ***************************************
                            *     ORCA property calculations      *
                            ***************************************

                                    ---------------------
                                    Active property flags
                                    ---------------------
   (+) Dipole Moment


------------------------------------------------------------------------------
                       ORCA ELECTRIC PROPERTIES CALCULATION
------------------------------------------------------------------------------

Dipole Moment Calculation                       ... on
Quadrupole Moment Calculation                   ... off
Polarizability Calculation                      ... off
GBWName                                         ... xtbopt.gbw
Electron density file                           ... xtbopt.scfp
The origin for moment calculation is the CENTER OF MASS  = ( 6.065771, -10.915737  1.621180)

-------------
DIPOLE MOMENT
-------------
                                X             Y             Z
Electronic contribution:      6.78892     -29.17449     -10.26414
Nuclear contribution   :     -5.21474      28.35023      10.00650
                        -----------------------------------------
Total Dipole Moment    :      1.57418      -0.82427      -0.25764
                        -----------------------------------------
Magnitude (a.u.)       :      1.79551
Magnitude (Debye)      :      4.56382



--------------------
Rotational spectrum 
--------------------
 
Rotational constants in cm-1:     0.000915     0.000704     0.000418 
Rotational constants in MHz :    27.435345    21.103820    12.524636 

 Dipole components along the rotational axes: 
x,y,z [a.u.] :     0.736871    -1.633279     0.115180 
x,y,z [Debye]:     1.872977    -4.151466     0.292763 

 

Timings for individual modules:

Sum of individual times         ...      715.659 sec (=  11.928 min)
GTO integral calculation        ...        2.978 sec (=   0.050 min)   0.4 %
SCF iterations                  ...      708.594 sec (=  11.810 min)  99.0 %
CIS module                      ...        4.087 sec (=   0.068 min)   0.6 %
                             ****ORCA TERMINATED NORMALLY****
TOTAL RUN TIME: 0 days 0 hours 11 minutes 56 seconds 615 msec
