
                                 *****************
                                 * O   R   C   A *
                                 *****************

           --- An Ab Initio, DFT and Semiempirical electronic structure package ---

                  #######################################################
                  #                        -***-                        #
                  #          Department of theory and spectroscopy      #
                  #               Directorship: Frank Neese             #
                  #        Max Planck Institute fuer Kohlenforschung    #
                  #                Kaiser Wilhelm Platz 1               #
                  #                 D-45470 Muelheim/Ruhr               #
                  #                      Germany                        #
                  #                                                     #
                  #                  All rights reserved                #
                  #                        -***-                        #
                  #######################################################


                         Program Version 4.2.0 -  RELEASE  -


 With contributions from (in alphabetic order):
   Daniel Aravena         : Magnetic Suceptibility
   Michael Atanasov       : Ab Initio Ligand Field Theory (pilot matlab implementation)
   Alexander A. Auer      : GIAO ZORA, VPT2
   Ute Becker             : Parallelization
   Giovanni Bistoni       : ED, misc. LED, open-shell LED, HFLED
   Martin Brehm           : Molecular dynamics
   Dmytro Bykov           : SCF Hessian
   Vijay G. Chilkuri      : MRCI spin determinant printing, contributions to CSF-ICE
   Dipayan Datta          : RHF DLPNO-CCSD density
   Achintya Kumar Dutta   : EOM-CC, STEOM-CC
   Dmitry Ganyushin       : Spin-Orbit,Spin-Spin,Magnetic field MRCI
   Miquel Garcia          : C-PCM Hessian, Gaussian charge scheme
   Yang Guo               : DLPNO-NEVPT2, CIM, IAO-localization
   Andreas Hansen         : Spin unrestricted coupled pair/coupled cluster methods
   Benjamin Helmich-Paris : CASSCF linear response (MC-RPA)
   Lee Huntington         : MR-EOM, pCC
   Robert Izsak           : Overlap fitted RIJCOSX, COSX-SCS-MP3, EOM
   Christian Kollmar      : KDIIS, OOCD, Brueckner-CCSD(T), CCSD density
   Simone Kossmann        : Meta GGA functionals, TD-DFT gradient, OOMP2, MP2 Hessian
   Martin Krupicka        : AUTO-CI
   Lucas Lang             : DCDCAS
   Dagmar Lenk            : GEPOL surface, SMD
   Dimitrios Liakos       : Extrapolation schemes; Compound Job, initial MDCI parallelization
   Dimitrios Manganas     : Further ROCIS development; embedding schemes
   Dimitrios Pantazis     : SARC Basis sets
   Taras Petrenko         : DFT Hessian,TD-DFT gradient, ASA, ECA, R-Raman, ABS, FL, XAS/XES, NRVS
   Peter Pinski           : DLPNO-MP2, DLPNO-MP2 Gradient
   Christoph Reimann      : Effective Core Potentials
   Marius Retegan         : Local ZFS, SOC
   Christoph Riplinger    : Optimizer, TS searches, QM/MM, DLPNO-CCSD(T), (RO)-DLPNO pert. Triples
   Tobias Risthaus        : Range-separated hybrids, TD-DFT gradient, RPA, STAB
   Michael Roemelt        : Original ROCIS implementation
   Masaaki Saitow         : Open-shell DLPNO-CCSD energy and density
   Barbara Sandhoefer     : DKH picture change effects
   Avijit Sen             : IP-ROCIS
   Kantharuban Sivalingam : CASSCF convergence, NEVPT2, FIC-MRCI
   Bernardo de Souza      : ESD, SOC TD-DFT
   Georgi Stoychev        : AutoAux, RI-MP2 NMR
   Willem Van den Heuvel  : Paramagnetic NMR
   Boris Wezisla          : Elementary symmetry handling
   Frank Wennmohs         : Technical directorship


 We gratefully acknowledge several colleagues who have allowed us to
 interface, adapt or use parts of their codes:
   Stefan Grimme, W. Hujo, H. Kruse,             : VdW corrections, initial TS optimization,
                  C. Bannwarth                     DFT functionals, gCP, sTDA/sTD-DF
   Ed Valeev, F. Pavosevic, A. Kumar             : LibInt (2-el integral package), F12 methods
   Garnet Chan, S. Sharma, J. Yang, R. Olivares  : DMRG
   Ulf Ekstrom                                   : XCFun DFT Library
   Mihaly Kallay                                 : mrcc  (arbitrary order and MRCC methods)
   Andreas Klamt, Michael Diedenhofen            : otool_cosmo (COSMO solvation model)
   Jiri Pittner, Ondrej Demel                    : Mk-CCSD
   Frank Weinhold                                : gennbo (NPA and NBO analysis)
   Christopher J. Cramer and Donald G. Truhlar   : smd solvation model
   Lars Goerigk                                  : TD-DFT with DH, B97 family of functionals
   V. Asgeirsson, H. Jonsson                     : NEB implementation
   FAccTs GmbH                                   : IRC, NEB, NEB-TS, Multilevel, MM, QM/MM, CI optimization
   S Lehtola, MJT Oliveira, MAL Marques          : LibXC Library


 Your calculation uses the libint2 library for the computation of 2-el integrals
 For citations please refer to: http://libint.valeyev.net

 Your ORCA version has been built with support for libXC version: 4.2.3
 For citations please refer to: https://tddft.org/programs/libxc/

 This ORCA versions uses:
   CBLAS   interface :  Fast vector & matrix operations
   LAPACKE interface :  Fast linear algebra routines
   SCALAPACK package :  Parallel linear algebra routines


XCFun DFT library Copyright 2009-2010 Ulf Ekstrom and contributors.
See http://admol.org/xcfun for more information. This is free soft-
ware; see the source code for copying conditions. There is ABSOLUTELY
NO WARRANTY; not even for MERCHANTABILITY or FITNESS FOR A PARTICULAR
PURPOSE. For details see the documentation. Scientific users of this 
library should cite U. Ekstrom, L. Visscher, R. Bast, A. J. Thorvald-
sen and K. Ruud; J.Chem.Theor.Comp. 2010, DOI: 10.1021/ct100117s
XCFun Version 0.99 
----- Orbital basis set information -----
Your calculation utilizes the basis: def2-SVP
   F. Weigend and R. Ahlrichs, Phys. Chem. Chem. Phys. 7, 3297 (2005).

----- AuxJ basis set information -----
Your calculation utilizes the auxiliary basis: def2/J
   F. Weigend, Phys. Chem. Chem. Phys. 8, 1057 (2006).

================================================================================
                                        WARNINGS
                       Please study these warnings very carefully!
================================================================================

INFO   : Checking CIS options ...

WARNING: CIS/ROCIS methods need fully converged wavefunctions
  ===> : Setting SCFConvForced true
         You can overwrite this default with %scf ConvForced false 


INFO   : the flag for use of LIBINT has been found!

================================================================================
                                       INPUT FILE
================================================================================
NAME = xtbopt.inp
|  1> # ORCA input file
|  2> # SCF done       -248.157381898588          0.000298789477
|  3> ! CAM-B3LYP def2-SVP def2/J RIJCOSX Grid4 TightSCF
|  4> %maxcore 5000
|  5> %tddft
|  6>     Mode sTDDFT
|  7>     Ethresh 5.0
|  8>     maxcore 5000
|  9> end
| 10> 
| 11> %pal
| 12>   nprocs 6
| 13>   end
| 14> * xyz 0 1
| 15>    C        2.95334        -1.24889         3.69092
| 16>    C        1.84577        -0.57065         4.18330
| 17>    C        0.64398        -0.69094         3.51980
| 18>    C        0.54560        -1.48635         2.36811
| 19>    C        1.65195        -2.16091         1.87969
| 20>    C        2.85658        -2.03398         2.55261
| 21>    C       -0.82358        -1.42897         1.88564
| 22>    C       -1.56222        -0.59853         2.74178
| 23>    C       -0.68828        -0.05950         3.84980
| 24>    C       -0.60834         1.47766         3.80377
| 25>    C       -0.11122         2.00310         2.46250
| 26>    C       -1.19741        -0.50793         5.23214
| 27>    C       -1.31148        -2.02263         5.35559
| 28>    C       -2.89861        -0.36930         2.51449
| 29>    C       -3.52209        -0.96624         1.41468
| 30>    C       -2.77736        -1.78904         0.56920
| 31>    C       -1.43403        -2.02836         0.79640
| 32>    C       -4.94581        -0.71813         1.15584
| 33>    C       -5.85264        -0.67735         2.21955
| 34>    C       -7.18082        -0.41490         1.97258
| 35>    C       -7.62918        -0.23180         0.65369
| 36>    C       -6.73912        -0.27714        -0.40786
| 37>    C       -5.40267        -0.51105        -0.14645
| 38>    C       -9.06526        -0.04700         0.67339
| 39>    C       -9.50396        -0.12169         2.00519
| 40>    C       -8.33300        -0.30766         2.94666
| 41>    C       -8.24444         0.97027         3.81418
| 42>    C       -7.00579         1.09494         4.69139
| 43>    C       -8.48148        -1.56957         3.80957
| 44>    C       -8.69181        -2.82412         2.96944
| 45>    C      -10.83599         0.01793         2.30685
| 46>    C      -11.75787         0.21132         1.26928
| 47>    C      -11.30976         0.30072        -0.05202
| 48>    C       -9.96990         0.17111        -0.35515
| 49>    C      -13.15712         0.39380         1.59175
| 50>    C      -14.29617        -0.00417         0.91791
| 51>    C      -14.29416        -0.94928        -0.19415
| 52>    O      -13.34184        -1.61212        -0.54928
| 53>    C      -15.62167        -1.08260        -0.84457
| 54>    C      -16.79741        -0.47223        -0.33603
| 55>    C      -17.89669        -0.76130        -1.10789
| 56>    S      -17.52408        -1.75497        -2.46069
| 57>    C      -15.87099        -1.79804        -1.99027
| 58>    C      -14.88841        -2.54480        -2.83719
| 59>    F      -13.87690        -1.77404        -3.25016
| 60>    F      -14.36776        -3.60937        -2.22370
| 61>    F      -15.48283        -3.00943        -3.95331
| 62>    C      -19.31345        -0.32925        -0.89102
| 63>    F      -19.79758        -0.71842         0.29182
| 64>    F      -19.47859         0.99197        -0.98769
| 65>    F      -20.12055        -0.87518        -1.82198
| 66>    C      -16.81149         0.37788         0.88161
| 67>    O      -17.82163         0.94479         1.24418
| 68>    C      -15.50369         0.49213         1.51868
| 69>    C      -15.26781         1.21335         2.67512
| 70>    S      -13.56654         1.32876         2.99435
| 71>    C      -16.18489         1.83146         3.60924
| 72>    C      -15.84701         3.07081         4.17010
| 73>    C      -16.70693         3.66232         5.06152
| 74>    C      -17.90694         3.02722         5.41997
| 75>    C      -18.23095         1.78577         4.89274
| 76>    C      -17.36843         1.19410         3.99241
| 77>    C      -18.59911         3.86540         6.37693
| 78>    C      -17.82406         5.01357         6.61285
| 79>    C      -16.58589         5.00794         5.74441
| 80>    C      -16.65264         6.08354         4.63444
| 81>    C      -16.72899         7.52824         5.11036
| 82>    C      -15.29587         5.12363         6.56976
| 83>    C      -15.14901         3.98826         7.57661
| 84>    C      -18.22715         5.93793         7.54927
| 85>    C      -19.43872         5.75655         8.22326
| 86>    C      -20.21376         4.62768         7.95441
| 87>    C      -19.79738         3.67277         7.04653
| 88>    C      -19.88962         6.75649         9.19971
| 89>    C      -18.97822         7.33600        10.08719
| 90>    C      -19.41518         8.28547        10.98081
| 91>    C      -20.76147         8.67970        11.00399
| 92>    C      -21.67195         8.10780        10.13107
| 93>    C      -21.22791         7.14897         9.23856
| 94>    C      -20.92629         9.69783        12.02711
| 95>    C      -19.68066         9.92514        12.63145
| 96>    C      -18.61984         9.03946        12.02077
| 97>    C      -17.49602         9.86995        11.37430
| 98>    C      -18.01175        10.83469        10.31317
| 99>    C      -18.01816         8.08322        13.06738
|100>    C      -19.07194         7.22713        13.75940
|101>    C      -19.55473        10.85573        13.64002
|102>    C      -20.68061        11.56145        14.04438
|103>    C      -21.91144        11.33668        13.44769
|104>    C      -22.04698        10.40262        12.43320
|105>    H        3.90178        -1.16327         4.20110
|106>    H        1.93296         0.03900         5.07124
|107>    H        1.57933        -2.77332         0.99312
|108>    H        3.73127        -2.55226         2.18716
|109>    H        0.06148         1.81717         4.59689
|110>    H       -1.60080         1.88619         4.00744
|111>    H        0.88640         1.62585         2.24909
|112>    H       -0.07352         3.09012         2.47607
|113>    H       -0.77455         1.69095         1.65885
|114>    H       -2.17544        -0.05430         5.40891
|115>    H       -0.51309        -0.13262         5.99615
|116>    H       -2.00374        -2.41718         4.61495
|117>    H       -1.67332        -2.29269         6.34526
|118>    H       -0.34288        -2.49317         5.20228
|119>    H       -3.46381         0.28640         3.16131
|120>    H       -3.26910        -2.26567        -0.26630
|121>    H       -0.87502        -2.67335         0.13476
|122>    H       -5.50206        -0.88695         3.21879
|123>    H       -7.08284        -0.13403        -1.42130
|124>    H       -4.69330        -0.52428        -0.96083
|125>    H       -9.13451         1.00337         4.44680
|126>    H       -8.28478         1.83324         3.14394
|127>    H       -6.90252         0.24252         5.35767
|128>    H       -7.08592         1.99208         5.30202
|129>    H       -6.10991         1.18053         4.08292
|130>    H       -9.32910        -1.43682         4.48560
|131>    H       -7.58388        -1.69539         4.41669
|132>    H       -9.59274        -2.73906         2.36608
|133>    H       -8.78960        -3.69482         3.61395
|134>    H       -7.84762        -2.98312         2.30209
|135>    H      -11.18951        -0.04111         3.32670
|136>    H      -12.01854         0.49025        -0.84212
|137>    H       -9.63635         0.24448        -1.37862
|138>    H      -14.92329         3.55124         3.87931
|139>    H      -19.14200         1.28415         5.17995
|140>    H      -17.60236         0.22186         3.58978
|141>    H      -17.52908         5.87175         4.01659
|142>    H      -15.76879         5.96264         4.00368
|143>    H      -17.65064         7.70950         5.65614
|144>    H      -16.71325         8.19103         4.24767
|145>    H      -15.88433         7.78368         5.74503
|146>    H      -15.29857         6.07430         7.10455
|147>    H      -14.43999         5.12162         5.89129
|148>    H      -15.99153         3.97634         8.26475
|149>    H      -14.23451         4.11229         8.15247
|150>    H      -15.10900         3.02675         7.06961
|151>    H      -17.62956         6.81076         7.76452
|152>    H      -21.13957         4.48553         8.49231
|153>    H      -20.39353         2.79089         6.86608
|154>    H      -17.94528         7.01863        10.07798
|155>    H      -22.70979         8.40619        10.14024
|156>    H      -21.92353         6.71164         8.53716
|157>    H      -16.77118         9.18792        10.92388
|158>    H      -16.98215        10.43280        12.15661
|159>    H      -18.50754        10.29342         9.51025
|160>    H      -17.18679        11.40279         9.88889
|161>    H      -18.72504        11.53293        10.74532
|162>    H      -17.48333         8.67396        13.81437
|163>    H      -17.29230         7.43407        12.57240
|164>    H      -19.79763         7.85355        14.27333
|165>    H      -18.60252         6.57239        14.49025
|166>    H      -19.60218         6.61215        13.03555
|167>    H      -18.60039        11.03911        14.11256
|168>    H      -20.59602        12.29455        14.83340
|169>    H      -22.77387        11.89724        13.77819
|170>    H      -23.00701        10.22972        11.96973
|171> *
|172> 
|173>                          ****END OF INPUT****
================================================================================

                       ****************************
                       * Single Point Calculation *
                       ****************************

---------------------------------
CARTESIAN COORDINATES (ANGSTROEM)
---------------------------------
  C      2.953340   -1.248890    3.690920
  C      1.845770   -0.570650    4.183300
  C      0.643980   -0.690940    3.519800
  C      0.545600   -1.486350    2.368110
  C      1.651950   -2.160910    1.879690
  C      2.856580   -2.033980    2.552610
  C     -0.823580   -1.428970    1.885640
  C     -1.562220   -0.598530    2.741780
  C     -0.688280   -0.059500    3.849800
  C     -0.608340    1.477660    3.803770
  C     -0.111220    2.003100    2.462500
  C     -1.197410   -0.507930    5.232140
  C     -1.311480   -2.022630    5.355590
  C     -2.898610   -0.369300    2.514490
  C     -3.522090   -0.966240    1.414680
  C     -2.777360   -1.789040    0.569200
  C     -1.434030   -2.028360    0.796400
  C     -4.945810   -0.718130    1.155840
  C     -5.852640   -0.677350    2.219550
  C     -7.180820   -0.414900    1.972580
  C     -7.629180   -0.231800    0.653690
  C     -6.739120   -0.277140   -0.407860
  C     -5.402670   -0.511050   -0.146450
  C     -9.065260   -0.047000    0.673390
  C     -9.503960   -0.121690    2.005190
  C     -8.333000   -0.307660    2.946660
  C     -8.244440    0.970270    3.814180
  C     -7.005790    1.094940    4.691390
  C     -8.481480   -1.569570    3.809570
  C     -8.691810   -2.824120    2.969440
  C    -10.835990    0.017930    2.306850
  C    -11.757870    0.211320    1.269280
  C    -11.309760    0.300720   -0.052020
  C     -9.969900    0.171110   -0.355150
  C    -13.157120    0.393800    1.591750
  C    -14.296170   -0.004170    0.917910
  C    -14.294160   -0.949280   -0.194150
  O    -13.341840   -1.612120   -0.549280
  C    -15.621670   -1.082600   -0.844570
  C    -16.797410   -0.472230   -0.336030
  C    -17.896690   -0.761300   -1.107890
  S    -17.524080   -1.754970   -2.460690
  C    -15.870990   -1.798040   -1.990270
  C    -14.888410   -2.544800   -2.837190
  F    -13.876900   -1.774040   -3.250160
  F    -14.367760   -3.609370   -2.223700
  F    -15.482830   -3.009430   -3.953310
  C    -19.313450   -0.329250   -0.891020
  F    -19.797580   -0.718420    0.291820
  F    -19.478590    0.991970   -0.987690
  F    -20.120550   -0.875180   -1.821980
  C    -16.811490    0.377880    0.881610
  O    -17.821630    0.944790    1.244180
  C    -15.503690    0.492130    1.518680
  C    -15.267810    1.213350    2.675120
  S    -13.566540    1.328760    2.994350
  C    -16.184890    1.831460    3.609240
  C    -15.847010    3.070810    4.170100
  C    -16.706930    3.662320    5.061520
  C    -17.906940    3.027220    5.419970
  C    -18.230950    1.785770    4.892740
  C    -17.368430    1.194100    3.992410
  C    -18.599110    3.865400    6.376930
  C    -17.824060    5.013570    6.612850
  C    -16.585890    5.007940    5.744410
  C    -16.652640    6.083540    4.634440
  C    -16.728990    7.528240    5.110360
  C    -15.295870    5.123630    6.569760
  C    -15.149010    3.988260    7.576610
  C    -18.227150    5.937930    7.549270
  C    -19.438720    5.756550    8.223260
  C    -20.213760    4.627680    7.954410
  C    -19.797380    3.672770    7.046530
  C    -19.889620    6.756490    9.199710
  C    -18.978220    7.336000   10.087190
  C    -19.415180    8.285470   10.980810
  C    -20.761470    8.679700   11.003990
  C    -21.671950    8.107800   10.131070
  C    -21.227910    7.148970    9.238560
  C    -20.926290    9.697830   12.027110
  C    -19.680660    9.925140   12.631450
  C    -18.619840    9.039460   12.020770
  C    -17.496020    9.869950   11.374300
  C    -18.011750   10.834690   10.313170
  C    -18.018160    8.083220   13.067380
  C    -19.071940    7.227130   13.759400
  C    -19.554730   10.855730   13.640020
  C    -20.680610   11.561450   14.044380
  C    -21.911440   11.336680   13.447690
  C    -22.046980   10.402620   12.433200
  H      3.901780   -1.163270    4.201100
  H      1.932960    0.039000    5.071240
  H      1.579330   -2.773320    0.993120
  H      3.731270   -2.552260    2.187160
  H      0.061480    1.817170    4.596890
  H     -1.600800    1.886190    4.007440
  H      0.886400    1.625850    2.249090
  H     -0.073520    3.090120    2.476070
  H     -0.774550    1.690950    1.658850
  H     -2.175440   -0.054300    5.408910
  H     -0.513090   -0.132620    5.996150
  H     -2.003740   -2.417180    4.614950
  H     -1.673320   -2.292690    6.345260
  H     -0.342880   -2.493170    5.202280
  H     -3.463810    0.286400    3.161310
  H     -3.269100   -2.265670   -0.266300
  H     -0.875020   -2.673350    0.134760
  H     -5.502060   -0.886950    3.218790
  H     -7.082840   -0.134030   -1.421300
  H     -4.693300   -0.524280   -0.960830
  H     -9.134510    1.003370    4.446800
  H     -8.284780    1.833240    3.143940
  H     -6.902520    0.242520    5.357670
  H     -7.085920    1.992080    5.302020
  H     -6.109910    1.180530    4.082920
  H     -9.329100   -1.436820    4.485600
  H     -7.583880   -1.695390    4.416690
  H     -9.592740   -2.739060    2.366080
  H     -8.789600   -3.694820    3.613950
  H     -7.847620   -2.983120    2.302090
  H    -11.189510   -0.041110    3.326700
  H    -12.018540    0.490250   -0.842120
  H     -9.636350    0.244480   -1.378620
  H    -14.923290    3.551240    3.879310
  H    -19.142000    1.284150    5.179950
  H    -17.602360    0.221860    3.589780
  H    -17.529080    5.871750    4.016590
  H    -15.768790    5.962640    4.003680
  H    -17.650640    7.709500    5.656140
  H    -16.713250    8.191030    4.247670
  H    -15.884330    7.783680    5.745030
  H    -15.298570    6.074300    7.104550
  H    -14.439990    5.121620    5.891290
  H    -15.991530    3.976340    8.264750
  H    -14.234510    4.112290    8.152470
  H    -15.109000    3.026750    7.069610
  H    -17.629560    6.810760    7.764520
  H    -21.139570    4.485530    8.492310
  H    -20.393530    2.790890    6.866080
  H    -17.945280    7.018630   10.077980
  H    -22.709790    8.406190   10.140240
  H    -21.923530    6.711640    8.537160
  H    -16.771180    9.187920   10.923880
  H    -16.982150   10.432800   12.156610
  H    -18.507540   10.293420    9.510250
  H    -17.186790   11.402790    9.888890
  H    -18.725040   11.532930   10.745320
  H    -17.483330    8.673960   13.814370
  H    -17.292300    7.434070   12.572400
  H    -19.797630    7.853550   14.273330
  H    -18.602520    6.572390   14.490250
  H    -19.602180    6.612150   13.035550
  H    -18.600390   11.039110   14.112560
  H    -20.596020   12.294550   14.833400
  H    -22.773870   11.897240   13.778190
  H    -23.007010   10.229720   11.969730

----------------------------
CARTESIAN COORDINATES (A.U.)
----------------------------
  NO LB      ZA    FRAG     MASS         X           Y           Z
   0 C     6.0000    0    12.011    5.581004   -2.360060    6.974828
   1 C     6.0000    0    12.011    3.488000   -1.078372    7.905291
   2 C     6.0000    0    12.011    1.216946   -1.305687    6.651458
   3 C     6.0000    0    12.011    1.031035   -2.808794    4.475079
   4 C     6.0000    0    12.011    3.121733   -4.083528    3.552099
   5 C     6.0000    0    12.011    5.398154   -3.843665    4.823734
   6 C     6.0000    0    12.011   -1.556341   -2.700362    3.563343
   7 C     6.0000    0    12.011   -2.952168   -1.131058    5.181213
   8 C     6.0000    0    12.011   -1.300661   -0.112439    7.275068
   9 C     6.0000    0    12.011   -1.149596    2.792373    7.188084
  10 C     6.0000    0    12.011   -0.210175    3.785310    4.653451
  11 C     6.0000    0    12.011   -2.262777   -0.959849    9.887312
  12 C     6.0000    0    12.011   -2.478338   -3.822217   10.120598
  13 C     6.0000    0    12.011   -5.477579   -0.697876    4.751697
  14 C     6.0000    0    12.011   -6.655786   -1.825929    2.673358
  15 C     6.0000    0    12.011   -5.248450   -3.380796    1.075632
  16 C     6.0000    0    12.011   -2.709924   -3.833045    1.504978
  17 C     6.0000    0    12.011   -9.346226   -1.357069    2.184221
  18 C     6.0000    0    12.011  -11.059887   -1.280006    4.194342
  19 C     6.0000    0    12.011  -13.569783   -0.784047    3.727636
  20 C     6.0000    0    12.011  -14.417061   -0.438039    1.235295
  21 C     6.0000    0    12.011  -12.735091   -0.523719   -0.770744
  22 C     6.0000    0    12.011  -10.209567   -0.965745   -0.276750
  23 C     6.0000    0    12.011  -17.130859   -0.088817    1.272523
  24 C     6.0000    0    12.011  -17.959882   -0.229961    3.789260
  25 C     6.0000    0    12.011  -15.747088   -0.581393    5.568380
  26 C     6.0000    0    12.011  -15.579734    1.833545    7.207756
  27 C     6.0000    0    12.011  -13.239024    2.069137    8.865442
  28 C     6.0000    0    12.011  -16.027674   -2.966057    7.199044
  29 C     6.0000    0    12.011  -16.425141   -5.336813    5.611428
  30 C     6.0000    0    12.011  -20.477053    0.033883    4.359315
  31 C     6.0000    0    12.011  -22.219154    0.399337    2.398592
  32 C     6.0000    0    12.011  -21.372349    0.568278   -0.098304
  33 C     6.0000    0    12.011  -18.840381    0.323351   -0.671136
  34 C     6.0000    0    12.011  -24.863354    0.744174    3.007972
  35 C     6.0000    0    12.011  -27.015846   -0.007880    1.734599
  36 C     6.0000    0    12.011  -27.012048   -1.793879   -0.366890
  37 O     8.0000    0    15.999  -25.212424   -3.046465   -1.037989
  38 C     6.0000    0    12.011  -29.520678   -2.045818   -1.596006
  39 C     6.0000    0    12.011  -31.742505   -0.892385   -0.635005
  40 C     6.0000    0    12.011  -33.819843   -1.438649   -2.093609
  41 S    16.0000    0    32.060  -33.115712   -3.316413   -4.650030
  42 C     6.0000    0    12.011  -29.991825   -3.397803   -3.761065
  43 C     6.0000    0    12.011  -28.135017   -4.808975   -5.361512
  44 F     9.0000    0    18.998  -26.223541   -3.352450   -6.141912
  45 F     9.0000    0    18.998  -27.151132   -6.820721   -4.202184
  46 F     9.0000    0    18.998  -29.258308   -5.686999   -7.470673
  47 C     6.0000    0    12.011  -36.497131   -0.622192   -1.683784
  48 F     9.0000    0    18.998  -37.412004   -1.357617    0.551460
  49 F     9.0000    0    18.998  -36.809201    1.874552   -1.866464
  50 F     9.0000    0    18.998  -38.022329   -1.653851   -3.443043
  51 C     6.0000    0    12.011  -31.769112    0.714090    1.666001
  52 O     8.0000    0    15.999  -33.678000    1.785394    2.351159
  53 C     6.0000    0    12.011  -29.297728    0.929991    2.869889
  54 C     6.0000    0    12.011  -28.851980    2.292899    5.055244
  55 S    16.0000    0    32.060  -25.637045    2.510992    5.658501
  56 C     6.0000    0    12.011  -30.585010    3.460958    6.820475
  57 C     6.0000    0    12.011  -29.946509    5.802990    7.880347
  58 C     6.0000    0    12.011  -31.571522    6.920782    9.564887
  59 C     6.0000    0    12.011  -33.839212    5.720617   10.242259
  60 C     6.0000    0    12.011  -34.451503    3.374616    9.245939
  61 C     6.0000    0    12.011  -32.821576    2.256522    7.544562
  62 C     6.0000    0    12.011  -35.147224    7.304547   12.050651
  63 C     6.0000    0    12.011  -33.682592    9.474274   12.496475
  64 C     6.0000    0    12.011  -31.342790    9.463635   10.855362
  65 C     6.0000    0    12.011  -31.468929   11.496225    8.757822
  66 C     6.0000    0    12.011  -31.613210   14.226312    9.657181
  67 C     6.0000    0    12.011  -28.905005    9.682258   12.415047
  68 C     6.0000    0    12.011  -28.627480    7.536719   14.317718
  69 C     6.0000    0    12.011  -34.444322   11.221062   14.266053
  70 C     6.0000    0    12.011  -36.733857   10.878303   15.539709
  71 C     6.0000    0    12.011  -38.198471    8.745048   15.031656
  72 C     6.0000    0    12.011  -37.411626    6.940529   13.316012
  73 C     6.0000    0    12.011  -37.585935   12.767916   17.384932
  74 C     6.0000    0    12.011  -35.863638   13.863031   19.062027
  75 C     6.0000    0    12.011  -36.689373   15.657269   20.750724
  76 C     6.0000    0    12.011  -39.233492   16.402256   20.794527
  77 C     6.0000    0    12.011  -40.954050   15.321522   19.144948
  78 C     6.0000    0    12.011  -40.114936   13.509595   17.458348
  79 C     6.0000    0    12.011  -39.544957   18.326243   22.727944
  80 C     6.0000    0    12.011  -37.191058   18.755796   23.869981
  81 C     6.0000    0    12.011  -35.186398   17.082104   22.715963
  82 C     6.0000    0    12.011  -33.062686   18.651502   21.494312
  83 C     6.0000    0    12.011  -34.037275   20.474597   19.489067
  84 C     6.0000    0    12.011  -34.049388   15.275072   24.693769
  85 C     6.0000    0    12.011  -36.040743   13.657296   26.001498
  86 C     6.0000    0    12.011  -36.953084   20.514357   25.775902
  87 C     6.0000    0    12.011  -39.080689   21.847974   26.540032
  88 C     6.0000    0    12.011  -41.406621   21.423220   25.412451
  89 C     6.0000    0    12.011  -41.662754   19.658103   23.495343
  90 H     1.0000    0     1.008    7.373296   -2.198262    7.938928
  91 H     1.0000    0     1.008    3.652765    0.073699    9.583255
  92 H     1.0000    0     1.008    2.984501   -5.240815    1.876725
  93 H     1.0000    0     1.008    7.051078   -4.823072    4.133133
  94 H     1.0000    0     1.008    0.116180    3.433954    8.686863
  95 H     1.0000    0     1.008   -3.025074    3.564383    7.572964
  96 H     1.0000    0     1.008    1.675053    3.072411    4.250164
  97 H     1.0000    0     1.008   -0.138933    5.839481    4.679094
  98 H     1.0000    0     1.008   -1.463687    3.195432    3.134772
  99 H     1.0000    0     1.008   -4.110986   -0.102612   10.221359
 100 H     1.0000    0     1.008   -0.969600   -0.250615   11.331081
 101 H     1.0000    0     1.008   -3.786520   -4.567808    8.720992
 102 H     1.0000    0     1.008   -3.162117   -4.332556   11.990804
 103 H     1.0000    0     1.008   -0.647949   -4.711409    9.830884
 104 H     1.0000    0     1.008   -6.545652    0.541218    5.974010
 105 H     1.0000    0     1.008   -6.177704   -4.281496   -0.503234
 106 H     1.0000    0     1.008   -1.653548   -5.051899    0.254659
 107 H     1.0000    0     1.008  -10.397387   -1.676093    6.082632
 108 H     1.0000    0     1.008  -13.384628   -0.253280   -2.685868
 109 H     1.0000    0     1.008   -8.869052   -0.990746   -1.815706
 110 H     1.0000    0     1.008  -17.261722    1.896095    8.403234
 111 H     1.0000    0     1.008  -15.655965    3.464322    5.941186
 112 H     1.0000    0     1.008  -13.043872    0.458296   10.124529
 113 H     1.0000    0     1.008  -13.390448    3.764486   10.019366
 114 H     1.0000    0     1.008  -11.546057    2.230878    7.715601
 115 H     1.0000    0     1.008  -17.629444   -2.715196    8.476556
 116 H     1.0000    0     1.008  -14.331456   -3.203823    8.346335
 117 H     1.0000    0     1.008  -18.127651   -5.176073    4.471243
 118 H     1.0000    0     1.008  -16.609937   -6.982198    6.829376
 119 H     1.0000    0     1.008  -14.829853   -5.637280    4.350320
 120 H     1.0000    0     1.008  -21.145109   -0.077687    6.286552
 121 H     1.0000    0     1.008  -22.711749    0.926438   -1.591376
 122 H     1.0000    0     1.008  -18.210062    0.462000   -2.605214
 123 H     1.0000    0     1.008  -28.200931    6.710871    7.330833
 124 H     1.0000    0     1.008  -36.173138    2.426692    9.788687
 125 H     1.0000    0     1.008  -33.263640    0.419255    6.783701
 126 H     1.0000    0     1.008  -33.125161   11.095999    7.590255
 127 H     1.0000    0     1.008  -29.798695   11.267757    7.565859
 128 H     1.0000    0     1.008  -33.354876   14.568844   10.688556
 129 H     1.0000    0     1.008  -31.583465   15.478803    8.026933
 130 H     1.0000    0     1.008  -30.017034   14.709024   10.856533
 131 H     1.0000    0     1.008  -28.910108   11.478763   13.425654
 132 H     1.0000    0     1.008  -27.287626    9.678459   11.132925
 133 H     1.0000    0     1.008  -30.219612    7.514194   15.618114
 134 H     1.0000    0     1.008  -26.899326    7.771102   15.405936
 135 H     1.0000    0     1.008  -28.551872    5.719729   13.359627
 136 H     1.0000    0     1.008  -33.315040   12.870471   14.672816
 137 H     1.0000    0     1.008  -39.947998    8.476423   16.048140
 138 H     1.0000    0     1.008  -38.538187    5.274018   12.975011
 139 H     1.0000    0     1.008  -33.911665   13.263289   19.044622
 140 H     1.0000    0     1.008  -42.915284   15.885397   19.162277
 141 H     1.0000    0     1.008  -41.429468   12.683162   16.132894
 142 H     1.0000    0     1.008  -31.692937   17.362653   20.643142
 143 H     1.0000    0     1.008  -32.091613   19.715135   22.972664
 144 H     1.0000    0     1.008  -34.974182   19.451745   17.971768
 145 H     1.0000    0     1.008  -32.478326   21.548150   18.687294
 146 H     1.0000    0     1.008  -35.385197   21.794079   20.305712
 147 H     1.0000    0     1.008  -33.038706   16.391409   26.105376
 148 H     1.0000    0     1.008  -32.677711   14.048356   23.758393
 149 H     1.0000    0     1.008  -37.412099   14.841059   26.972685
 150 H     1.0000    0     1.008  -35.153668   12.420017   27.382604
 151 H     1.0000    0     1.008  -37.042752   12.495153   24.633620
 152 H     1.0000    0     1.008  -35.149643   20.860895   26.668873
 153 H     1.0000    0     1.008  -38.920837   23.233332   28.031064
 154 H     1.0000    0     1.008  -43.036377   22.482525   26.037006
 155 H     1.0000    0     1.008  -43.476948   19.331369   22.619512

--------------------------------
INTERNAL COORDINATES (ANGSTROEM)
--------------------------------
 C      0   0   0     0.000000000000     0.00000000     0.00000000
 C      1   0   0     1.388941635527     0.00000000     0.00000000
 C      2   1   0     1.378042502320   118.82393095     0.00000000
 C      3   2   1     1.403119933790   120.38667753     0.04121889
 C      4   3   2     1.384772765655   120.63936692   359.93945486
 C      5   4   3     1.385664457291   118.59742969     0.03189339
 C      4   3   2     1.452832969649   108.43747378   179.95652075
 C      7   4   3     1.402923854954   108.47584577     0.00000000
 C      8   7   4     1.510639859430   110.74629316     0.08721780
 C      9   8   7     1.539925332638   111.36384482   118.55240716
 C     10   9   8     1.523883427595   112.79454046   303.58740435
 C      9   8   7     1.539859310911   111.30023583   241.11667149
 C     12   9   8     1.523997361349   112.76198248    56.10786334
 C      8   7   4     1.374825577701   120.63638742   180.04747067
 C     14   8   7     1.398086803493   119.49492500   359.68504510
 C     15  14   8     1.395155562402   119.37214432     0.24282558
 C     16  15  14     1.383267649915   121.39147443     0.05991414
 C     15  14   8     1.468174157278   119.93270816   180.56219738
 C     18  15  14     1.398385719821   119.97816538   319.51794823
 C     19  18  15     1.376203580798   119.66366242   178.56422359
 C     20  19  18     1.404999335124   120.08561487     2.04234051
 C     21  20  19     1.386055886932   120.64743871   358.27105592
 C     22  21  20     1.381719102676   118.80002388     0.25264067
 C     21  20  19     1.448055557083   108.68343942   176.84228688
 C     24  21  20     1.404182155598   108.41847802   359.75924585
 C     20  19  18     1.512564384216   129.27992799   180.62439415
 C     26  20  19     1.547106624929   112.09049349    70.75213503
 C     27  26  20     1.522922787110   115.92304656   299.25095252
 C     26  20  19     1.535928652835   112.15993079   304.20602573
 C     29  26  20     1.524451648397   112.32447153   301.79839892
 C     25  24  21     1.372878880637   120.40573400   180.17948683
 C     31  25  24     1.401361456370   119.31560375     1.17020938
 C     32  31  25     1.398080334637   119.84878941   358.05116628
 C     33  32  31     1.379822948280   120.85394244     1.46046343
 C     32  31  25     1.447475876759   119.23406806   181.62744724
 C     35  32  31     1.381982405460   130.67931175   214.53783970
 C     36  35  32     1.459422624122   123.84089017    12.17641264
 O     37  36  35     1.213419780991   125.29893507     9.46785944
 C     37  36  35     1.484285416926   113.00684392   186.86934092
 C     39  37  36     1.418988730082   123.05052856   353.10408708
 C     40  39  37     1.373952634882   111.78350220   180.80599565
 S     41  40  39     1.719385390481   112.96744792   359.38064945
 C     39  37  36     1.373551362709   125.07444559   173.22711410
 C     43  39  37     1.496792383866   127.78281697   358.00569314
 F     44  43  39     1.337074298085   112.56807515   304.66267344
 F     44  43  39     1.334449582225   113.20388321    67.31440421
 F     44  43  39     1.347197100539   110.56013678   186.24215534
 C     41  40  39     1.496966498289   127.95976027   178.79864589
 F     48  41  40     1.336018567012   112.77688518   301.91315708
 F     48  41  40     1.335005092462   113.09260736    64.71059899
 F     48  41  40     1.347641085935   110.47579133   183.42416461
 C     40  39  37     1.485103507537   123.22437305     1.09422889
 O     52  40  39     1.213765534442   121.34353838   175.78797824
 C     36  35  32     1.437130068331   112.90800787   185.63849546
 C     54  36  35     1.383167067422   112.72392181   357.38177286
 S     35  32  31     1.734664722072   118.44024223    38.36819773
 C     55  54  36     1.447644940205   130.85140452   182.88708347
 C     57  55  54     1.401683008565   118.88242020   218.16330240
 C     58  57  55     1.372580089794   119.33300097   180.29606372
 C     59  58  57     1.404230185048   120.41500428     0.66596070
 C     60  59  58     1.387138080906   120.48840300     0.89464023
 C     61  60  59     1.380075450184   119.05636827   358.85921197
 C     60  59  58     1.448246340544   108.38155518   179.37245873
 C     63  60  59     1.405224216202   108.67592057   359.74868540
 C     64  63  60     1.512377161756   110.61592852     2.80689524
 C     65  64  63     1.547063128447   111.96714131   109.66536975
 C     66  65  64     1.522986296360   115.94287166    62.29933830
 C     65  64  63     1.535818478532   112.25918719   236.21573325
 C     68  65  64     1.524591689273   112.31613185    58.96380250
 C     64  63  60     1.376156013721   120.10008116   183.81702498
 C     70  64  63     1.398235705952   119.64832610   357.32892135
 C     71  70  64     1.395462217690   119.55932750     1.09558409
 C     72  71  70     1.381836280787   121.21493776     0.93926803
 C     71  70  64     1.468552149602   119.88260597   181.48991100
 C     74  71  70     1.397892181286   120.27968125   318.86156435
 C     75  74  71     1.375130549039   119.44774889   179.01479341
 C     76  75  74     1.403015099491   120.64107363   359.69404028
 C     77  76  75     1.384930599994   120.29108306     0.50544772
 C     78  77  76     1.383148795539   118.81108162   359.79138763
 C     77  76  75     1.452765935621   108.50716778   180.71568336
 C     80  77  76     1.403029140325   108.43140018   359.91433452
 C     76  75  74     1.510822106437   128.65400643   180.04391691
 C     82  76  75     1.539678048619   111.37165036    60.33035510
 C     83  82  76     1.524039887076   112.75473363    55.81994275
 C     82  76  75     1.540066963512   111.32051790   297.71456209
 C     85  82  76     1.523887809814   112.78432391   303.38536846
 C     81  80  77     1.378067327056   120.38328282   179.75091770
 C     87  81  80     1.388939704379   118.82314511     0.00000000
 C     88  87  81     1.386182887609   120.80055365     0.03989746
 C     80  77  76     1.384768611827   130.92213807   179.65208364
 H      1   2   3     1.080348485629   119.60045385   179.98546682
 H      2   1   3     1.080607543098   120.16205898   180.02847622
 H      5   4   3     1.079965757513   120.80084285   180.03958541
 H      6   5   4     1.080393658349   119.71062058   180.01123615
 H     10   9   8     1.092229466230   108.68790533   182.10775214
 H     10   9   8     1.092407928111   108.69712621    65.04508632
 H     11  10   9     1.087707246919   110.62820724   299.83341946
 H     11  10   9     1.087758206266   110.17540347   179.86868971
 H     11  10   9     1.087794849179   110.63333546    59.91135221
 H     12   9   8     1.092506517463   108.68238573   294.60111299
 H     12   9   8     1.092182557359   108.70734285   177.57025023
 H     13  12   9     1.087860845743   110.66801226   300.02544758
 H     13  12   9     1.087799291276   110.20269777   179.98447766
 H     13  12   9     1.087702996089   110.60295489    60.03396972
 H     14   8   7     1.080633907667   120.70506909   181.27730211
 H     16  15  14     1.080298400675   119.07212077   178.62881253
 H     17  16  15     1.079940632535   120.35697801   179.60089938
 H     19  18  15     1.079499455303   119.19938481   356.45607390
 H     22  21  20     1.079668719608   120.67236715   180.15425228
 H     23  22  21     1.080090558333   119.64837231   181.54591547
 H     27  26  20     1.092487198689   107.64344821   176.86088817
 H     27  26  20     1.093419495939   107.82386346    61.13761979
 H     28  27  26     1.086836504586   111.48104641   303.23942207
 H     28  27  26     1.088186561854   109.31860063   183.86443272
 H     28  27  26     1.086352780362   110.76652095    64.89579553
 H     29  26  20     1.092290615084   108.83717209   180.35735009
 H     29  26  20     1.090922145160   109.14011732    62.77968018
 H     30  29  26     1.087636592847   110.83314438   299.89682899
 H     30  29  26     1.087692288379   110.15883743   179.84206410
 H     30  29  26     1.087793077106   110.56755684    59.99961995
 H     31  25  24     1.080997749535   121.26822539   179.75037582
 H     33  32  31     1.078215525440   119.54353628   182.51803436
 H     34  33  32     1.078948377032   120.14526384   180.15010858
 H     58  57  55     1.081032121354   119.42543650     1.39812971
 H     61  60  59     1.078945925892   120.80678910   178.75049137
 H     62  61  60     1.078000361503   119.64996169   178.94250657
 H     66  65  64     1.093041948051   107.78447630   300.29019337
 H     66  65  64     1.092550140772   107.60031097   184.61549762
 H     67  66  65     1.086356165583   110.96514152   295.71735903
 H     67  66  65     1.088013036595   109.22995250   176.76392786
 H     67  66  65     1.086971075098   111.49534948    57.51502465
 H     68  65  64     1.090770866406   109.09004452   298.00733645
 H     68  65  64     1.092179543573   108.92017923   180.40748904
 H     69  68  65     1.087896454815   110.56646000   300.89940729
 H     69  68  65     1.087799811776   110.22312630   180.92773959
 H     69  68  65     1.087727576280   110.73290863    60.91302130
 H     70  64  63     1.079480698994   121.10735330   178.16394295
 H     72  71  70     1.080123691343   119.11542923   178.88792399
 H     73  72  71     1.079661687474   120.52289432   178.39541371
 H     75  74  71     1.080635731688   119.73855524   357.70946516
 H     78  77  76     1.079922472495   120.82044143   180.11855697
 H     79  78  77     1.080327114026   119.52833523   181.39407676
 H     83  82  76     1.092445020539   108.70281211   294.29728232
 H     83  82  76     1.092186538784   108.70183147   177.26930768
 H     84  83  82     1.087870150064   110.68024376   299.72049976
 H     84  83  82     1.087800592940   110.21382021   179.67169286
 H     84  83  82     1.087692669921   110.58797959    59.72419239
 H     85  82  76     1.092250400137   108.67838836   181.92087523
 H     85  82  76     1.092370661680   108.70189503    64.83180925
 H     86  85  82     1.087727924345   110.63292466   300.16770454
 H     86  85  82     1.087741387693   110.17233937   180.21309364
 H     86  85  82     1.087802224901   110.63958785    60.25017014
 H     87  81  80     1.080595720702   121.02068480   180.00448475
 H     88  87  81     1.080344222227   119.59987733   180.04950019
 H     89  88  87     1.080390331547   119.53688298   180.00281647
 H     90  80  77     1.079979838608   120.80249039     0.28549901

---------------------------
INTERNAL COORDINATES (A.U.)
---------------------------
 C      0   0   0     0.000000000000     0.00000000     0.00000000
 C      1   0   0     2.624719307146     0.00000000     0.00000000
 C      2   1   0     2.604122930288   118.82393095     0.00000000
 C      3   2   1     2.651512407910   120.38667753     0.04121889
 C      4   3   2     2.616841284801   120.63936692   359.93945486
 C      5   4   3     2.618526337789   118.59742969     0.03189339
 C      4   3   2     2.745456430969   108.43747378   179.95652075
 C      7   4   3     2.651141872609   108.47584577     0.00000000
 C      8   7   4     2.854695621309   110.74629316     0.08721780
 C      9   8   7     2.910037145373   111.36384482   118.55240716
 C     10   9   8     2.879722338177   112.79454046   303.58740435
 C      9   8   7     2.909912382391   111.30023583   241.11667149
 C     12   9   8     2.879937641769   112.76198248    56.10786334
 C      8   7   4     2.598043823764   120.63638742   180.04747067
 C     14   8   7     2.642001170050   119.49492500   359.68504510
 C     15  14   8     2.636461927156   119.37214432     0.24282558
 C     16  15  14     2.613997028251   121.39147443     0.05991414
 C     15  14   8     2.774447074157   119.93270816   180.56219738
 C     18  15  14     2.642566040049   119.97816538   319.51794823
 C     19  18  15     2.600647872229   119.66366242   178.56422359
 C     20  19  18     2.655063961727   120.08561487     2.04234051
 C     21  20  19     2.619266032612   120.64743871   358.27105592
 C     22  21  20     2.611070698065   118.80002388     0.25264067
 C     21  20  19     2.736428429590   108.68343942   176.84228688
 C     24  21  20     2.653519716220   108.41847802   359.75924585
 C     20  19  18     2.858332446092   129.27992799   180.62439415
 C     26  20  19     2.923607821092   112.09049349    70.75213503
 C     27  26  20     2.877906990747   115.92304656   299.25095252
 C     26  20  19     2.902484515101   112.15993079   304.20602573
 C     29  26  20     2.880796119875   112.32447153   301.79839892
 C     25  24  21     2.594365099449   120.40573400   180.17948683
 C     31  25  24     2.648189367173   119.31560375     1.17020938
 C     32  31  25     2.641988945686   119.84878941   358.05116628
 C     33  32  31     2.607487485549   120.85394244     1.46046343
 C     32  31  25     2.735332992533   119.23406806   181.62744724
 C     35  32  31     2.611568268216   130.67931175   214.53783970
 C     36  35  32     2.757909073240   123.84089017    12.17641264
 O     37  36  35     2.293031071556   125.29893507     9.46785944
 C     37  36  35     2.804892942564   113.00684392   186.86934092
 C     39  37  36     2.681500086976   123.05052856   353.10408708
 C     40  39  37     2.596394200907   111.78350220   180.80599565
 S     41  40  39     3.249167506675   112.96744792   359.38064945
 C     39  37  36     2.595635906395   125.07444559   173.22711410
 C     43  39  37     2.828527684846   127.78281697   358.00569314
 F     44  43  39     2.526704244086   112.56807515   304.66267344
 F     44  43  39     2.521744249931   113.20388321    67.31440421
 F     44  43  39     2.545833568431   110.56013678   186.24215534
 C     41  40  39     2.828856713422   127.95976027   178.79864589
 F     48  41  40     2.524709201486   112.77688518   301.91315708
 F     48  41  40     2.522794012144   113.09260736    64.71059899
 F     48  41  40     2.546672579237   110.47579133   183.42416461
 C     40  39  37     2.806438909772   123.22437305     1.09422889
 O     52  40  39     2.293684450889   121.34353838   175.78797824
 C     36  35  32     2.715782247968   112.90800787   185.63849546
 C     54  36  35     2.613806954886   112.72392181   357.38177286
 S     35  32  31     3.278041258890   118.44024223    38.36819773
 C     55  54  36     2.735652476144   130.85140452   182.88708347
 C     57  55  54     2.648797012759   118.88242020   218.16330240
 C     58  57  55     2.593800466584   119.33300097   180.29606372
 C     59  58  57     2.653610478726   120.41500428     0.66596070
 C     60  59  58     2.621311082846   120.48840300     0.89464023
 C     61  60  59     2.607964644995   119.05636827   358.85921197
 C     60  59  58     2.736788958082   108.38155518   179.37245873
 C     63  60  59     2.655488925376   108.67592057   359.74868540
 C     64  63  60     2.857978646915   110.61592852     2.80689524
 C     65  64  63     2.923525624652   111.96714131   109.66536975
 C     66  65  64     2.878027005835   115.94287166    62.29933830
 C     65  64  63     2.902276315841   112.25918719   236.21573325
 C     68  65  64     2.881060758778   112.31613185    58.96380250
 C     64  63  60     2.600557983481   120.10008116   183.81702498
 C     70  64  63     2.642282554920   119.64832610   357.32892135
 C     71  70  64     2.637041421668   119.55932750     1.09558409
 C     72  71  70     2.611292132604   121.21493776     0.93926803
 C     71  70  64     2.775161376129   119.88260597   181.48991100
 C     74  71  70     2.641633387380   120.27968125   318.86156435
 C     75  74  71     2.598620136072   119.44774889   179.01479341
 C     76  75  74     2.651314299794   120.64107363   359.69404028
 C     77  76  75     2.617139548476   120.29108306     0.50544772
 C     78  77  76     2.613772426031   118.81108162   359.79138763
 C     77  76  75     2.745329755013   108.50716778   180.71568336
 C     80  77  76     2.651340833124   108.43140018   359.91433452
 C     76  75  74     2.855040018241   128.65400643   180.04391691
 C     82  76  75     2.909569846301   111.37165036    60.33035510
 C     83  82  76     2.880018003747   112.75473363    55.81994275
 C     82  76  75     2.910304788937   111.32051790   297.71456209
 C     85  82  76     2.879730619370   112.78432391   303.38536846
 C     81  80  77     2.604169842241   120.38328282   179.75091770
 C     87  81  80     2.624715657806   118.82314511     0.00000000
 C     88  87  81     2.619506029109   120.80055365     0.03989746
 C     80  77  76     2.616833435202   130.92213807   179.65208364
 H      1   2   3     2.041562767035   119.60045385   179.98546682
 H      2   1   3     2.042052314704   120.16205898   180.02847622
 H      5   4   3     2.040839515712   120.80084285   180.03958541
 H      6   5   4     2.041648131104   119.71062058   180.01123615
 H     10   9   8     2.064014566573   108.68790533   182.10775214
 H     10   9   8     2.064351810654   108.69712621    65.04508632
 H     11  10   9     2.055468810558   110.62820724   299.83341946
 H     11  10   9     2.055565109769   110.17540347   179.86868971
 H     11  10   9     2.055634354838   110.63333546    59.91135221
 H     12   9   8     2.064538117530   108.68238573   294.60111299
 H     12   9   8     2.063925921655   108.70734285   177.57025023
 H     13  12   9     2.055759070270   110.66801226   300.02544758
 H     13  12   9     2.055642749185   110.20269777   179.98447766
 H     13  12   9     2.055460777653   110.60295489    60.03396972
 H     14   8   7     2.042102136520   120.70506909   181.27730211
 H     16  15  14     2.041468120188   119.07212077   178.62881253
 H     17  16  15     2.040792036385   120.35697801   179.60089938
 H     19  18  15     2.039958332240   119.19938481   356.45607390
 H     22  21  20     2.040278195421   120.67236715   180.15425228
 H     23  22  21     2.041075355083   119.64837231   181.54591547
 H     27  26  20     2.064501610338   107.64344821   176.86088817
 H     27  26  20     2.066263396815   107.82386346    61.13761979
 H     28  27  26     2.053823346015   111.48104641   303.23942207
 H     28  27  26     2.056374584518   109.31860063   183.86443272
 H     28  27  26     2.052909239708   110.76652095    64.89579553
 H     29  26  20     2.064130121161   108.83717209   180.35735009
 H     29  26  20     2.061544087782   109.14011732    62.77968018
 H     30  29  26     2.055335293712   110.83314438   299.89682899
 H     30  29  26     2.055440543015   110.15883743   179.84206410
 H     30  29  26     2.055631006106   110.56755684    59.99961995
 H     31  25  24     2.042789698007   121.26822539   179.75037582
 H     33  32  31     2.037532056424   119.54353628   182.51803436
 H     34  33  32     2.038916945229   120.14526384   180.15010858
 H     58  57  55     2.042854651332   119.42543650     1.39812971
 H     61  60  59     2.038912313247   120.80678910   178.75049137
 H     62  61  60     2.037125455508   119.64996169   178.94250657
 H     66  65  64     2.065549934705   107.78447630   300.29019337
 H     66  65  64     2.064620553635   107.60031097   184.61549762
 H     67  66  65     2.052915636849   110.96514152   295.71735903
 H     67  66  65     2.056046669300   109.22995250   176.76392786
 H     67  66  65     2.054077647429   111.49534948    57.51502465
 H     68  65  64     2.061258212367   109.09004452   298.00733645
 H     68  65  64     2.063920226425   108.92017923   180.40748904
 H     69  68  65     2.055826361665   110.56646000   300.89940729
 H     69  68  65     2.055643732788   110.22312630   180.92773959
 H     69  68  65     2.055507227483   110.73290863    60.91302130
 H     70  64  63     2.039922887952   121.10735330   178.16394295
 H     72  71  70     2.041137967398   119.11542923   178.88792399
 H     73  72  71     2.040264906614   120.52289432   178.39541371
 H     75  74  71     2.042105583419   119.73855524   357.70946516
 H     78  77  76     2.040757718883   120.82044143   180.11855697
 H     79  78  77     2.041522380559   119.52833523   181.39407676
 H     83  82  76     2.064421905184   108.70281211   294.29728232
 H     83  82  76     2.063933445456   108.70183147   177.26930768
 H     84  83  82     2.055776652889   110.68024376   299.72049976
 H     84  83  82     2.055645208973   110.21382021   179.67169286
 H     84  83  82     2.055441264024   110.58797959    59.72419239
 H     85  82  76     2.064054125925   108.67838836   181.92087523
 H     85  82  76     2.064281387306   108.70189503    64.83180925
 H     86  85  82     2.055507885231   110.63292466   300.16770454
 H     86  85  82     2.055533327271   110.17233937   180.21309364
 H     86  85  82     2.055648292933   110.63958785    60.25017014
 H     87  81  80     2.042029973614   121.02068480   180.00448475
 H     88  87  81     2.041554710374   119.59987733   180.04950019
 H     89  88  87     2.041641844360   119.53688298   180.00281647
 H     90  80  77     2.040866125126   120.80249039     0.28549901

---------------------
BASIS SET INFORMATION
---------------------
There are 5 groups of distinct atoms

 Group   1 Type C   : 7s4p1d contracted to 3s2p1d pattern {511/31/1}
 Group   2 Type O   : 7s4p1d contracted to 3s2p1d pattern {511/31/1}
 Group   3 Type S   : 10s7p1d contracted to 4s3p1d pattern {5311/511/1}
 Group   4 Type F   : 7s4p1d contracted to 3s2p1d pattern {511/31/1}
 Group   5 Type H   : 4s1p contracted to 2s1p pattern {31/1}

Atom   0C    basis set group =>   1
Atom   1C    basis set group =>   1
Atom   2C    basis set group =>   1
Atom   3C    basis set group =>   1
Atom   4C    basis set group =>   1
Atom   5C    basis set group =>   1
Atom   6C    basis set group =>   1
Atom   7C    basis set group =>   1
Atom   8C    basis set group =>   1
Atom   9C    basis set group =>   1
Atom  10C    basis set group =>   1
Atom  11C    basis set group =>   1
Atom  12C    basis set group =>   1
Atom  13C    basis set group =>   1
Atom  14C    basis set group =>   1
Atom  15C    basis set group =>   1
Atom  16C    basis set group =>   1
Atom  17C    basis set group =>   1
Atom  18C    basis set group =>   1
Atom  19C    basis set group =>   1
Atom  20C    basis set group =>   1
Atom  21C    basis set group =>   1
Atom  22C    basis set group =>   1
Atom  23C    basis set group =>   1
Atom  24C    basis set group =>   1
Atom  25C    basis set group =>   1
Atom  26C    basis set group =>   1
Atom  27C    basis set group =>   1
Atom  28C    basis set group =>   1
Atom  29C    basis set group =>   1
Atom  30C    basis set group =>   1
Atom  31C    basis set group =>   1
Atom  32C    basis set group =>   1
Atom  33C    basis set group =>   1
Atom  34C    basis set group =>   1
Atom  35C    basis set group =>   1
Atom  36C    basis set group =>   1
Atom  37O    basis set group =>   2
Atom  38C    basis set group =>   1
Atom  39C    basis set group =>   1
Atom  40C    basis set group =>   1
Atom  41S    basis set group =>   3
Atom  42C    basis set group =>   1
Atom  43C    basis set group =>   1
Atom  44F    basis set group =>   4
Atom  45F    basis set group =>   4
Atom  46F    basis set group =>   4
Atom  47C    basis set group =>   1
Atom  48F    basis set group =>   4
Atom  49F    basis set group =>   4
Atom  50F    basis set group =>   4
Atom  51C    basis set group =>   1
Atom  52O    basis set group =>   2
Atom  53C    basis set group =>   1
Atom  54C    basis set group =>   1
Atom  55S    basis set group =>   3
Atom  56C    basis set group =>   1
Atom  57C    basis set group =>   1
Atom  58C    basis set group =>   1
Atom  59C    basis set group =>   1
Atom  60C    basis set group =>   1
Atom  61C    basis set group =>   1
Atom  62C    basis set group =>   1
Atom  63C    basis set group =>   1
Atom  64C    basis set group =>   1
Atom  65C    basis set group =>   1
Atom  66C    basis set group =>   1
Atom  67C    basis set group =>   1
Atom  68C    basis set group =>   1
Atom  69C    basis set group =>   1
Atom  70C    basis set group =>   1
Atom  71C    basis set group =>   1
Atom  72C    basis set group =>   1
Atom  73C    basis set group =>   1
Atom  74C    basis set group =>   1
Atom  75C    basis set group =>   1
Atom  76C    basis set group =>   1
Atom  77C    basis set group =>   1
Atom  78C    basis set group =>   1
Atom  79C    basis set group =>   1
Atom  80C    basis set group =>   1
Atom  81C    basis set group =>   1
Atom  82C    basis set group =>   1
Atom  83C    basis set group =>   1
Atom  84C    basis set group =>   1
Atom  85C    basis set group =>   1
Atom  86C    basis set group =>   1
Atom  87C    basis set group =>   1
Atom  88C    basis set group =>   1
Atom  89C    basis set group =>   1
Atom  90H    basis set group =>   5
Atom  91H    basis set group =>   5
Atom  92H    basis set group =>   5
Atom  93H    basis set group =>   5
Atom  94H    basis set group =>   5
Atom  95H    basis set group =>   5
Atom  96H    basis set group =>   5
Atom  97H    basis set group =>   5
Atom  98H    basis set group =>   5
Atom  99H    basis set group =>   5
Atom 100H    basis set group =>   5
Atom 101H    basis set group =>   5
Atom 102H    basis set group =>   5
Atom 103H    basis set group =>   5
Atom 104H    basis set group =>   5
Atom 105H    basis set group =>   5
Atom 106H    basis set group =>   5
Atom 107H    basis set group =>   5
Atom 108H    basis set group =>   5
Atom 109H    basis set group =>   5
Atom 110H    basis set group =>   5
Atom 111H    basis set group =>   5
Atom 112H    basis set group =>   5
Atom 113H    basis set group =>   5
Atom 114H    basis set group =>   5
Atom 115H    basis set group =>   5
Atom 116H    basis set group =>   5
Atom 117H    basis set group =>   5
Atom 118H    basis set group =>   5
Atom 119H    basis set group =>   5
Atom 120H    basis set group =>   5
Atom 121H    basis set group =>   5
Atom 122H    basis set group =>   5
Atom 123H    basis set group =>   5
Atom 124H    basis set group =>   5
Atom 125H    basis set group =>   5
Atom 126H    basis set group =>   5
Atom 127H    basis set group =>   5
Atom 128H    basis set group =>   5
Atom 129H    basis set group =>   5
Atom 130H    basis set group =>   5
Atom 131H    basis set group =>   5
Atom 132H    basis set group =>   5
Atom 133H    basis set group =>   5
Atom 134H    basis set group =>   5
Atom 135H    basis set group =>   5
Atom 136H    basis set group =>   5
Atom 137H    basis set group =>   5
Atom 138H    basis set group =>   5
Atom 139H    basis set group =>   5
Atom 140H    basis set group =>   5
Atom 141H    basis set group =>   5
Atom 142H    basis set group =>   5
Atom 143H    basis set group =>   5
Atom 144H    basis set group =>   5
Atom 145H    basis set group =>   5
Atom 146H    basis set group =>   5
Atom 147H    basis set group =>   5
Atom 148H    basis set group =>   5
Atom 149H    basis set group =>   5
Atom 150H    basis set group =>   5
Atom 151H    basis set group =>   5
Atom 152H    basis set group =>   5
Atom 153H    basis set group =>   5
Atom 154H    basis set group =>   5
Atom 155H    basis set group =>   5
---------------------------------
AUXILIARY/J BASIS SET INFORMATION
---------------------------------
There are 5 groups of distinct atoms

 Group   1 Type C   : 12s5p4d2f1g contracted to 6s4p3d1f1g pattern {711111/2111/211/2/1}
 Group   2 Type O   : 12s5p4d2f1g contracted to 6s4p3d1f1g pattern {711111/2111/211/2/1}
 Group   3 Type S   : 14s5p5d2f1g contracted to 8s4p3d1f1g pattern {71111111/2111/311/2/1}
 Group   4 Type F   : 12s5p4d2f1g contracted to 6s4p3d1f1g pattern {711111/2111/211/2/1}
 Group   5 Type H   : 5s2p1d contracted to 3s1p1d pattern {311/2/1}

Atom   0C    basis set group =>   1
Atom   1C    basis set group =>   1
Atom   2C    basis set group =>   1
Atom   3C    basis set group =>   1
Atom   4C    basis set group =>   1
Atom   5C    basis set group =>   1
Atom   6C    basis set group =>   1
Atom   7C    basis set group =>   1
Atom   8C    basis set group =>   1
Atom   9C    basis set group =>   1
Atom  10C    basis set group =>   1
Atom  11C    basis set group =>   1
Atom  12C    basis set group =>   1
Atom  13C    basis set group =>   1
Atom  14C    basis set group =>   1
Atom  15C    basis set group =>   1
Atom  16C    basis set group =>   1
Atom  17C    basis set group =>   1
Atom  18C    basis set group =>   1
Atom  19C    basis set group =>   1
Atom  20C    basis set group =>   1
Atom  21C    basis set group =>   1
Atom  22C    basis set group =>   1
Atom  23C    basis set group =>   1
Atom  24C    basis set group =>   1
Atom  25C    basis set group =>   1
Atom  26C    basis set group =>   1
Atom  27C    basis set group =>   1
Atom  28C    basis set group =>   1
Atom  29C    basis set group =>   1
Atom  30C    basis set group =>   1
Atom  31C    basis set group =>   1
Atom  32C    basis set group =>   1
Atom  33C    basis set group =>   1
Atom  34C    basis set group =>   1
Atom  35C    basis set group =>   1
Atom  36C    basis set group =>   1
Atom  37O    basis set group =>   2
Atom  38C    basis set group =>   1
Atom  39C    basis set group =>   1
Atom  40C    basis set group =>   1
Atom  41S    basis set group =>   3
Atom  42C    basis set group =>   1
Atom  43C    basis set group =>   1
Atom  44F    basis set group =>   4
Atom  45F    basis set group =>   4
Atom  46F    basis set group =>   4
Atom  47C    basis set group =>   1
Atom  48F    basis set group =>   4
Atom  49F    basis set group =>   4
Atom  50F    basis set group =>   4
Atom  51C    basis set group =>   1
Atom  52O    basis set group =>   2
Atom  53C    basis set group =>   1
Atom  54C    basis set group =>   1
Atom  55S    basis set group =>   3
Atom  56C    basis set group =>   1
Atom  57C    basis set group =>   1
Atom  58C    basis set group =>   1
Atom  59C    basis set group =>   1
Atom  60C    basis set group =>   1
Atom  61C    basis set group =>   1
Atom  62C    basis set group =>   1
Atom  63C    basis set group =>   1
Atom  64C    basis set group =>   1
Atom  65C    basis set group =>   1
Atom  66C    basis set group =>   1
Atom  67C    basis set group =>   1
Atom  68C    basis set group =>   1
Atom  69C    basis set group =>   1
Atom  70C    basis set group =>   1
Atom  71C    basis set group =>   1
Atom  72C    basis set group =>   1
Atom  73C    basis set group =>   1
Atom  74C    basis set group =>   1
Atom  75C    basis set group =>   1
Atom  76C    basis set group =>   1
Atom  77C    basis set group =>   1
Atom  78C    basis set group =>   1
Atom  79C    basis set group =>   1
Atom  80C    basis set group =>   1
Atom  81C    basis set group =>   1
Atom  82C    basis set group =>   1
Atom  83C    basis set group =>   1
Atom  84C    basis set group =>   1
Atom  85C    basis set group =>   1
Atom  86C    basis set group =>   1
Atom  87C    basis set group =>   1
Atom  88C    basis set group =>   1
Atom  89C    basis set group =>   1
Atom  90H    basis set group =>   5
Atom  91H    basis set group =>   5
Atom  92H    basis set group =>   5
Atom  93H    basis set group =>   5
Atom  94H    basis set group =>   5
Atom  95H    basis set group =>   5
Atom  96H    basis set group =>   5
Atom  97H    basis set group =>   5
Atom  98H    basis set group =>   5
Atom  99H    basis set group =>   5
Atom 100H    basis set group =>   5
Atom 101H    basis set group =>   5
Atom 102H    basis set group =>   5
Atom 103H    basis set group =>   5
Atom 104H    basis set group =>   5
Atom 105H    basis set group =>   5
Atom 106H    basis set group =>   5
Atom 107H    basis set group =>   5
Atom 108H    basis set group =>   5
Atom 109H    basis set group =>   5
Atom 110H    basis set group =>   5
Atom 111H    basis set group =>   5
Atom 112H    basis set group =>   5
Atom 113H    basis set group =>   5
Atom 114H    basis set group =>   5
Atom 115H    basis set group =>   5
Atom 116H    basis set group =>   5
Atom 117H    basis set group =>   5
Atom 118H    basis set group =>   5
Atom 119H    basis set group =>   5
Atom 120H    basis set group =>   5
Atom 121H    basis set group =>   5
Atom 122H    basis set group =>   5
Atom 123H    basis set group =>   5
Atom 124H    basis set group =>   5
Atom 125H    basis set group =>   5
Atom 126H    basis set group =>   5
Atom 127H    basis set group =>   5
Atom 128H    basis set group =>   5
Atom 129H    basis set group =>   5
Atom 130H    basis set group =>   5
Atom 131H    basis set group =>   5
Atom 132H    basis set group =>   5
Atom 133H    basis set group =>   5
Atom 134H    basis set group =>   5
Atom 135H    basis set group =>   5
Atom 136H    basis set group =>   5
Atom 137H    basis set group =>   5
Atom 138H    basis set group =>   5
Atom 139H    basis set group =>   5
Atom 140H    basis set group =>   5
Atom 141H    basis set group =>   5
Atom 142H    basis set group =>   5
Atom 143H    basis set group =>   5
Atom 144H    basis set group =>   5
Atom 145H    basis set group =>   5
Atom 146H    basis set group =>   5
Atom 147H    basis set group =>   5
Atom 148H    basis set group =>   5
Atom 149H    basis set group =>   5
Atom 150H    basis set group =>   5
Atom 151H    basis set group =>   5
Atom 152H    basis set group =>   5
Atom 153H    basis set group =>   5
Atom 154H    basis set group =>   5
Atom 155H    basis set group =>   5


           ************************************************************
           *        Program running with 6 parallel MPI-processes     *
           *              working on a common directory               *
           ************************************************************
------------------------------------------------------------------------------
                           ORCA GTO INTEGRAL CALCULATION
                           -- RI-GTO INTEGRALS CHOSEN --
------------------------------------------------------------------------------

                         BASIS SET STATISTICS AND STARTUP INFO

Gaussian basis set:
 # of primitive gaussian shells          ... 1422
 # of primitive gaussian functions       ... 2646
 # of contracted shells                  ...  742
 # of contracted basis functions         ... 1598
 Highest angular momentum                ...    2
 Maximum contraction depth               ...    5
Auxiliary gaussian basis set:
 # of primitive gaussian shells          ... 2694
 # of primitive gaussian functions       ... 7370
 # of contracted shells                  ... 1684
 # of contracted aux-basis functions     ... 5140
 Highest angular momentum                ...    4
 Maximum contraction depth               ...    7
Ratio of auxiliary to basis functions    ...  3.22
Integral package used                  ... LIBINT
 One Electron integrals                  ... done
 Ordering auxiliary basis shells         ... done
 Integral threshhold             Thresh  ...  2.500e-11
 Primitive cut-off               TCut    ...  2.500e-12
 Pre-screening matrix                    ... done
 Shell pair data                         ... 
 Ordering of the shell pairs             ... done (   0.017 sec) 76801 of 275653 pairs
 Determination of significant pairs      ... done (   0.000 sec)
 Creation of shell pair data             ... done (   0.010 sec)
 Storage of shell pair data              ... done (   0.018 sec)
 Shell pair data done in (   0.045 sec)
 Computing two index integrals           ... done
 Cholesky decomposition of the V-matrix  ... done


Timings:
 Total evaluation time                   ...   4.261 sec (  0.071 min)
 One electron matrix time                ...   1.338 sec (  0.022 min) = 31.4%
 Schwartz matrix evaluation time         ...   1.042 sec (  0.017 min) = 24.5%
 Two index repulsion integral time       ...   0.644 sec (  0.011 min) = 15.1%
 Cholesky decomposition of V             ...   1.173 sec (  0.020 min) = 27.5%
 Three index repulsion integral time     ...   0.000 sec (  0.000 min) =  0.0%



           ************************************************************
           *        Program running with 6 parallel MPI-processes     *
           *              working on a common directory               *
           ************************************************************
-------------------------------------------------------------------------------
                                 ORCA SCF
-------------------------------------------------------------------------------

------------
SCF SETTINGS
------------
Hamiltonian:
 Density Functional     Method          .... DFT(GTOs)
 Exchange Functional    Exchange        .... WB88
 Correlation Functional Correlation     .... LYP
 LDA part of GGA corr.  LDAOpt          .... VWN-5
 Gradients option       PostSCFGGA      .... off
 Hybrid DFT is turned on
   Fraction HF Exchange ScalHFX         ....  0.190000
   Scaling of DF-GGA-X  ScalDFX         ....  0.350000
   Scaling of DF-GGA-C  ScalDFC         ....  0.810000
   Scaling of DF-LDA-C  ScalLDAC        ....  1.000000
   Perturbative correction              ....  0.000000
   Density functional embedding theory  .... OFF
 Long-range corrected/Screened/Range-Separated Hybrid DFT is turned on
   Amount of maximum screened exact exchange              ....  0.460000
   Range separation parameter mu (erf(mu*r12)/r12)        ....  0.330000
 RI-approximation to the Coulomb term is turned on
   Number of auxiliary basis functions  .... 5140
   RIJ-COSX (HFX calculated with COS-X)).... on


General Settings:
 Integral files         IntName         .... xtbopt
 Hartree-Fock type      HFTyp           .... RHF
 Total Charge           Charge          ....    0
 Multiplicity           Mult            ....    1
 Number of Electrons    NEL             ....  648
 Basis Dimension        Dim             .... 1598
 Nuclear Repulsion      ENuc            ....  14795.6634659296 Eh

Convergence Acceleration:
 DIIS                   CNVDIIS         .... on
   Start iteration      DIISMaxIt       ....    12
   Startup error        DIISStart       ....  0.200000
   # of expansion vecs  DIISMaxEq       ....     5
   Bias factor          DIISBfac        ....   1.050
   Max. coefficient     DIISMaxC        ....  10.000
 Newton-Raphson         CNVNR           .... off
 SOSCF                  CNVSOSCF        .... on
   Start iteration      SOSCFMaxIt      ....   150
   Startup grad/error   SOSCFStart      ....  0.003300
 Level Shifting         CNVShift        .... on
   Level shift para.    LevelShift      ....    0.2500
   Turn off err/grad.   ShiftErr        ....    0.0010
 Zerner damping         CNVZerner       .... off
 Static damping         CNVDamp         .... on
   Fraction old density DampFac         ....    0.7000
   Max. Damping (<1)    DampMax         ....    0.9800
   Min. Damping (>=0)   DampMin         ....    0.0000
   Turn off err/grad.   DampErr         ....    0.1000
 Fernandez-Rico         CNVRico         .... off

SCF Procedure:
 Maximum # iterations   MaxIter         ....   125
 SCF integral mode      SCFMode         .... Direct
   Integral package                     .... LIBINT
 Reset frequency        DirectResetFreq ....    20
 Integral Threshold     Thresh          ....  2.500e-11 Eh
 Primitive CutOff       TCut            ....  2.500e-12 Eh

Convergence Tolerance:
 Convergence Check Mode ConvCheckMode   .... Total+1el-Energy
 Convergence forced     ConvForced      .... 1
 Energy Change          TolE            ....  1.000e-08 Eh
 1-El. energy change                    ....  1.000e-05 Eh
 Orbital Gradient       TolG            ....  1.000e-05
 Orbital Rotation angle TolX            ....  1.000e-05
 DIIS Error             TolErr          ....  5.000e-07


Diagonalization of the overlap matrix:
Smallest eigenvalue                        ... 1.955e-04
Time for diagonalization                   ...    0.427 sec
Threshold for overlap eigenvalues          ... 1.000e-08
Number of eigenvalues below threshold      ... 0
Time for construction of square roots      ...    0.309 sec
Total time needed                          ...    0.742 sec

-------------------
DFT GRID GENERATION
-------------------

General Integration Accuracy     IntAcc      ...  4.670
Radial Grid Type                 RadialGrid  ... Gauss-Chebyshev
Angular Grid (max. acc.)         AngularGrid ... Lebedev-302
Angular grid pruning method      GridPruning ... 3 (G Style)
Weight generation scheme         WeightScheme... Becke
Basis function cutoff            BFCut       ...    1.0000e-11
Integration weight cutoff        WCut        ...    1.0000e-14
Grids for H and He will be reduced by one unit

# of grid points (after initial pruning)     ... 784712 (   0.1 sec)
# of grid points (after weights+screening)   ... 654468 (  18.4 sec)
nearest neighbour list constructed           ...    0.0 sec
Grid point re-assignment to atoms done       ...    0.1 sec
Grid point division into batches done        ...    2.1 sec
Reduced shell lists constructed in    3.6 sec

Total number of grid points                  ...   654468
Total number of batches                      ...    10305
Average number of points per batch           ...       63
Average number of grid points per atom       ...     4195
Average number of shells per batch           ...   131.91 (17.78%)
Average number of basis functions per batch  ...   261.40 (16.36%)
Average number of large shells per batch     ...    84.24 (63.86%)
Average number of large basis fcns per batch ...   169.01 (64.66%)
Maximum spatial batch extension              ...  17.38, 21.48, 19.20 au
Average spatial batch extension              ...   0.21,  0.22,  0.21 au

Time for grid setup =   22.852 sec

------------------------------
INITIAL GUESS: MODEL POTENTIAL
------------------------------
Loading Hartree-Fock densities                     ... done
Calculating cut-offs                               ... done
Setting up the integral package                    ... done
Initializing the effective Hamiltonian             ... done
Starting the Coulomb interaction                   ... done (   3.0 sec)
Reading the grid                                   ... done
Mapping shells                                     ... done
Starting the XC term evaluation                    ... done (   2.6 sec)
  promolecular density results
     # of electrons  =    647.965303641
     EX              =   -555.445710444
     EC              =    -22.189582086
     EX+EC           =   -577.635292530
Transforming the Hamiltonian                       ... done (   0.2 sec)
Diagonalizing the Hamiltonian                      ... done (   0.4 sec)
Back transforming the eigenvectors                 ... done (   0.1 sec)
Now organizing SCF variables                       ... done
                      ------------------
                      INITIAL GUESS DONE (  29.4 sec)
                      ------------------
--------------------
COSX GRID GENERATION
--------------------

General Integration Accuracy     IntAcc      ...  3.340
Radial Grid Type                 RadialGrid  ... Gauss-Chebyshev
Angular Grid (max. acc.)         AngularGrid ... Lebedev-50
Angular grid pruning method      GridPruning ... 3 (G Style)
Weight generation scheme         WeightScheme... Becke
Basis function cutoff            BFCut       ...    1.0000e-11
Integration weight cutoff        WCut        ...    1.0000e-14
Grids for H and He will be reduced by one unit

# of grid points (after initial pruning)     ...  73572 (   0.0 sec)
# of grid points (after weights+screening)   ...  64308 (   1.7 sec)
nearest neighbour list constructed           ...    0.0 sec
Grid point re-assignment to atoms done       ...    0.0 sec
Grid point division into batches done        ...    0.0 sec
Reduced shell lists constructed in    0.2 sec

Total number of grid points                  ...    64308
Total number of batches                      ...     1085
Average number of points per batch           ...       59
Average number of grid points per atom       ...      412
Average number of shells per batch           ...   149.48 (20.15%)
Average number of basis functions per batch  ...   298.87 (18.70%)
Average number of large shells per batch     ...    94.59 (63.28%)
Average number of large basis fcns per batch ...   192.19 (64.30%)
Maximum spatial batch extension              ...   8.25, 13.63,  8.10 au
Average spatial batch extension              ...   0.39,  0.50,  0.42 au

Overlap Fitting                  UseSFitting ... on
Constructing numerical overlap ... done (      0.2 sec)
Inverting numerical overlap    ... done (      0.1 sec)
Obtaining analytic overlap     ... done (      0.0 sec)
Final contraction and storage  ... done (      0.2 sec)


General Integration Accuracy     IntAcc      ...  3.670
Radial Grid Type                 RadialGrid  ... Gauss-Chebyshev
Angular Grid (max. acc.)         AngularGrid ... Lebedev-50
Angular grid pruning method      GridPruning ... 3 (G Style)
Weight generation scheme         WeightScheme... Becke
Basis function cutoff            BFCut       ...    1.0000e-11
Integration weight cutoff        WCut        ...    1.0000e-14
Grids for H and He will be reduced by one unit

# of grid points (after initial pruning)     ...  92692 (   0.0 sec)
# of grid points (after weights+screening)   ...  80622 (   2.1 sec)
nearest neighbour list constructed           ...    0.0 sec
Grid point re-assignment to atoms done       ...    0.0 sec
Grid point division into batches done        ...    0.0 sec
Reduced shell lists constructed in    0.2 sec

Total number of grid points                  ...    80622
Total number of batches                      ...     1325
Average number of points per batch           ...       60
Average number of grid points per atom       ...      517
[...]
B( 56-C , 61-C ) :   1.3769 B( 57-C , 58-C ) :   1.3931 B( 57-C ,123-H ) :   0.9959 
B( 58-C , 59-C ) :   1.3804 B( 58-C , 64-C ) :   0.9254 B( 59-C , 60-C ) :   1.3305 
B( 59-C , 62-C ) :   0.9915 B( 60-C , 61-C ) :   1.4006 B( 60-C ,124-H ) :   0.9941 
B( 61-C ,125-H ) :   0.9794 B( 62-C , 63-C ) :   1.3841 B( 62-C , 72-C ) :   1.3409 
B( 63-C , 64-C ) :   0.9172 B( 63-C , 69-C ) :   1.3863 B( 64-C , 65-C ) :   1.0147 
B( 64-C , 67-C ) :   1.0309 B( 65-C , 66-C ) :   1.1147 B( 65-C ,126-H ) :   0.9392 
B( 65-C ,127-H ) :   0.9370 B( 66-C ,128-H ) :   0.9610 B( 66-C ,129-H ) :   0.9591 
B( 66-C ,130-H ) :   0.9630 B( 67-C , 68-C ) :   1.1024 B( 67-C ,131-H ) :   0.9384 
B( 67-C ,132-H ) :   0.9395 B( 68-C ,133-H ) :   0.9652 B( 68-C ,134-H ) :   0.9652 
B( 68-C ,135-H ) :   0.9630 B( 69-C , 70-C ) :   1.3327 B( 69-C ,136-H ) :   0.9982 
B( 70-C , 71-C ) :   1.3863 B( 70-C , 73-C ) :   0.9418 B( 71-C , 72-C ) :   1.3685 
B( 71-C ,137-H ) :   0.9888 B( 72-C ,138-H ) :   0.9933 B( 73-C , 74-C ) :   1.3346 
B( 73-C , 78-C ) :   1.3909 B( 74-C , 75-C ) :   1.3803 B( 74-C ,139-H ) :   1.0041 
B( 75-C , 76-C ) :   1.3760 B( 75-C , 81-C ) :   0.9178 B( 76-C , 77-C ) :   1.3533 
B( 76-C , 79-C ) :   0.9861 B( 77-C , 78-C ) :   1.3670 B( 77-C ,140-H ) :   0.9924 
B( 78-C ,141-H ) :   0.9871 B( 79-C , 80-C ) :   1.3732 B( 79-C , 89-C ) :   1.3638 
B( 80-C , 81-C ) :   0.9222 B( 80-C , 86-C ) :   1.4063 B( 81-C , 82-C ) :   1.0382 
B( 81-C , 84-C ) :   1.0350 B( 82-C , 83-C ) :   1.1010 B( 82-C ,142-H ) :   0.9387 
B( 82-C ,143-H ) :   0.9393 B( 83-C ,144-H ) :   0.9640 B( 83-C ,145-H ) :   0.9643 
B( 83-C ,146-H ) :   0.9646 B( 84-C , 85-C ) :   1.1012 B( 84-C ,147-H ) :   0.9398 
B( 84-C ,148-H ) :   0.9398 B( 85-C ,149-H ) :   0.9645 B( 85-C ,150-H ) :   0.9640 
B( 85-C ,151-H ) :   0.9648 B( 86-C , 87-C ) :   1.3537 B( 86-C ,152-H ) :   1.0025 
B( 87-C , 88-C ) :   1.3926 B( 87-C ,153-H ) :   0.9868 B( 88-C , 89-C ) :   1.3724 
B( 88-C ,154-H ) :   0.9848 B( 89-C ,155-H ) :   0.9906 

-------
TIMINGS
-------

Total SCF time: 0 days 0 hours 17 min 51 sec 

Total time                  ....    1071.327 sec
Sum of individual times     ....    1066.520 sec  ( 99.6%)

Fock matrix formation       ....     969.779 sec  ( 90.5%)
  Split-RI-J                ....     113.301 sec  ( 11.7% of F)
  Chain of spheres X        ....     810.289 sec  ( 83.6% of F)
  COS-X 1 center corr.      ....       0.000 sec  (  0.0% of F)
  XC integration            ....      43.889 sec  (  4.5% of F)
    Basis function eval.    ....      12.606 sec  ( 28.7% of XC)
    Density eval.           ....      10.229 sec  ( 23.3% of XC)
    XC-Functional eval.     ....       9.023 sec  ( 20.6% of XC)
    XC-Potential eval.      ....       8.478 sec  ( 19.3% of XC)
Diagonalization             ....       4.307 sec  (  0.4%)
Density matrix formation    ....       1.197 sec  (  0.1%)
Population analysis         ....       0.698 sec  (  0.1%)
Initial guess               ....       6.568 sec  (  0.6%)
Orbital Transformation      ....       0.000 sec  (  0.0%)
Orbital Orthonormalization  ....       0.000 sec  (  0.0%)
DIIS solution               ....       2.868 sec  (  0.3%)
SOSCF solution              ....       4.367 sec  (  0.4%)
Grid generation             ....      76.736 sec  (  7.2%)


           ************************************************************
           *        Program running with 6 parallel MPI-processes     *
           *              working on a common directory               *
           ************************************************************

---------------------------------------------------------------------------------

                       ORCA sTD-DFT CALCULATION

                       please cite in your paper           
 orginal sTDA method:  S. Grimme, J. Chem. Phys. 138, 244104 (2013)           
 range-separated sTDA: T. Risthaus, A. Hansen, S. Grimme, Phys. Chem. Chem. Phys.
                       16, 14408-14419 (2014) 
 sTD-DFT approach:     C. Bannwarth, S. Grimme, Comp. Theor. Chem. 
                       1040-1041, 45-53 (2014)

---------------------------------------------------------------------------------


spectral range up to (eV)      ...    5.000000
occ. MO cut-off (eV)           ...   -14.742533
virt. MO cut-off (eV)          ...    6.272409
perturbation threshold         ...   1.000e-04 
MOs in sTD-DFT                 ...         214 
occ. MOs in sTD-DFT            ...         121 
virt. in sTD-DFT               ...          93 
calculate triplets           ...   no  

Calculating the dipole lengths integrals ... 
Transforming integrals ... 
Calculating the dipole velocity integrals ... 
Transforming integrals ... 
Calculating magnetic dipole integrals ... 
Transforming integrals ... 

































SCF atom population (using active MOs):

   2.205   2.227   2.144   2.088   2.243   2.216   2.056   2.084   2.091   2.576
   2.962   2.565   2.958   2.182   1.992   2.198   2.238   1.999   2.202   2.081
   2.032   2.268   2.208   2.000   2.063   2.024   2.541   2.892   2.467   2.918
   2.157   1.905   2.128   2.235   1.839   1.738   1.421   4.039   1.509   1.512
   1.764   3.171   1.764   0.463   2.520   2.603   2.401   0.472   2.604   2.650
   2.474   1.418   3.984   1.750   1.850   3.463   1.921   2.172   2.084   2.007
   2.244   2.151   2.044   2.094   2.048   2.598   2.931   2.469   2.916   2.207
   2.007   2.217   2.279   1.992   2.184   2.083   2.055   2.239   2.199   2.092
   2.147   2.092   2.564   2.958   2.576   2.963   2.230   2.207   2.218   2.247
   0.526   0.562   0.581   0.531   0.619   0.621   0.656   0.673   0.655   0.620
   0.617   0.654   0.673   0.655   0.560   0.534   0.587   0.557   0.587   0.529
   0.596   0.638   0.657   0.641   0.645   0.612   0.576   0.644   0.665   0.654
   0.542   0.520   0.590   0.543   0.587   0.532   0.639   0.619   0.653   0.651
   0.659   0.585   0.603   0.649   0.670   0.646   0.558   0.530   0.589   0.560
   0.588   0.536   0.620   0.616   0.654   0.674   0.655   0.618   0.622   0.656
   0.673   0.655   0.562   0.525   0.530   0.581

Number of electrons in sTDA:  242.000

ax(DF)   :  0.3800
s^k      :  2.0000
beta  (J):  1.8600
alpha (K):  0.9000

hardness table read
setting up gammas ...
computing q(ij,n)
memory needed for q data:            20.4 MB 
memory available for q data:       2466.1 MB 

















































CSF included by energy:           17 
CSF considered in PT2:         11236 

ordered frontier orbitals
           eV         # centers 
 110      -8.550      32.1
 111      -8.499      17.2
 112      -8.479      26.5
 113      -8.422      23.2
 114      -8.402      24.7
 115      -8.318      12.6
 116      -8.314      12.5
 117      -7.718      36.7
 118      -7.443      35.1
 119      -6.924      37.4
 120      -6.768      42.2

 121      -1.703      12.6
 122      -1.691      13.9
 123      -0.794      29.7
 124      -0.420      43.9
 125      -0.090      36.7
 126       0.342      40.2
 127       0.525      27.9
 128       0.673      31.2
 129       0.690      33.4
 130       0.770      31.8
 131       0.863      47.1

           eV        nm       excitation i->a                     eV 
   0      3.48     356.6   120 -> 121      gap,J,K:    5.065     1.781     0.096
   1      3.50     354.7   120 -> 122      gap,J,K:    5.076     1.700     0.059
   2      3.87     320.7   119 -> 121      gap,J,K:    5.222     1.388     0.016
   3      3.94     314.4   119 -> 122      gap,J,K:    5.233     1.347     0.029
   4      4.32     286.9   118 -> 121      gap,J,K:    5.741     1.625     0.103
   5      4.36     284.4   118 -> 122      gap,J,K:    5.752     1.548     0.078
   6      4.42     280.4   120 -> 123      gap,J,K:    5.973     1.716     0.082
   7      4.48     276.5   117 -> 121      gap,J,K:    6.015     1.586     0.027
   8      4.59     269.9   117 -> 122      gap,J,K:    6.027     1.522     0.044
   9      4.65     266.7   105 -> 121      gap,J,K:    7.598     3.080     0.066
  10      4.83     256.9   119 -> 123      gap,J,K:    6.130     1.474     0.086
  11      4.89     253.4   114 -> 121      gap,J,K:    6.699     1.882     0.038
  12      4.90     252.9   113 -> 121      gap,J,K:    6.719     1.877     0.030
  13      4.91     252.4   106 -> 121      gap,J,K:    7.456     2.934     0.195
  14      4.95     250.3   120 -> 124      gap,J,K:    6.347     1.689     0.148
  15      4.97     249.4   113 -> 122      gap,J,K:    6.730     1.830     0.035
  16      4.98     248.7   105 -> 122      gap,J,K:    7.610     2.840     0.108

average / max PT2 energy lowering (eV):       0.035       0.080

CSF included by PT:                    99 
total number of CSF included:         116 
 
sTD-DFT procedure...
setting up A+B and A-B matrices...  done
estimated time (min):    0.000
calculating (A-B)^0.5 ... done
calculating (A+B)*(A-B)^0.5 ... done
calculating (A-B)^0.5 *(A+B)*(A-B)^0.5 ... done
diagonalizing ...using LAPACKE_ssyevr ...done

   19 roots found, lowest/highest eigenvalue :     3.066     4.870

excitation energies, transition moments and amplitudes

molecular weight: 1237.514
state   eV        nm        fL         fV        Rl        RV
   0   3.066     404.4   0.351592   0.328227  -66.034867  -54.854259     0.66 ( 120-> 121)    0.17 ( 118-> 121)    0.04 ( 119-> 122)
   1   3.085     401.9   0.696705   0.649954  105.235156  106.645083     0.60 ( 120-> 122)    0.13 ( 118-> 122)    0.10 ( 119-> 121)
   2   3.515     352.7   0.000459   0.000399  -2.186721  -2.687976     0.29 ( 119-> 121)    0.18 ( 120-> 122)    0.17 ( 117-> 121)
   3   3.625     342.0   0.000546   0.000829   1.822162   2.034950     0.33 ( 119-> 122)    0.15 ( 117-> 122)    0.12 ( 105-> 121)
   4   3.820     324.6   0.217336   0.198879  -170.050049  -169.697594     0.35 ( 119-> 122)    0.21 ( 105-> 121)    0.07 ( 114-> 121)
   5   3.852     321.9   0.387810   0.311333  -44.550743  -44.538745     0.32 ( 119-> 121)    0.13 ( 103-> 121)    0.12 ( 105-> 122)
   6   4.104     302.1   1.162081   0.898766  371.955936  349.030452     0.67 ( 120-> 123)    0.07 ( 118-> 123)    0.07 ( 119-> 124)
   7   4.296     288.6   0.116995   0.094746  -215.229290  -190.798400     0.40 ( 118-> 121)    0.13 ( 120-> 121)    0.09 ( 119-> 123)
   8   4.401     281.7   0.271862   0.237717  -173.991537  -187.925447     0.19 ( 118-> 122)    0.14 ( 119-> 123)    0.14 ( 120-> 124)
   9   4.411     281.1   0.184933   0.157753  -162.564069  -123.568029     0.29 ( 118-> 122)    0.09 ( 120-> 122)    0.08 ( 118-> 121)
  10   4.491     276.1   0.048805   0.036472  109.845155  66.024513     0.21 ( 113-> 121)    0.13 ( 114-> 122)    0.11 ( 107-> 121)
  11   4.510     274.9   0.438867   0.342457  -486.379757  -414.500125     0.15 ( 113-> 122)    0.11 ( 105-> 121)    0.10 ( 119-> 123)
  12   4.603     269.4   0.117737   0.099196  -92.099694  -85.978458     0.28 ( 117-> 122)    0.16 ( 119-> 122)    0.08 ( 114-> 121)
  13   4.617     268.5   0.036303   0.027714  58.629354  54.300565     0.31 ( 117-> 121)    0.13 ( 119-> 121)    0.12 ( 105-> 122)
  14   4.657     266.3   0.004422   0.003681  20.226982  17.040355     0.79 ( 106-> 121)    0.05 ( 101-> 121)    0.05 ( 107-> 121)
  15   4.730     262.1   0.453769   0.333913  720.921162  625.028977     0.30 ( 119-> 124)    0.23 ( 120-> 125)    0.11 ( 118-> 123)
  16   4.787     259.0   0.004085   0.003672  -5.120222  -5.126631     0.16 ( 117-> 122)    0.15 ( 119-> 123)    0.09 ( 113-> 122)
  17   4.831     256.6   0.207729   0.153361  185.042208  164.346464     0.24 ( 117-> 121)    0.10 ( 119-> 124)    0.09 ( 120-> 125)
  18   4.870     254.6   0.084499   0.067456  -121.120725  -108.235702     0.22 ( 120-> 124)    0.22 ( 119-> 123)    0.10 ( 113-> 122)

-----------------------------------------------------------------------------
         ABSORPTION SPECTRUM VIA TRANSITION ELECTRIC DIPOLE MOMENTS
-----------------------------------------------------------------------------
State   Energy  Wavelength   fosc         T2         TX        TY        TZ  
        (cm-1)    (nm)                  (au**2)     (au)      (au)      (au) 
-----------------------------------------------------------------------------
   0   24725.0    404.4   0.351591682   4.68143   0.33123   1.17795   1.78442
   1   24884.5    401.9   0.696705024   9.21712  -2.81768   0.70885   0.88052
   2   28350.8    352.7   0.000459238   0.00533  -0.02282   0.06840   0.01154
   3   29241.0    342.0   0.000546267   0.00615  -0.03237  -0.03133  -0.06419
   4   30808.1    324.6   0.217335841   2.32243   0.64717   0.77839   1.13917
   5   31069.6    321.9   0.387809908   4.10921  -1.70247   0.88972   0.64747
   6   33101.8    302.1   1.162081338  11.55742  -2.84753   1.39175   1.22965
   7   34650.4    288.6   0.116994604   1.11156  -0.54660  -0.47582  -0.76576
   8   35499.4    281.7   0.271862158   2.52118   1.20734   0.65995   0.79244
   9   35574.8    281.1   0.184933276   1.71139  -0.09671  -0.53913  -1.18801
  10   36221.1    276.1   0.048804559   0.44358   0.15616  -0.60028  -0.24262
  11   36377.4    274.9   0.438867234   3.97171   1.19764   0.81428   1.36906
  12   37125.8    269.4   0.117736955   1.04403   0.49943   0.51755   0.72577
  13   37242.0    268.5   0.036302825   0.32091  -0.51177   0.18554  -0.15677
  14   37558.5    266.3   0.004422022   0.03876   0.16569  -0.00919  -0.10593
  15   38152.7    262.1   0.453769266   3.91548  -1.47962   1.22666   0.47063
  16   38609.5    259.0   0.004085160   0.03483   0.11410   0.08117   0.12340
  17   38964.6    256.6   0.207729280   1.75511   1.07395  -0.68809  -0.35815
  18   39281.4    254.6   0.084498825   0.70817  -0.40255  -0.41951  -0.60839

-----------------------------------------------------------------------------
         ABSORPTION SPECTRUM VIA TRANSITION VELOCITY DIPOLE MOMENTS
-----------------------------------------------------------------------------
State   Energy  Wavelength   fosc         P2         PX        PY        PZ  
        (cm-1)    (nm)                  (au**2)     (au)      (au)      (au) 
-----------------------------------------------------------------------------
   0   24725.0    404.4   0.328226699   0.05546   0.03601   0.12876   0.19388
   1   24884.5    401.9   0.649954468   0.11054  -0.30853   0.07836   0.09595
   2   28350.8    352.7   0.000398664   0.00008  -0.00378   0.00777   0.00164
   3   29241.0    342.0   0.000828810   0.00017  -0.00557  -0.00482  -0.01055
   4   30808.1    324.6   0.198878912   0.04188   0.08878   0.10347   0.15260
   5   31069.6    321.9   0.311332692   0.06611  -0.21701   0.11103   0.08179
   6   33101.8    302.1   0.898765879   0.20333  -0.37767   0.18597   0.16161
   7   34650.4    288.6   0.094745632   0.02244  -0.07790  -0.06796  -0.10840
   8   35499.4    281.7   0.237717243   0.05768   0.18123   0.09827   0.12318
   9   35574.8    281.1   0.157753444   0.03836  -0.01819  -0.08406  -0.17595
  10   36221.1    276.1   0.036471715   0.00903   0.02469  -0.08233  -0.04050
  11   36377.4    274.9   0.342457204   0.08514   0.17556   0.12046   0.19953
  12   37125.8    269.4   0.099196109   0.02517   0.07872   0.07983   0.11225
  13   37242.0    268.5   0.027714193   0.00705  -0.07586   0.02548  -0.02549
  14   37558.5    266.3   0.003680814   0.00094   0.02664  -0.00148  -0.01526
  15   38152.7    262.1   0.333912525   0.08707  -0.22015   0.18366   0.06978
  16   38609.5    259.0   0.003671797   0.00097   0.01888   0.01340   0.02081
  17   38964.6    256.6   0.153360532   0.04084   0.16358  -0.10565  -0.05403
  18   39281.4    254.6   0.067456016   0.01811  -0.06490  -0.06694  -0.09704

-------------------------------------------------------------------
                             CD SPECTRUM
-------------------------------------------------------------------
State   Energy Wavelength       R         MX        MY        MZ   
        (cm-1)   (nm)       (1e40*cgs)   (au)      (au)      (au)  
-------------------------------------------------------------------
   0   24725.0    404.4    -66.03487   0.33629  -5.50587   3.72915
   1   24884.5    401.9    105.23516   0.24835  -2.04119   1.93093
   2   28350.8    352.7     -2.18672  -0.23982  -0.01396   0.41233
   3   29241.0    342.0      1.82216   0.03155   0.38984  -0.08577
   4   30808.1    324.6    -170.05005   0.42486  -4.38432   3.38767
   5   31069.6    321.9    -44.55074   0.03120  -2.15836   3.33984
   6   33101.8    302.1    371.95594   0.63146  -4.50981   5.28336
   7   34650.4    288.6    -215.22929  -0.52946   2.88510  -2.60714
   8   35499.4    281.7    -173.99154   0.58428  -4.17271   3.51629
   9   35574.8    281.1    -162.56407  -0.12624   4.18838  -2.47094
  10   36221.1    276.1    109.84516  -0.56311   1.72253  -2.70360
  11   36377.4    274.9    -486.37976   0.68651  -5.57803   4.22428
  12   37125.8    269.4    -92.09969   0.37298  -3.38395   2.69477
  13   37242.0    268.5     58.62935   0.15413  -0.04626   1.02867
  14   37558.5    266.3     20.22698  -0.06182  -1.06364   0.80558
  15   38152.7    262.1    720.92116   0.87339  -3.79305   6.13374
  16   38609.5    259.0     -5.12022   0.09211  -0.67872   0.53729
  17   38964.6    256.6    185.04221  -0.24883   2.69605  -3.73411
  18   39281.4    254.6    -121.12073  -0.42674   2.75131  -2.45933

sTD-DFT done

Total run time:        7.338 sec

           *** ORCA-CIS/TD-DFT FINISHED WITHOUT ERROR ***

-------------------------   --------------------
FINAL SINGLE POINT ENERGY     -4629.303370160100
-------------------------   --------------------


                            ***************************************
                            *     ORCA property calculations      *
                            ***************************************

                                    ---------------------
                                    Active property flags
                                    ---------------------
   (+) Dipole Moment


------------------------------------------------------------------------------
                       ORCA ELECTRIC PROPERTIES CALCULATION
------------------------------------------------------------------------------

Dipole Moment Calculation                       ... on
Quadrupole Moment Calculation                   ... off
Polarizability Calculation                      ... off
GBWName                                         ... xtbopt.gbw
Electron density file                           ... xtbopt.scfp
The origin for moment calculation is the CENTER OF MASS  = (-24.228519,  3.733799  7.239731)

-------------
DIPOLE MOMENT
-------------
                                X             Y             Z
Electronic contribution:   -129.02508    -101.50857    -169.31246
Nuclear contribution   :    130.16187     102.52733     170.78387
                        -----------------------------------------
Total Dipole Moment    :      1.13679       1.01877       1.47141
                        -----------------------------------------
Magnitude (a.u.)       :      2.12019
Magnitude (Debye)      :      5.38910



--------------------
Rotational spectrum 
--------------------
 
Rotational constants in cm-1:     0.000559     0.000209     0.000156 
Rotational constants in MHz :    16.754687     6.271449     4.676381 

 Dipole components along the rotational axes: 
x,y,z [a.u.] :     0.040760     2.117846     0.090971 
x,y,z [Debye]:     0.103604     5.383136     0.231230 

 

Timings for individual modules:

Sum of individual times         ...     1085.037 sec (=  18.084 min)
GTO integral calculation        ...        4.975 sec (=   0.083 min)   0.5 %
SCF iterations                  ...     1071.985 sec (=  17.866 min)  98.8 %
CIS module                      ...        8.077 sec (=   0.135 min)   0.7 %
                             ****ORCA TERMINATED NORMALLY****
TOTAL RUN TIME: 0 days 0 hours 18 minutes 6 seconds 657 msec
