
                                 *****************
                                 * O   R   C   A *
                                 *****************

           --- An Ab Initio, DFT and Semiempirical electronic structure package ---

                  #######################################################
                  #                        -***-                        #
                  #          Department of theory and spectroscopy      #
                  #               Directorship: Frank Neese             #
                  #        Max Planck Institute fuer Kohlenforschung    #
                  #                Kaiser Wilhelm Platz 1               #
                  #                 D-45470 Muelheim/Ruhr               #
                  #                      Germany                        #
                  #                                                     #
                  #                  All rights reserved                #
                  #                        -***-                        #
                  #######################################################


                         Program Version 4.2.0 -  RELEASE  -


 With contributions from (in alphabetic order):
   Daniel Aravena         : Magnetic Suceptibility
   Michael Atanasov       : Ab Initio Ligand Field Theory (pilot matlab implementation)
   Alexander A. Auer      : GIAO ZORA, VPT2
   Ute Becker             : Parallelization
   Giovanni Bistoni       : ED, misc. LED, open-shell LED, HFLED
   Martin Brehm           : Molecular dynamics
   Dmytro Bykov           : SCF Hessian
   Vijay G. Chilkuri      : MRCI spin determinant printing, contributions to CSF-ICE
   Dipayan Datta          : RHF DLPNO-CCSD density
   Achintya Kumar Dutta   : EOM-CC, STEOM-CC
   Dmitry Ganyushin       : Spin-Orbit,Spin-Spin,Magnetic field MRCI
   Miquel Garcia          : C-PCM Hessian, Gaussian charge scheme
   Yang Guo               : DLPNO-NEVPT2, CIM, IAO-localization
   Andreas Hansen         : Spin unrestricted coupled pair/coupled cluster methods
   Benjamin Helmich-Paris : CASSCF linear response (MC-RPA)
   Lee Huntington         : MR-EOM, pCC
   Robert Izsak           : Overlap fitted RIJCOSX, COSX-SCS-MP3, EOM
   Christian Kollmar      : KDIIS, OOCD, Brueckner-CCSD(T), CCSD density
   Simone Kossmann        : Meta GGA functionals, TD-DFT gradient, OOMP2, MP2 Hessian
   Martin Krupicka        : AUTO-CI
   Lucas Lang             : DCDCAS
   Dagmar Lenk            : GEPOL surface, SMD
   Dimitrios Liakos       : Extrapolation schemes; Compound Job, initial MDCI parallelization
   Dimitrios Manganas     : Further ROCIS development; embedding schemes
   Dimitrios Pantazis     : SARC Basis sets
   Taras Petrenko         : DFT Hessian,TD-DFT gradient, ASA, ECA, R-Raman, ABS, FL, XAS/XES, NRVS
   Peter Pinski           : DLPNO-MP2, DLPNO-MP2 Gradient
   Christoph Reimann      : Effective Core Potentials
   Marius Retegan         : Local ZFS, SOC
   Christoph Riplinger    : Optimizer, TS searches, QM/MM, DLPNO-CCSD(T), (RO)-DLPNO pert. Triples
   Tobias Risthaus        : Range-separated hybrids, TD-DFT gradient, RPA, STAB
   Michael Roemelt        : Original ROCIS implementation
   Masaaki Saitow         : Open-shell DLPNO-CCSD energy and density
   Barbara Sandhoefer     : DKH picture change effects
   Avijit Sen             : IP-ROCIS
   Kantharuban Sivalingam : CASSCF convergence, NEVPT2, FIC-MRCI
   Bernardo de Souza      : ESD, SOC TD-DFT
   Georgi Stoychev        : AutoAux, RI-MP2 NMR
   Willem Van den Heuvel  : Paramagnetic NMR
   Boris Wezisla          : Elementary symmetry handling
   Frank Wennmohs         : Technical directorship


 We gratefully acknowledge several colleagues who have allowed us to
 interface, adapt or use parts of their codes:
   Stefan Grimme, W. Hujo, H. Kruse,             : VdW corrections, initial TS optimization,
                  C. Bannwarth                     DFT functionals, gCP, sTDA/sTD-DF
   Ed Valeev, F. Pavosevic, A. Kumar             : LibInt (2-el integral package), F12 methods
   Garnet Chan, S. Sharma, J. Yang, R. Olivares  : DMRG
   Ulf Ekstrom                                   : XCFun DFT Library
   Mihaly Kallay                                 : mrcc  (arbitrary order and MRCC methods)
   Andreas Klamt, Michael Diedenhofen            : otool_cosmo (COSMO solvation model)
   Jiri Pittner, Ondrej Demel                    : Mk-CCSD
   Frank Weinhold                                : gennbo (NPA and NBO analysis)
   Christopher J. Cramer and Donald G. Truhlar   : smd solvation model
   Lars Goerigk                                  : TD-DFT with DH, B97 family of functionals
   V. Asgeirsson, H. Jonsson                     : NEB implementation
   FAccTs GmbH                                   : IRC, NEB, NEB-TS, Multilevel, MM, QM/MM, CI optimization
   S Lehtola, MJT Oliveira, MAL Marques          : LibXC Library


 Your calculation uses the libint2 library for the computation of 2-el integrals
 For citations please refer to: http://libint.valeyev.net

 Your ORCA version has been built with support for libXC version: 4.2.3
 For citations please refer to: https://tddft.org/programs/libxc/

 This ORCA versions uses:
   CBLAS   interface :  Fast vector & matrix operations
   LAPACKE interface :  Fast linear algebra routines
   SCALAPACK package :  Parallel linear algebra routines


XCFun DFT library Copyright 2009-2010 Ulf Ekstrom and contributors.
See http://admol.org/xcfun for more information. This is free soft-
ware; see the source code for copying conditions. There is ABSOLUTELY
NO WARRANTY; not even for MERCHANTABILITY or FITNESS FOR A PARTICULAR
PURPOSE. For details see the documentation. Scientific users of this 
library should cite U. Ekstrom, L. Visscher, R. Bast, A. J. Thorvald-
sen and K. Ruud; J.Chem.Theor.Comp. 2010, DOI: 10.1021/ct100117s
XCFun Version 0.99 
----- Orbital basis set information -----
Your calculation utilizes the basis: def2-SVP
   F. Weigend and R. Ahlrichs, Phys. Chem. Chem. Phys. 7, 3297 (2005).

----- AuxJ basis set information -----
Your calculation utilizes the auxiliary basis: def2/J
   F. Weigend, Phys. Chem. Chem. Phys. 8, 1057 (2006).

================================================================================
                                        WARNINGS
                       Please study these warnings very carefully!
================================================================================

INFO   : Checking CIS options ...

WARNING: CIS/ROCIS methods need fully converged wavefunctions
  ===> : Setting SCFConvForced true
         You can overwrite this default with %scf ConvForced false 


INFO   : the flag for use of LIBINT has been found!

================================================================================
                                       INPUT FILE
================================================================================
NAME = xtbopt.inp
|  1> # ORCA input file
|  2> # SCF done       -178.672766091705          0.000935224979
|  3> ! CAM-B3LYP def2-SVP def2/J RIJCOSX Grid4 TightSCF
|  4> %maxcore 5000
|  5> %tddft
|  6>     Mode sTDDFT
|  7>     Ethresh 5.0
|  8>     maxcore 5000
|  9> end
| 10> 
| 11> %pal
| 12>   nprocs 6
| 13>   end
| 14> * xyz 0 1
| 15>    C        0.80532         3.60907        -0.24826
| 16>    C        1.15393         2.35167         0.17310
| 17>    C        2.41741         1.76600        -0.05089
| 18>    N        3.42101         1.23174        -0.20909
| 19>    C        0.32376         1.48494         0.91435
| 20>    N       -0.28589         0.73423         1.53430
| 21>    C        1.68527         4.55481        -0.91992
| 22>    C        1.00511         5.79140        -1.04914
| 23>    C        1.57486         6.89312        -1.64044
| 24>    C        2.87871         6.76944        -2.12875
| 25>    C        3.54949         5.52881        -2.00034
| 26>    C        2.97339         4.41477        -1.40136
| 27>    S        5.14373         5.60403        -2.68121
| 28>    C        4.90529         7.26007        -3.11936
| 29>    C        3.69084         7.74224        -2.77633
| 30>    C       -0.34629         5.67878        -0.47563
| 31>    O       -1.18827         6.55097        -0.45220
| 32>    C       -0.47208         4.26632        -0.03086
| 33>    C       -1.62756         3.62376         0.31339
| 34>    C       -2.88706         4.17956         0.62311
| 35>    C       -3.25215         5.44689         1.05479
| 36>    C       -4.62243         5.55796         1.25325
| 37>    C       -5.32292         4.36454         0.96895
| 38>    S       -4.28483         3.10148         0.50396
| 39>    C       -6.70611         4.60355         1.14046
| 40>    C       -6.88641         5.94073         1.54385
| 41>    C       -5.58007         6.57851         1.64248
| 42>    C       -5.31995         7.86141         2.02272
| 43>    C       -4.01091         8.38102         2.12543
| 44>    N       -2.95876         8.82148         2.23752
| 45>    C       -6.35492         8.75930         2.36119
| 46>    N       -7.19929         9.48623         2.63126
| 47>    C       -8.22433         6.28235         1.71346
| 48>    C       -9.07404         5.22140         1.43315
| 49>    S       -8.18887         3.77607         0.96868
| 50>    C      -10.48999         5.17727         1.43622
| 51>    C      -11.30493         6.19757         1.80261
| 52>    C      -12.71822         6.15096         1.73161
| 53>    C      -13.59736         7.15432         2.11145
| 54>    C      -14.92495         6.81038         1.87080
| 55>    C      -15.06340         5.53134         1.29958
| 56>    S      -13.56192         4.75390         1.07305
| 57>    C      -16.43735         5.28162         1.06780
| 58>    C      -17.17086         6.40806         1.49313
| 59>    C      -16.24841         7.39566         2.02566
| 60>    C      -16.57093         8.59938         2.57922
| 61>    C      -15.59346         9.48319         3.08279
| 62>    N      -14.79739        10.20293         3.48558
| 63>    C      -17.91230         9.02664         2.67777
| 64>    N      -19.00627         9.36356         2.74344
| 65>    C      -18.53995         6.26111         1.31410
| 66>    C      -18.86854         5.03267         0.75913
| 67>    S      -17.43747         4.06070         0.43299
| 68>    C      -20.13647         4.52999         0.39262
| 69>    C      -21.37098         4.94790         0.78407
| 70>    C      -21.84441         5.80846         1.84841
| 71>    C      -21.26685         5.98470         3.07961
| 72>    C      -21.85825         6.72293         4.12631
| 73>    N      -22.29916         7.30510         5.01125
| 74>    C      -20.06689         5.36620         3.47883
| 75>    N      -19.10481         4.86115         3.85068
| 76>    C      -23.19272         6.23399         1.49001
| 77>    C      -23.63309         5.46805         0.37908
| 78>    C      -22.54859         4.57117        -0.05281
| 79>    O      -22.56821         3.73704        -0.92862
| 80>    C      -24.88747         5.61386        -0.16324
| 81>    C      -25.73874         6.56549         0.40654
| 82>    C      -25.28102         7.33853         1.50161
| 83>    C      -24.01598         7.18616         2.05757
| 84>    S      -26.49397         8.45989         2.02989
| 85>    C      -27.58352         7.89306         0.81233
| 86>    C      -27.06966         6.91146         0.03933
| 87>    H        1.02984         7.82093        -1.71947
| 88>    H        3.52290         3.49078        -1.33296
| 89>    H        5.70263         7.77837        -3.61554
| 90>    H        3.36553         8.74856        -2.96855
| 91>    H       -1.61038         2.53987         0.31570
| 92>    H       -2.54324         6.23754         1.21177
| 93>    H       -8.57420         7.25315         2.01113
| 94>    H      -10.93523         4.24826         1.10234
| 95>    H      -10.88782         7.12569         2.16667
| 96>    H      -13.26783         8.08478         2.53718
| 97>    H      -19.26921         7.02103         1.52768
| 98>    H      -20.14037         3.74571        -0.35871
| 99>    H      -25.20160         5.01188        -1.00166
|100>    H      -23.70472         7.80265         2.88469
|101>    H      -28.55763         8.33782         0.74927
|102>    H      -27.60105         6.43883        -0.76670
|103> *
|104> 
|105>                          ****END OF INPUT****
================================================================================

                       ****************************
                       * Single Point Calculation *
                       ****************************

---------------------------------
CARTESIAN COORDINATES (ANGSTROEM)
---------------------------------
  C      0.805320    3.609070   -0.248260
  C      1.153930    2.351670    0.173100
  C      2.417410    1.766000   -0.050890
  N      3.421010    1.231740   -0.209090
  C      0.323760    1.484940    0.914350
  N     -0.285890    0.734230    1.534300
  C      1.685270    4.554810   -0.919920
  C      1.005110    5.791400   -1.049140
  C      1.574860    6.893120   -1.640440
  C      2.878710    6.769440   -2.128750
  C      3.549490    5.528810   -2.000340
  C      2.973390    4.414770   -1.401360
  S      5.143730    5.604030   -2.681210
  C      4.905290    7.260070   -3.119360
  C      3.690840    7.742240   -2.776330
  C     -0.346290    5.678780   -0.475630
  O     -1.188270    6.550970   -0.452200
  C     -0.472080    4.266320   -0.030860
  C     -1.627560    3.623760    0.313390
  C     -2.887060    4.179560    0.623110
  C     -3.252150    5.446890    1.054790
  C     -4.622430    5.557960    1.253250
  C     -5.322920    4.364540    0.968950
  S     -4.284830    3.101480    0.503960
  C     -6.706110    4.603550    1.140460
  C     -6.886410    5.940730    1.543850
  C     -5.580070    6.578510    1.642480
  C     -5.319950    7.861410    2.022720
  C     -4.010910    8.381020    2.125430
  N     -2.958760    8.821480    2.237520
  C     -6.354920    8.759300    2.361190
  N     -7.199290    9.486230    2.631260
  C     -8.224330    6.282350    1.713460
  C     -9.074040    5.221400    1.433150
  S     -8.188870    3.776070    0.968680
  C    -10.489990    5.177270    1.436220
  C    -11.304930    6.197570    1.802610
  C    -12.718220    6.150960    1.731610
  C    -13.597360    7.154320    2.111450
  C    -14.924950    6.810380    1.870800
  C    -15.063400    5.531340    1.299580
  S    -13.561920    4.753900    1.073050
  C    -16.437350    5.281620    1.067800
  C    -17.170860    6.408060    1.493130
  C    -16.248410    7.395660    2.025660
  C    -16.570930    8.599380    2.579220
  C    -15.593460    9.483190    3.082790
  N    -14.797390   10.202930    3.485580
  C    -17.912300    9.026640    2.677770
  N    -19.006270    9.363560    2.743440
  C    -18.539950    6.261110    1.314100
  C    -18.868540    5.032670    0.759130
  S    -17.437470    4.060700    0.432990
  C    -20.136470    4.529990    0.392620
  C    -21.370980    4.947900    0.784070
  C    -21.844410    5.808460    1.848410
  C    -21.266850    5.984700    3.079610
  C    -21.858250    6.722930    4.126310
  N    -22.299160    7.305100    5.011250
  C    -20.066890    5.366200    3.478830
  N    -19.104810    4.861150    3.850680
  C    -23.192720    6.233990    1.490010
  C    -23.633090    5.468050    0.379080
  C    -22.548590    4.571170   -0.052810
  O    -22.568210    3.737040   -0.928620
  C    -24.887470    5.613860   -0.163240
  C    -25.738740    6.565490    0.406540
  C    -25.281020    7.338530    1.501610
  C    -24.015980    7.186160    2.057570
  S    -26.493970    8.459890    2.029890
  C    -27.583520    7.893060    0.812330
  C    -27.069660    6.911460    0.039330
  H      1.029840    7.820930   -1.719470
  H      3.522900    3.490780   -1.332960
  H      5.702630    7.778370   -3.615540
  H      3.365530    8.748560   -2.968550
  H     -1.610380    2.539870    0.315700
  H     -2.543240    6.237540    1.211770
  H     -8.574200    7.253150    2.011130
  H    -10.935230    4.248260    1.102340
  H    -10.887820    7.125690    2.166670
  H    -13.267830    8.084780    2.537180
  H    -19.269210    7.021030    1.527680
  H    -20.140370    3.745710   -0.358710
  H    -25.201600    5.011880   -1.001660
  H    -23.704720    7.802650    2.884690
  H    -28.557630    8.337820    0.749270
  H    -27.601050    6.438830   -0.766700

----------------------------
CARTESIAN COORDINATES (A.U.)
----------------------------
  NO LB      ZA    FRAG     MASS         X           Y           Z
   0 C     6.0000    0    12.011    1.521834    6.820154   -0.469143
   1 C     6.0000    0    12.011    2.180612    4.444012    0.327112
   2 C     6.0000    0    12.011    4.568243    3.337256   -0.096168
   3 N     7.0000    0    14.007    6.464772    2.327651   -0.395123
   4 C     6.0000    0    12.011    0.611818    2.806130    1.727871
   5 N     7.0000    0    14.007   -0.540254    1.387494    2.899407
   6 C     6.0000    0    12.011    3.184699    8.607343   -1.738397
   7 C     6.0000    0    12.011    1.899383   10.944160   -1.982587
   8 C     6.0000    0    12.011    2.976054   13.026109   -3.099982
   9 C     6.0000    0    12.011    5.439974   12.792388   -4.022755
  10 C     6.0000    0    12.011    6.707564   10.447937   -3.780095
  11 C     6.0000    0    12.011    5.618893    8.342706   -2.648187
  12 S    16.0000    0    32.060    9.720241   10.590082   -5.066753
  13 C     6.0000    0    12.011    9.269655   13.719544   -5.894736
  14 C     6.0000    0    12.011    6.974677   14.630713   -5.246503
  15 C     6.0000    0    12.011   -0.654393   10.731339   -0.898810
  16 O     8.0000    0    15.999   -2.245505   12.379539   -0.854534
  17 C     6.0000    0    12.011   -0.892102    8.062176   -0.058317
  18 C     6.0000    0    12.011   -3.075643    6.847914    0.592221
  19 C     6.0000    0    12.011   -5.455753    7.898224    1.177507
  20 C     6.0000    0    12.011   -6.145673   10.293130    1.993264
  21 C     6.0000    0    12.011   -8.735127   10.503022    2.368299
  22 C     6.0000    0    12.011  -10.058861    8.247785    1.831050
  23 S    16.0000    0    32.060   -8.097155    5.860948    0.952346
  24 C     6.0000    0    12.011  -12.672711    8.699449    2.155157
  25 C     6.0000    0    12.011  -13.013429   11.226353    2.917454
  26 C     6.0000    0    12.011  -10.544804   12.431582    3.103837
  27 C     6.0000    0    12.011  -10.053249   14.855912    3.822387
  28 C     6.0000    0    12.011   -7.579521   15.837833    4.016481
  29 N     7.0000    0    14.007   -5.591246   16.670181    4.228300
  30 C     6.0000    0    12.011  -12.009058   16.552678    4.462002
  31 N     7.0000    0    14.007  -13.604686   17.926377    4.972361
  32 C     6.0000    0    12.011  -15.541731   11.871921    3.237970
  33 C     6.0000    0    12.011  -17.147451    9.867016    2.708261
  34 S    16.0000    0    32.060  -15.474722    7.135738    1.830540
  35 C     6.0000    0    12.011  -19.823208    9.783622    2.714062
  36 C     6.0000    0    12.011  -21.363222   11.711710    3.406439
  37 C     6.0000    0    12.011  -24.033953   11.623630    3.272269
  38 C     6.0000    0    12.011  -25.695287   13.519705    3.990062
  39 C     6.0000    0    12.011  -28.204068   12.869753    3.535300
  40 C     6.0000    0    12.011  -28.465701   10.452718    2.455850
  41 S    16.0000    0    32.060  -25.628315    8.983569    2.027771
  42 C     6.0000    0    12.011  -31.062090    9.980815    2.017850
  43 C     6.0000    0    12.011  -32.448223   12.109478    2.821607
  44 C     6.0000    0    12.011  -30.705045   13.975772    3.827943
  45 C     6.0000    0    12.011  -31.314519   16.250473    4.874019
  46 C     6.0000    0    12.011  -29.467369   17.920632    5.825629
  47 N     7.0000    0    14.007  -27.963015   19.280743    6.586792
  48 C     6.0000    0    12.011  -33.849341   17.057878    5.060252
  49 N     7.0000    0    14.007  -35.916645   17.694564    5.184350
  50 C     6.0000    0    12.011  -35.035428   11.831783    2.483289
  51 C     6.0000    0    12.011  -35.656373    9.510368    1.434548
  52 S    16.0000    0    32.060  -32.952043    7.673611    0.818233
  53 C     6.0000    0    12.011  -38.052414    8.560440    0.741944
  54 C     6.0000    0    12.011  -40.385299    9.350176    1.481678
  55 C     6.0000    0    12.011  -41.279952   10.976399    3.492989
  56 C     6.0000    0    12.011  -40.188522   11.309444    5.819619
  57 C     6.0000    0    12.011  -41.306106   12.704497    7.797596
  58 N     7.0000    0    14.007  -42.139305   13.804638    9.469890
  59 C     6.0000    0    12.011  -37.920926   10.140648    6.574036
  60 N     7.0000    0    14.007  -36.102859    9.186242    7.276731
  61 C     6.0000    0    12.011  -43.827889   11.780534    2.815711
  62 C     6.0000    0    12.011  -44.660068   10.333117    0.716357
  63 C     6.0000    0    12.011  -42.610660    8.638259   -0.099796
  64 O     8.0000    0    15.999  -42.647736    7.061982   -1.754837
  65 C     6.0000    0    12.011  -47.030502   10.608658   -0.308479
  66 C     6.0000    0    12.011  -48.639170   12.406978    0.768249
  67 C     6.0000    0    12.011  -47.774204   13.867812    2.837632
  68 C     6.0000    0    12.011  -45.383625   13.579874    3.888244
  69 S    16.0000    0    32.060  -50.066348   15.986875    3.835936
  70 C     6.0000    0    12.011  -52.125299   14.915722    1.535081
  71 C     6.0000    0    12.011  -51.154244   13.060767    0.074323
  72 H     1.0000    0     1.008    1.946116   14.779416   -3.249327
  73 H     1.0000    0     1.008    6.657316    6.596618   -2.518929
  74 H     1.0000    0     1.008   10.776409   14.698989   -6.832380
  75 H     1.0000    0     1.008    6.359930   16.532382   -5.609747
  76 H     1.0000    0     1.008   -3.043177    4.799659    0.596587
  77 H     1.0000    0     1.008   -4.806027   11.787242    2.289913
  78 H     1.0000    0     1.008  -16.202890   13.706467    3.800485
  79 H     1.0000    0     1.008  -20.664590    8.028048    2.083121
  80 H     1.0000    0     1.008  -20.574998   13.465603    4.094413
  81 H     1.0000    0     1.008  -25.072565   15.278020    4.794575
  82 H     1.0000    0     1.008  -36.413530   13.267824    2.886897
  83 H     1.0000    0     1.008  -38.059784    7.078366   -0.677864
  84 H     1.0000    0     1.008  -47.624122    9.471081   -1.892863
  85 H     1.0000    0     1.008  -44.795429   14.744872    5.451274
  86 H     1.0000    0     1.008  -53.966100   15.756196    1.415915
  87 H     1.0000    0     1.008  -52.158426   12.167625   -1.448853

--------------------------------
INTERNAL COORDINATES (ANGSTROEM)
--------------------------------
 C      0   0   0     0.000000000000     0.00000000     0.00000000
 C      1   0   0     1.371177574824     0.00000000     0.00000000
 C      2   1   0     1.410518549825   124.03516158     0.00000000
 N      3   2   1     1.147899798589   176.64794967   187.93698329
 C      2   1   3     1.410622091242   125.12067602   178.18741007
 N      5   2   1     1.148728265997   175.91958000   194.46113748
 C      1   2   3     1.455975036084   125.71565403   356.59917101
 C      7   1   2     1.417205088228   108.58922591   186.83376349
 C      8   7   1     1.374058845501   122.67343311   179.78736826
 C      9   8   7     1.397772592735   117.78628062     0.02967457
 C     10   9   8     1.416191277123   119.18703684     0.21528844
 C      7   1   2     1.382262207253   131.15330081     6.86214095
 S     11  10   9     1.735178141546   111.19993950   179.66134548
 C     13  11  10     1.729536798597    90.81639526     0.10901604
 C     14  13  11     1.350942742051   113.66290358   359.96221863
 C      8   7   1     1.472371877108   109.76982788   359.39611438
 O     16   8   7     1.212515847896   126.14712223   181.53179909
 C      1   2   3     1.452925009249   126.32560755   180.83122894
 C     18   1   2     1.366208419861   124.64765579   342.03695317
 C     19  18   1     1.411091906433   128.67875322   175.75002832
 C     20  19  18     1.387718869008   131.51449440   338.22911556
 C     21  20  19     1.389024907948   112.14839313   180.59505332
 C     22  21  20     1.412715125742   113.13207585   359.86861830
 S     23  22  21     1.699755015230   112.33119604     1.69946341
 C     23  22  21     1.414127305549   108.53063610   182.75857656
 C     25  23  22     1.408290429741   108.69005513   359.49465296
 C     22  21  20     1.452617177718   138.14341633   182.13690045
 C     27  22  21     1.363113084817   127.60094786   356.35982826
 C     28  27  22     1.412136543610   122.92170334   358.23371091
 N     29  28  27     1.146119017467   178.20982422   217.05569779
 C     28  27  22     1.411357960937   121.71620387   179.16769291
 N     31  28  27     1.146440459291   179.67220792   320.86867496
 C     26  25  23     1.391223096020   113.02906942   178.77838395
 C     33  26  25     1.387874519796   112.11373603   359.51351690
 S     25  23  22     1.706695267586   139.08043448   177.55720794
 C     34  33  26     1.416640845204   129.44337732   182.66663417
 C     36  34  33     1.356237783613   125.29175542   356.03189417
 C     37  36  34     1.415839721226   124.15872278   176.61944491
 C     38  37  36     1.387046089645   126.52216973   178.92555186
 C     39  38  37     1.392372922101   112.22931989   177.91692345
 C     40  39  38     1.407623533655   112.85315381   359.93358227
 S     41  40  39     1.705922326749   112.42148627     0.45520136
 C     41  40  39     1.415563721385   108.79642120   181.14849356
 C     43  41  40     1.409897018438   108.33818286     0.05331952
 C     44  43  41     1.452534324345   108.87009474   359.25571897
 C     45  44  43     1.363594390719   126.78576528   182.48417767
 C     46  45  44     1.410726926765   122.28063839   179.26545827
 N     47  46  45     1.146295292060   179.65851205    73.85794260
 C     46  45  44     1.411218157125   121.36091715   359.27407759
 N     49  46  45     1.146559198733   179.09373507   333.02895197
 C     44  43  41     1.388543651276   112.92461440   180.30791573
 C     51  44  43     1.387453755121   112.25845357     0.16562836
 S     43  41  40     1.701137677233   139.31823426   179.43119278
 C     52  51  44     1.412325475023   129.16450563   182.08107470
 C     54  52  51     1.360844153715   129.08450116   341.36757213
 C     55  54  52     1.448281434701   133.66288034   345.65228555
 C     56  55  54     1.371309422122   126.76254876   329.15214593
 C     57  56  55     1.410786441280   123.83601966   187.36868955
 N     58  57  56     1.147363212152   177.23225283   171.52265392
 C     57  56  55     1.407772304032   123.85860155     2.27527542
 N     60  57  56     1.148453678387   177.54791943   211.25147477
 C     56  55  54     1.458583627016   107.15456721   161.07179129
 C     62  56  55     1.419420756999   108.76437694    10.60378478
 C     63  62  56     1.472094751196   109.25809645   357.14943729
 O     64  63  62     1.209628437744   128.35977557   176.83645298
 C     63  62  56     1.374351018809   122.32724704   177.97998315
 C     66  63  62     1.398180788811   117.84604327     0.65615112
 C     67  66  63     1.416430988400   119.32547214     0.33788880
 C     62  56  55     1.380763951622   130.64273025   189.71906678
 S     68  67  66     1.734294009244   111.24590536   179.37850466
 C     70  68  67     1.729412560669    90.81642413     0.23662578
 C     71  70  68     1.350969895890   113.66233836   359.86181729
 H      9   8   7     1.078945752761   120.76719138   180.21217437
 H     12   7   1     1.077217396907   122.69468325     0.59773800
 H     14  13  11     1.072651181885   118.51367269   179.99859536
 H     15  14  13     1.074920958443   124.11034810   180.00695864
 H     19  18   1     1.084028606910   117.21923958   352.90540708
 H     21  20  19     1.073463334726   122.98320523     0.58947960
 H     33  26  25     1.073996781094   124.68277636   180.40239080
 H     36  34  33     1.082946947962   115.91211020   175.15721655
 H     37  36  34     1.080706791919   120.34281097   357.33832767
 H     39  38  37     1.074984588448   122.70299477   358.15615853
 H     51  44  43     1.074669702932   124.65431484   183.17974170
 H     54  52  51     1.086097185937   116.08852339   156.62107682
 H     66  63  62     1.078890946157   120.87701613   180.64215514
 H     69  62  56     1.077529675740   122.53624619     2.59881989
 H     71  70  68     1.072696748061   118.52894653   179.89775356
 H     72  71  70     1.074913396465   124.08992037   180.02407772

---------------------------
INTERNAL COORDINATES (A.U.)
---------------------------
 C      0   0   0     0.000000000000     0.00000000     0.00000000
 C      1   0   0     2.591150097392     0.00000000     0.00000000
 C      2   1   0     2.665493765985   124.03516158     0.00000000
 N      3   2   1     2.169216248516   176.64794967   187.93698329
 C      2   1   3     2.665689430907   125.12067602   178.18741007
 N      5   2   1     2.170781825028   175.91958000   194.46113748
 C      1   2   3     2.751394076025   125.71565403   356.59917101
 C      7   1   2     2.678129492351   108.58922591   186.83376349
 C      8   7   1     2.596594909889   122.67343311   179.78736826
 C      9   8   7     2.641407397769   117.78628062     0.02967457
 C     10   9   8     2.676213667011   119.18703684     0.21528844
 C      7   1   2     2.612097016978   131.15330081     6.86214095
 S     11  10   9     3.279011481089   111.19993950   179.66134548
 C     13  11  10     3.268350887887    90.81639526     0.10901604
 C     14  13  11     2.552911805085   113.66290358   359.96221863
 C      8   7   1     2.782379615023   109.76982788   359.39611438
 O     16   8   7     2.291322885564   126.14712223   181.53179909
 C      1   2   3     2.745630360605   126.32560755   180.83122894
 C     18   1   2     2.581759755395   124.64765579   342.03695317
 C     19  18   1     2.666577252951   128.67875322   175.75002832
 C     20  19  18     2.622408613299   131.51449440   338.22911556
 C     21  20  19     2.624876669217   112.14839313   180.59505332
 C     22  21  20     2.669644692900   113.13207585   359.86861830
 S     23  22  21     3.212071473544   112.33119604     1.69946341
 C     23  22  21     2.672313325988   108.53063610   182.75857656
 C     25  23  22     2.661283229233   108.69005513   359.49465296
 C     22  21  20     2.745048643316   138.14341633   182.13690045
 C     27  22  21     2.575910419869   127.60094786   356.35982826
 C     28  27  22     2.668551331126   122.92170334   358.23371091
 N     29  28  27     2.165851059892   178.20982422   217.05569779
 C     28  27  22     2.667080023100   121.71620387   179.16769291
 N     31  28  27     2.166458496907   179.67220792   320.86867496
 C     26  25  23     2.629030642664   113.02906942   178.77838395
 C     33  26  25     2.622702750663   112.11373603   359.51351690
 S     25  23  22     3.225186649797   139.08043448   177.55720794
 C     34  33  26     2.677063227562   129.44337732   182.66663417
 C     36  34  33     2.562917983505   125.29175542   356.03189417
 C     37  36  34     2.675549322644   124.15872278   176.61944491
 C     38  37  36     2.621137244556   126.52216973   178.92555186
 C     39  38  37     2.631203499059   112.22931989   177.91692345
 C     40  39  38     2.660022978271   112.85315381   359.93358227
 S     41  40  39     3.223726003297   112.42148627     0.45520136
 C     41  40  39     2.675027758531   108.79642120   181.14849356
 C     43  41  40     2.664319241880   108.33818286     0.05331952
 C     44  43  41     2.744892073132   108.87009474   359.25571897
 C     45  44  43     2.576819956210   126.78576528   182.48417767
 C     46  45  44     2.665887541334   122.28063839   179.26545827
 N     47  46  45     2.166184170598   179.65851205    73.85794260
 C     46  45  44     2.666815832184   121.36091715   359.27407759
 N     49  46  45     2.166682881934   179.09373507   333.02895197
 C     44  43  41     2.623967225907   112.92461440   180.30791573
 C     51  44  43     2.621907620660   112.25845357     0.16562836
 S     43  41  40     3.214684326064   139.31823426   179.43119278
 C     52  51  44     2.668908359754   129.16450563   182.08107470
 C     54  52  51     2.571622761469   129.08450116   341.36757213
 C     55  54  52     2.736855276428   133.66288034   345.65228555
 C     56  55  54     2.591399252676   126.76254876   329.15214593
 C     57  56  55     2.666000007469   123.83601966   187.36868955
 N     58  57  56     2.168202247104   177.23225283   171.52265392
 C     57  56  55     2.660304113540   123.85860155     2.27527542
 N     60  57  56     2.170262929645   177.54791943   211.25147477
 C     56  55  54     2.756323598482   107.15456721   161.07179129
 C     62  56  55     2.682316499532   108.76437694    10.60378478
 C     63  62  56     2.781855922944   109.25809645   357.14943729
 O     64  63  62     2.285866471140   128.35977557   176.83645298
 C     63  62  56     2.597147037424   122.32724704   177.97998315
 C     66  63  62     2.642178776563   117.84604327     0.65615112
 C     67  66  63     2.676666655676   119.32547214     0.33788880
 C     62  56  55     2.609265724157   130.64273025   189.71906678
 S     68  67  66     3.277340713172   111.24590536   179.37850466
 C     70  68  67     3.268116112228    90.81642413     0.23662578
 C     71  70  68     2.552963118403   113.66233836   359.86181729
 H      9   8   7     2.038911986075   120.76719138   180.21217437
 H     12   7   1     2.035645866851   122.69468325     0.59773800
 H     14  13  11     2.027016970990   118.51367269   179.99859536
 H     15  14  13     2.031306227069   124.11034810   180.00695864
 H     19  18   1     2.048517188397   117.21923958   352.90540708
 H     21  20  19     2.028551717437   122.98320523     0.58947960
 H     33  26  25     2.029559784980   124.68277636   180.40239080
 H     36  34  33     2.046473149214   115.91211020   175.15721655
 H     37  36  34     2.042239867796   120.34281097   357.33832767
 H     39  38  37     2.031426470352   122.70299477   358.15615853
 H     51  44  43     2.030831422964   124.65431484   183.17974170
 H     54  52  51     2.052426236243   116.08852339   156.62107682
 H     66  63  62     2.038808416604   120.87701613   180.64215514
 H     69  62  56     2.036235988321   122.53624619     2.59881989
 H     71  70  68     2.027103078583   118.52894653   179.89775356
 H     72  71  70     2.031291937002   124.08992037   180.02407772

---------------------
BASIS SET INFORMATION
---------------------
There are 5 groups of distinct atoms

 Group   1 Type C   : 7s4p1d contracted to 3s2p1d pattern {511/31/1}
 Group   2 Type N   : 7s4p1d contracted to 3s2p1d pattern {511/31/1}
 Group   3 Type S   : 10s7p1d contracted to 4s3p1d pattern {5311/511/1}
 Group   4 Type O   : 7s4p1d contracted to 3s2p1d pattern {511/31/1}
 Group   5 Type H   : 4s1p contracted to 2s1p pattern {31/1}

Atom   0C    basis set group =>   1
Atom   1C    basis set group =>   1
Atom   2C    basis set group =>   1
Atom   3N    basis set group =>   2
Atom   4C    basis set group =>   1
Atom   5N    basis set group =>   2
Atom   6C    basis set group =>   1
Atom   7C    basis set group =>   1
Atom   8C    basis set group =>   1
Atom   9C    basis set group =>   1
Atom  10C    basis set group =>   1
Atom  11C    basis set group =>   1
Atom  12S    basis set group =>   3
Atom  13C    basis set group =>   1
Atom  14C    basis set group =>   1
Atom  15C    basis set group =>   1
Atom  16O    basis set group =>   4
Atom  17C    basis set group =>   1
Atom  18C    basis set group =>   1
Atom  19C    basis set group =>   1
Atom  20C    basis set group =>   1
Atom  21C    basis set group =>   1
Atom  22C    basis set group =>   1
Atom  23S    basis set group =>   3
Atom  24C    basis set group =>   1
Atom  25C    basis set group =>   1
Atom  26C    basis set group =>   1
Atom  27C    basis set group =>   1
Atom  28C    basis set group =>   1
Atom  29N    basis set group =>   2
Atom  30C    basis set group =>   1
Atom  31N    basis set group =>   2
Atom  32C    basis set group =>   1
Atom  33C    basis set group =>   1
Atom  34S    basis set group =>   3
Atom  35C    basis set group =>   1
Atom  36C    basis set group =>   1
Atom  37C    basis set group =>   1
Atom  38C    basis set group =>   1
Atom  39C    basis set group =>   1
Atom  40C    basis set group =>   1
Atom  41S    basis set group =>   3
Atom  42C    basis set group =>   1
Atom  43C    basis set group =>   1
Atom  44C    basis set group =>   1
Atom  45C    basis set group =>   1
Atom  46C    basis set group =>   1
Atom  47N    basis set group =>   2
Atom  48C    basis set group =>   1
Atom  49N    basis set group =>   2
Atom  50C    basis set group =>   1
Atom  51C    basis set group =>   1
Atom  52S    basis set group =>   3
Atom  53C    basis set group =>   1
Atom  54C    basis set group =>   1
Atom  55C    basis set group =>   1
Atom  56C    basis set group =>   1
Atom  57C    basis set group =>   1
Atom  58N    basis set group =>   2
Atom  59C    basis set group =>   1
Atom  60N    basis set group =>   2
Atom  61C    basis set group =>   1
Atom  62C    basis set group =>   1
Atom  63C    basis set group =>   1
Atom  64O    basis set group =>   4
Atom  65C    basis set group =>   1
Atom  66C    basis set group =>   1
Atom  67C    basis set group =>   1
Atom  68C    basis set group =>   1
Atom  69S    basis set group =>   3
Atom  70C    basis set group =>   1
Atom  71C    basis set group =>   1
Atom  72H    basis set group =>   5
Atom  73H    basis set group =>   5
Atom  74H    basis set group =>   5
Atom  75H    basis set group =>   5
Atom  76H    basis set group =>   5
Atom  77H    basis set group =>   5
Atom  78H    basis set group =>   5
Atom  79H    basis set group =>   5
Atom  80H    basis set group =>   5
Atom  81H    basis set group =>   5
Atom  82H    basis set group =>   5
Atom  83H    basis set group =>   5
Atom  84H    basis set group =>   5
Atom  85H    basis set group =>   5
Atom  86H    basis set group =>   5
Atom  87H    basis set group =>   5
---------------------------------
AUXILIARY/J BASIS SET INFORMATION
---------------------------------
There are 5 groups of distinct atoms

 Group   1 Type C   : 12s5p4d2f1g contracted to 6s4p3d1f1g pattern {711111/2111/211/2/1}
 Group   2 Type N   : 12s5p4d2f1g contracted to 6s4p3d1f1g pattern {711111/2111/211/2/1}
 Group   3 Type S   : 14s5p5d2f1g contracted to 8s4p3d1f1g pattern {71111111/2111/311/2/1}
 Group   4 Type O   : 12s5p4d2f1g contracted to 6s4p3d1f1g pattern {711111/2111/211/2/1}
 Group   5 Type H   : 5s2p1d contracted to 3s1p1d pattern {311/2/1}

Atom   0C    basis set group =>   1
Atom   1C    basis set group =>   1
Atom   2C    basis set group =>   1
Atom   3N    basis set group =>   2
Atom   4C    basis set group =>   1
Atom   5N    basis set group =>   2
Atom   6C    basis set group =>   1
Atom   7C    basis set group =>   1
Atom   8C    basis set group =>   1
Atom   9C    basis set group =>   1
Atom  10C    basis set group =>   1
Atom  11C    basis set group =>   1
Atom  12S    basis set group =>   3
Atom  13C    basis set group =>   1
Atom  14C    basis set group =>   1
Atom  15C    basis set group =>   1
Atom  16O    basis set group =>   4
Atom  17C    basis set group =>   1
Atom  18C    basis set group =>   1
Atom  19C    basis set group =>   1
Atom  20C    basis set group =>   1
Atom  21C    basis set group =>   1
Atom  22C    basis set group =>   1
Atom  23S    basis set group =>   3
Atom  24C    basis set group =>   1
Atom  25C    basis set group =>   1
Atom  26C    basis set group =>   1
Atom  27C    basis set group =>   1
Atom  28C    basis set group =>   1
Atom  29N    basis set group =>   2
Atom  30C    basis set group =>   1
Atom  31N    basis set group =>   2
Atom  32C    basis set group =>   1
Atom  33C    basis set group =>   1
Atom  34S    basis set group =>   3
Atom  35C    basis set group =>   1
Atom  36C    basis set group =>   1
Atom  37C    basis set group =>   1
Atom  38C    basis set group =>   1
Atom  39C    basis set group =>   1
Atom  40C    basis set group =>   1
Atom  41S    basis set group =>   3
Atom  42C    basis set group =>   1
Atom  43C    basis set group =>   1
Atom  44C    basis set group =>   1
Atom  45C    basis set group =>   1
Atom  46C    basis set group =>   1
Atom  47N    basis set group =>   2
Atom  48C    basis set group =>   1
Atom  49N    basis set group =>   2
Atom  50C    basis set group =>   1
Atom  51C    basis set group =>   1
Atom  52S    basis set group =>   3
Atom  53C    basis set group =>   1
Atom  54C    basis set group =>   1
Atom  55C    basis set group =>   1
Atom  56C    basis set group =>   1
Atom  57C    basis set group =>   1
Atom  58N    basis set group =>   2
Atom  59C    basis set group =>   1
Atom  60N    basis set group =>   2
Atom  61C    basis set group =>   1
Atom  62C    basis set group =>   1
Atom  63C    basis set group =>   1
Atom  64O    basis set group =>   4
Atom  65C    basis set group =>   1
Atom  66C    basis set group =>   1
Atom  67C    basis set group =>   1
Atom  68C    basis set group =>   1
Atom  69S    basis set group =>   3
Atom  70C    basis set group =>   1
Atom  71C    basis set group =>   1
Atom  72H    basis set group =>   5
Atom  73H    basis set group =>   5
Atom  74H    basis set group =>   5
Atom  75H    basis set group =>   5
Atom  76H    basis set group =>   5
Atom  77H    basis set group =>   5
Atom  78H    basis set group =>   5
Atom  79H    basis set group =>   5
Atom  80H    basis set group =>   5
Atom  81H    basis set group =>   5
Atom  82H    basis set group =>   5
Atom  83H    basis set group =>   5
Atom  84H    basis set group =>   5
Atom  85H    basis set group =>   5
Atom  86H    basis set group =>   5
Atom  87H    basis set group =>   5


           ************************************************************
           *        Program running with 6 parallel MPI-processes     *
           *              working on a common directory               *
           ************************************************************
------------------------------------------------------------------------------
                           ORCA GTO INTEGRAL CALCULATION
                           -- RI-GTO INTEGRALS CHOSEN --
------------------------------------------------------------------------------

                         BASIS SET STATISTICS AND STARTUP INFO

Gaussian basis set:
 # of primitive gaussian shells          ...  980
 # of primitive gaussian functions       ... 1912
 # of contracted shells                  ...  492
 # of contracted basis functions         ... 1112
 Highest angular momentum                ...    2
 Maximum contraction depth               ...    5
Auxiliary gaussian basis set:
 # of primitive gaussian shells          ... 1874
 # of primitive gaussian functions       ... 5338
 # of contracted shells                  ... 1172
 # of contracted aux-basis functions     ... 3716
 Highest angular momentum                ...    4
 Maximum contraction depth               ...    7
Ratio of auxiliary to basis functions    ...  3.34
Integral package used                  ... LIBINT
 One Electron integrals                  ... done
 Ordering auxiliary basis shells         ... done
 Integral threshhold             Thresh  ...  2.500e-11
 Primitive cut-off               TCut    ...  2.500e-12
 Pre-screening matrix                    ... done
 Shell pair data                         ... 
 Ordering of the shell pairs             ... done (   0.008 sec) 37176 of 121278 pairs
 Determination of significant pairs      ... done (   0.000 sec)
 Creation of shell pair data             ... done (   0.004 sec)
 Storage of shell pair data              ... done (   0.011 sec)
 Shell pair data done in (   0.023 sec)
 Computing two index integrals           ... done
 Cholesky decomposition of the V-matrix  ... done


Timings:
 Total evaluation time                   ...   2.165 sec (  0.036 min)
 One electron matrix time                ...   0.408 sec (  0.007 min) = 18.8%
 Schwartz matrix evaluation time         ...   0.581 sec (  0.010 min) = 26.8%
 Two index repulsion integral time       ...   0.239 sec (  0.004 min) = 11.0%
 Cholesky decomposition of V             ...   0.898 sec (  0.015 min) = 41.5%
 Three index repulsion integral time     ...   0.000 sec (  0.000 min) =  0.0%



           ************************************************************
           *        Program running with 6 parallel MPI-processes     *
           *              working on a common directory               *
           ************************************************************
-------------------------------------------------------------------------------
                                 ORCA SCF
-------------------------------------------------------------------------------

------------
SCF SETTINGS
------------
Hamiltonian:
 Density Functional     Method          .... DFT(GTOs)
 Exchange Functional    Exchange        .... WB88
 Correlation Functional Correlation     .... LYP
 LDA part of GGA corr.  LDAOpt          .... VWN-5
 Gradients option       PostSCFGGA      .... off
 Hybrid DFT is turned on
   Fraction HF Exchange ScalHFX         ....  0.190000
   Scaling of DF-GGA-X  ScalDFX         ....  0.350000
   Scaling of DF-GGA-C  ScalDFC         ....  0.810000
   Scaling of DF-LDA-C  ScalLDAC        ....  1.000000
   Perturbative correction              ....  0.000000
   Density functional embedding theory  .... OFF
 Long-range corrected/Screened/Range-Separated Hybrid DFT is turned on
   Amount of maximum screened exact exchange              ....  0.460000
   Range separation parameter mu (erf(mu*r12)/r12)        ....  0.330000
 RI-approximation to the Coulomb term is turned on
   Number of auxiliary basis functions  .... 3716
   RIJ-COSX (HFX calculated with COS-X)).... on


General Settings:
 Integral files         IntName         .... xtbopt
 Hartree-Fock type      HFTyp           .... RHF
 Total Charge           Charge          ....    0
 Multiplicity           Mult            ....    1
 Number of Electrons    NEL             ....  520
 Basis Dimension        Dim             .... 1112
 Nuclear Repulsion      ENuc            ....   9815.9537003361 Eh

Convergence Acceleration:
 DIIS                   CNVDIIS         .... on
   Start iteration      DIISMaxIt       ....    12
   Startup error        DIISStart       ....  0.200000
   # of expansion vecs  DIISMaxEq       ....     5
   Bias factor          DIISBfac        ....   1.050
   Max. coefficient     DIISMaxC        ....  10.000
 Newton-Raphson         CNVNR           .... off
 SOSCF                  CNVSOSCF        .... on
   Start iteration      SOSCFMaxIt      ....   150
   Startup grad/error   SOSCFStart      ....  0.003300
 Level Shifting         CNVShift        .... on
   Level shift para.    LevelShift      ....    0.2500
   Turn off err/grad.   ShiftErr        ....    0.0010
 Zerner damping         CNVZerner       .... off
 Static damping         CNVDamp         .... on
   Fraction old density DampFac         ....    0.7000
   Max. Damping (<1)    DampMax         ....    0.9800
   Min. Damping (>=0)   DampMin         ....    0.0000
   Turn off err/grad.   DampErr         ....    0.1000
 Fernandez-Rico         CNVRico         .... off

SCF Procedure:
 Maximum # iterations   MaxIter         ....   125
 SCF integral mode      SCFMode         .... Direct
   Integral package                     .... LIBINT
 Reset frequency        DirectResetFreq ....    20
 Integral Threshold     Thresh          ....  2.500e-11 Eh
 Primitive CutOff       TCut            ....  2.500e-12 Eh

Convergence Tolerance:
 Convergence Check Mode ConvCheckMode   .... Total+1el-Energy
 Convergence forced     ConvForced      .... 1
 Energy Change          TolE            ....  1.000e-08 Eh
 1-El. energy change                    ....  1.000e-05 Eh
 Orbital Gradient       TolG            ....  1.000e-05
 Orbital Rotation angle TolX            ....  1.000e-05
 DIIS Error             TolErr          ....  5.000e-07


Diagonalization of the overlap matrix:
Smallest eigenvalue                        ... 1.972e-04
Time for diagonalization                   ...    0.313 sec
Threshold for overlap eigenvalues          ... 1.000e-08
Number of eigenvalues below threshold      ... 0
Time for construction of square roots      ...    0.205 sec
Total time needed                          ...    0.520 sec

-------------------
DFT GRID GENERATION
-------------------

General Integration Accuracy     IntAcc      ...  4.670
Radial Grid Type                 RadialGrid  ... Gauss-Chebyshev
Angular Grid (max. acc.)         AngularGrid ... Lebedev-302
Angular grid pruning method      GridPruning ... 3 (G Style)
Weight generation scheme         WeightScheme... Becke
Basis function cutoff            BFCut       ...    1.0000e-11
Integration weight cutoff        WCut        ...    1.0000e-14
Grids for H and He will be reduced by one unit

# of grid points (after initial pruning)     ... 505372 (   0.0 sec)
# of grid points (after weights+screening)   ... 438610 (   4.2 sec)
nearest neighbour list constructed           ...    0.0 sec
Grid point re-assignment to atoms done       ...    0.0 sec
Grid point division into batches done        ...    1.8 sec
Reduced shell lists constructed in    2.5 sec

Total number of grid points                  ...   438610
Total number of batches                      ...     6898
Average number of points per batch           ...       63
Average number of grid points per atom       ...     4984
Average number of shells per batch           ...    76.25 (15.50%)
Average number of basis functions per batch  ...   165.29 (14.86%)
Average number of large shells per batch     ...    50.18 (65.81%)
Average number of large basis fcns per batch ...   109.81 (66.44%)
Maximum spatial batch extension              ...  18.09, 19.75, 22.14 au
Average spatial batch extension              ...   0.36,  0.36,  0.40 au

Time for grid setup =    6.958 sec

------------------------------
INITIAL GUESS: MODEL POTENTIAL
------------------------------
Loading Hartree-Fock densities                     ... done
Calculating cut-offs                               ... done
Setting up the integral package                    ... done
Initializing the effective Hamiltonian             ... done
Starting the Coulomb interaction                   ... done (   1.0 sec)
Reading the grid                                   ... done
Mapping shells                                     ... done
Starting the XC term evaluation                    ... done (   1.6 sec)
  promolecular density results
     # of electrons  =    519.991638629
     EX              =   -509.137250664
     EC              =    -18.120154292
     EX+EC           =   -527.257404956
Transforming the Hamiltonian                       ... done (   0.2 sec)
Diagonalizing the Hamiltonian                      ... done (   0.3 sec)
Back transforming the eigenvectors                 ... done (   0.1 sec)
Now organizing SCF variables                       ... done
                      ------------------
                      INITIAL GUESS DONE (  10.2 sec)
                      ------------------
--------------------
COSX GRID GENERATION
--------------------

General Integration Accuracy     IntAcc      ...  3.340
Radial Grid Type                 RadialGrid  ... Gauss-Chebyshev
Angular Grid (max. acc.)         AngularGrid ... Lebedev-50
Angular grid pruning method      GridPruning ... 3 (G Style)
Weight generation scheme         WeightScheme... Becke
Basis function cutoff            BFCut       ...    1.0000e-11
Integration weight cutoff        WCut        ...    1.0000e-14
Grids for H and He will be reduced by one unit

# of grid points (after initial pruning)     ...  47524 (   0.0 sec)
# of grid points (after weights+screening)   ...  43059 (   0.4 sec)
nearest neighbour list constructed           ...    0.0 sec
Grid point re-assignment to atoms done       ...    0.0 sec
Grid point division into batches done        ...    0.0 sec
Reduced shell lists constructed in    0.1 sec

Total number of grid points                  ...    43059
Total number of batches                      ...      716
Average number of points per batch           ...       60
Average number of grid points per atom       ...      489
Average number of shells per batch           ...    92.40 (18.78%)
Average number of basis functions per batch  ...   202.49 (18.21%)
Average number of large shells per batch     ...    60.40 (65.37%)
Average number of large basis fcns per batch ...   133.78 (66.07%)
Maximum spatial batch extension              ...  16.92, 16.57, 29.97 au
Average spatial batch extension              ...   0.78,  0.75,  1.05 au

Overlap Fitting                  UseSFitting ... on
Constructing numerical overlap ... done (      0.1 sec)
Inverting numerical overlap    ... done (      0.1 sec)
Obtaining analytic overlap     ... done (      0.0 sec)
Final contraction and storage  ... done (      0.3 sec)


General Integration Accuracy     IntAcc      ...  3.670
Radial Grid Type                 RadialGrid  ... Gauss-Chebyshev
Angular Grid (max. acc.)         AngularGrid ... Lebedev-50
Angular grid pruning method      GridPruning ... 3 (G Style)
Weight generation scheme         WeightScheme... Becke
Basis function cutoff            BFCut       ...    1.0000e-11
Integration weight cutoff        WCut        ...    1.0000e-14
Grids for H and He will be reduced by one unit

# of grid points (after initial pruning)     ...  58840 (   0.0 sec)
# of grid points (after weights+screening)   ...  53140 (   0.5 sec)
nearest neighbour list constructed           ...    0.0 sec
Grid point re-assignment to atoms done       ...    0.0 sec
Grid point division into batches done        ...    0.0 sec
Reduced shell lists constructed in    0.1 sec

Total number of grid points                  ...    53140
Total number of batches                      ...      879
Average number of points per batch           ...       60
Average number of grid points per atom       ...      604
Average number of shells per batch           ...    90.32 (18.36%)
Average number of basis functions per batch  ...   197.37 (17.75%)
Average number of large shells per batch     ...    59.05 (65.38%)
Average number of large basis fcns per batch ...   130.97 (66.36%)
Maximum spatial batch extension              ...  19.27, 17.04, 21.24 au
Average spatial batch extension              ...   0.68,  0.67,  0.91 au

Overlap Fitting                  UseSFitting ... on
Constructing numerical overlap ... done (      0.1 sec)
Inverting numerical overlap    ... done (      0.1 sec)
Obtaining analytic overlap     ... done (      0.0 sec)
Final contraction and storage  ... done (      0.3 sec)


General Integration Accuracy     IntAcc      ...  4.010
Radial Grid Type                 RadialGrid  ... Gauss-Chebyshev
Angular Grid (max. acc.)         AngularGrid ... Lebedev-110
Angular grid pruning method      GridPruning ... 3 (G Style)
Weight generation scheme         WeightScheme... Becke
Basis function cutoff            BFCut       ...    1.0000e-11
Integration weight cutoff        WCut        ...    1.0000e-14
Grids for H and He will be reduced by one unit

# of grid points (after initial pruning)     ... 117276 (   0.0 sec)
# of grid points (after weights+screening)   ... 104660 (   1.0 sec)
nearest neighbour list constructed           ...    0.0 sec
Grid point re-assignment to atoms done       ...    0.0 sec
Grid point division into batches done        ...    0.1 sec
Reduced shell lists constructed in    0.3 sec

Total number of grid points                  ...   104660
Total number of batches                      ...     1680
Average number of points per batch           ...       62
Average number of grid points per atom       ...     1189
Average number of shells per batch           ...    85.80 (17.44%)
Average number of basis functions per batch  ...   187.42 (16.85%)
Average number of large shells per batch     ...    56.59 (65.95%)
Average number of large basis fcns per batch ...   124.77 (66.57%)
Maximum spatial batch extension              ...  18.68, 18.64, 35.69 au
Average spatial batch extension              ...   0.60,  0.59,  0.76 au

Overlap Fitting                  UseSFitting ... on
Constructing numerical overlap ... done (      0.3 sec)
Inverting numerical overlap    ... done (      0.1 sec)
Obtaining analytic overlap     ... done (      0.0 sec)
Final contraction and storage  ... done (      0.3 sec)

Time for X-Grid setup             =    4.221 sec
--------------
SCF ITERATIONS
--------------
ITER       Energy         Delta-E        Max-DP      RMS-DP      [F,P]     Damp
               ***  Starting incremental Fock matrix formation  ***
  0  -5115.2531592438   0.000000000000 0.07901553  0.00112175  0.2264535 0.7000
  1  -5115.9541785735  -0.701019329743 0.04737204  0.00078589  0.0967092 0.7000
                               ***Turning on DIIS***
  2  -5116.2361228849  -0.281944311342 0.10806680  0.00139354  0.0323583 0.0000
  3  -5116.6926408258  -0.456517940967 0.05528306  0.00061340  0.0573787 0.0000
  4  -5116.7913831377  -0.098742311882 0.01456619  0.00021634  0.0171073 0.0000
  5  -5116.7997884267  -0.008405289009 0.00689444  0.00008674  0.0064348 0.0000
  6  -5116.8013247654  -0.001536338646 0.00254697  0.00004405  0.0014493 0.0000
                      *** Initiating the SOSCF procedure ***
                           *** Shutting down DIIS ***
                      *** Re-Reading the Fockian *** 
                      *** Removing any level shift *** 
ITER      Energy       Delta-E        Grad      Rot      Max-DP    RMS-DP
  7  -5116.80192018  -0.0005954157  0.003005  0.003005  0.002800  0.000053
               *** Restarting incremental Fock matrix formation ***
  8  -5116.80226558  -0.0003454037  0.000644  0.003967  0.001453  0.000022
  9  -5116.80230044  -0.0000348537  0.000521  0.004194  0.001149  0.000015
 10  -5116.80233366  -0.0000332244  0.000226  0.000802  0.000777  0.000007
 11  -5116.80233427  -0.0000006084  0.000194  0.000394  0.000343  0.000004
 12  -5116.80233810  -0.0000038289  0.000040  0.000180  0.000197  0.000002
 13  -5116.80233799   0.0000001080  0.000033  0.000113  0.000110  0.000001
 14  -5116.80233833  -0.0000003328  0.000010  0.000032  0.000050  0.000000
 15  -5116.80233830   0.0000000261  0.000014  0.000018  0.000023  0.000000
 16  -5116.80233833  -0.0000000272  0.000003  0.000013  0.000011  0.000000
 17  -5116.80233830   0.0000000260  0.000003  0.000007  0.000006  0.000000
                  ***Gradient check signals convergence***
              ***Rediagonalizing the Fockian in SOSCF/NRSCF***

               *****************************************************
               *                     SUCCESS                       *
               *           SCF CONVERGED AFTER  18 CYCLES          *
               *****************************************************

Setting up the final grid:

General Integration Accuracy     IntAcc      ...  5.010
Radial Grid Type                 RadialGrid  ... Gauss-Chebyshev
Angular Grid (max. acc.)         AngularGrid ... Lebedev-434
Angular grid pruning method      GridPruning ... 3 (G Style)
Weight generation scheme         WeightScheme... Becke
Basis function cutoff            BFCut       ...    1.0000e-11
Integration weight cutoff        WCut        ...    1.0000e-14
Grids for H and He will be reduced by one unit

# of grid points (after initial pruning)     ... 883004 (   0.0 sec)
# of grid points (after weights+screening)   ... 763757 (   7.4 sec)
nearest neighbour list constructed           ...    0.0 sec
Grid point re-assignment to atoms done       ...    0.1 sec
Grid point division into batches done        ...    5.7 sec
Reduced shell lists constructed in    6.8 sec

Total number of grid points                  ...   763757
Total number of batches                      ...    11977
Average number of points per batch           ...       63
Average number of grid points per atom       ...     8679
Average number of shells per batch           ...    73.92 (15.02%)
Average number of basis functions per batch  ...   159.92 (14.38%)
Average number of large shells per batch     ...    48.64 (65.80%)
Average number of large basis fcns per batch ...   106.18 (66.40%)
Maximum spatial batch extension              ...  17.46, 17.01, 20.75 au
Average spatial batch extension              ...   0.29,  0.29,  0.33 au

Final grid set up in   17.3 sec
Final integration                            ... done (   2.5 sec)
Change in XC energy                          ...    -0.000030761
Integrated number of electrons               ...   520.000037228
Previous integrated no of electrons          ...   519.999744333
Old exchange energy                            =   -138.717007552 Eh
New exchange energy                            =   -138.715755656 Eh
Exchange energy change after final integration =      0.001251896 Eh
Total energy after final integration           =  -5116.801117197 Eh
Final COS-X integration done in                =    50.143 sec

----------------
TOTAL SCF ENERGY
----------------

Total Energy       :        -5116.80111720 Eh         -139235.23698 eV

Components:
Nuclear Repulsion  :         9815.95370034 Eh          267105.67958 eV
Electronic Energy  :       -14932.75481753 Eh         -406340.91656 eV
One Electron Energy:       -26544.64474775 Eh         -722316.50545 eV
Two Electron Energy:        11611.88993022 Eh          315975.58889 eV

Virial components:
Potential Energy   :       -10203.39757949 Eh         -277648.56352 eV
Kinetic Energy     :         5086.59646229 Eh          138413.32654 eV
Virial Ratio       :            2.00593809


DFT components:
N(Alpha)           :      260.000018613795 electrons
N(Beta)            :      260.000018613795 electrons
N(Total)           :      520.000037227590 electrons
E(XC)              :     -396.030897871934 Eh       
DFET-embed. en.    :        0.000000000000 Eh       

---------------
SCF CONVERGENCE
---------------

  Last Energy change         ...   -3.1845e-08  Tolerance :   1.0000e-08
  Last MAX-Density change    ...    6.2172e-15  Tolerance :   1.0000e-07
  Last RMS-Density change    ...    3.9173e-17  Tolerance :   5.0000e-09
  Last Orbital Gradient      ...    7.5160e-07  Tolerance :   1.0000e-05
  Last Orbital Rotation      ...    7.1688e-06  Tolerance :   1.0000e-05

             **** THE GBW FILE WAS UPDATED (xtbopt.gbw) ****
             **** DENSITY FILE WAS UPDATED (xtbopt.scfp) ****
             **** ENERGY FILE WAS UPDATED (xtbopt.en.tmp) ****
             **** THE GBW FILE WAS UPDATED (xtbopt.gbw) ****
             **** DENSITY FILE WAS UPDATED (xtbopt.scfp) ****
----------------
ORBITAL ENERGIES
----------------

  NO   OCC          E(Eh)            E(eV) 
   0   2.0000     -88.999180     -2421.7908 
   1   2.0000     -88.999146     -2421.7899 
   2   2.0000     -88.997774     -2421.7526 
   3   2.0000     -88.997724     -2421.7512 
   4   2.0000     -88.967164     -2420.9196 
   5   2.0000     -88.966964     -2420.9142 
   6   2.0000     -19.218246      -522.9550 
   7   2.0000     -19.216897      -522.9183 
   8   2.0000     -14.436410      -392.8347 
   9   2.0000     -14.436172      -392.8282 
  10   2.0000     -14.435383      -392.8068 
  11   2.0000     -14.432628      -392.7318 
  12   2.0000     -14.419199      -392.3664 
  13   2.0000     -14.416412      -392.2905 
  14   2.0000     -14.414737      -392.2449 
  15   2.0000     -14.414686      -392.2435 
  16   2.0000     -10.371738      -282.2293 
  17   2.0000     -10.371391      -282.2199 
  18   2.0000     -10.370033      -282.1829 
  19   2.0000     -10.368018      -282.1281 
  20   2.0000     -10.358570      -281.8710 
  21   2.0000     -10.358029      -281.8563 
  22   2.0000     -10.348261      -281.5905 
  23   2.0000     -10.346199      -281.5344 
  24   2.0000     -10.345325      -281.5106 
  25   2.0000     -10.344557      -281.4897 
  26   2.0000     -10.342174      -281.4249 
  27   2.0000     -10.341902      -281.4175 
  28   2.0000     -10.341520      -281.4071 
  29   2.0000     -10.339486      -281.3517 
  30   2.0000     -10.337068      -281.2859 
  31   2.0000     -10.336439      -281.2688 
  32   2.0000     -10.336280      -281.2645 
  33   2.0000     -10.335246      -281.2363 
  34   2.0000     -10.334436      -281.2143 
  35   2.0000     -10.331930      -281.1461 
  36   2.0000     -10.331002      -281.1208 
  37   2.0000     -10.329112      -281.0694 
  38   2.0000     -10.328272      -281.0466 
  39   2.0000     -10.326493      -280.9982 
  40   2.0000     -10.321717      -280.8682 
  41   2.0000     -10.320947      -280.8473 
  42   2.0000     -10.320536      -280.8361 
  43   2.0000     -10.319509      -280.8081 
  44   2.0000     -10.317623      -280.7568 
  45   2.0000     -10.317039      -280.7409 
  46   2.0000     -10.316850      -280.7358 
  47   2.0000     -10.315358      -280.6952 
  48   2.0000     -10.314676      -280.6766 
  49   2.0000     -10.314578      -280.6739 
  50   2.0000     -10.314387      -280.6687 
  51   2.0000     -10.312533      -280.6183 
  52   2.0000     -10.311891      -280.6008 
  53   2.0000     -10.311388      -280.5871 
  54   2.0000     -10.310566      -280.5648 
  55   2.0000     -10.310478      -280.5624 
  56   2.0000     -10.310073      -280.5514 
  57   2.0000     -10.309875      -280.5460 
  58   2.0000     -10.308283      -280.5027 
  59   2.0000     -10.306686      -280.4592 
  60   2.0000     -10.304275      -280.3936 
  61   2.0000     -10.303830      -280.3815 
  62   2.0000     -10.302660      -280.3496 
  63   2.0000     -10.302414      -280.3429 
  64   2.0000     -10.302141      -280.3355 
  65   2.0000     -10.302052      -280.3331 
  66   2.0000     -10.300725      -280.2970 
  67   2.0000     -10.299109      -280.2530 
  68   2.0000     -10.292562      -280.0748 
  69   2.0000     -10.290784      -280.0265 
  70   2.0000     -10.289779      -279.9991 
  71   2.0000     -10.289279      -279.9855 
  72   2.0000      -8.094003      -220.2490 
  73   2.0000      -8.093997      -220.2488 
  74   2.0000      -8.092660      -220.2125 
  75   2.0000      -8.092540      -220.2092 
  76   2.0000      -8.063529      -219.4198 
  77   2.0000      -8.063273      -219.4128 
  78   2.0000      -6.063162      -164.9870 
  79   2.0000      -6.063155      -164.9868 
  80   2.0000      -6.061791      -164.9497 
  81   2.0000      -6.061727      -164.9480 
  82   2.0000      -6.059065      -164.8756 
  83   2.0000      -6.058989      -164.8735 
  84   2.0000      -6.057660      -164.8373 
  85   2.0000      -6.057659      -164.8373 
  86   2.0000      -6.056468      -164.8049 
  87   2.0000      -6.056411      -164.8033 
  88   2.0000      -6.055116      -164.7681 
  89   2.0000      -6.054876      -164.7616 
  90   2.0000      -6.033036      -164.1673 
  91   2.0000      -6.032772      -164.1601 
  92   2.0000      -6.028721      -164.0498 
  93   2.0000      -6.028481      -164.0433 
  94   2.0000      -6.025181      -163.9535 
  95   2.0000      -6.024938      -163.9469 
  96   2.0000      -1.133929       -30.8558 
  97   2.0000      -1.132236       -30.8097 
  98   2.0000      -1.053911       -28.6784 
  99   2.0000      -1.053280       -28.6612 
 100   2.0000      -1.028005       -27.9734 
 101   2.0000      -1.026996       -27.9460 
 102   2.0000      -1.022562       -27.8253 
 103   2.0000      -1.020847       -27.7787 
 104   2.0000      -1.013579       -27.5809 
 105   2.0000      -1.011699       -27.5297 
 106   2.0000      -1.010273       -27.4909 
 107   2.0000      -1.008765       -27.4499 
 108   2.0000      -1.008044       -27.4303 
 109   2.0000      -1.005705       -27.3666 
 110   2.0000      -0.994876       -27.0720 
 111   2.0000      -0.994251       -27.0550 
 112   2.0000      -0.986672       -26.8487 
 113   2.0000      -0.985788       -26.8247 
 114   2.0000      -0.970265       -26.4022 
 115   2.0000      -0.966334       -26.2953 
 116   2.0000      -0.937460       -25.5096 
 117   2.0000      -0.934399       -25.4263 
 118   2.0000      -0.930510       -25.3205 
 119   2.0000      -0.922496       -25.1024 
 120   2.0000      -0.909711       -24.7545 
 121   2.0000      -0.900720       -24.5098 
 122   2.0000      -0.894026       -24.3277 
 123   2.0000      -0.882595       -24.0166 
 124   2.0000      -0.881851       -23.9964 
 125   2.0000      -0.880691       -23.9648 
 126   2.0000      -0.878993       -23.9186 
 127   2.0000      -0.869884       -23.6707 
 128   2.0000      -0.864843       -23.5336 
 129   2.0000      -0.863910       -23.5082 
 130   2.0000      -0.858296       -23.3554 
 131   2.0000      -0.824915       -22.4471 
 132   2.0000      -0.823867       -22.4186 
 133   2.0000      -0.823436       -22.4068 
 134   2.0000      -0.806182       -21.9373 
 135   2.0000      -0.796655       -21.6781 
 136   2.0000      -0.784151       -21.3378 
 137   2.0000      -0.781328       -21.2610 
 138   2.0000      -0.768176       -20.9031 
 139   2.0000      -0.759001       -20.6535 
 140   2.0000      -0.757076       -20.6011 
 141   2.0000      -0.743895       -20.2424 
 142   2.0000      -0.725208       -19.7339 
 143   2.0000      -0.719108       -19.5679 
 144   2.0000      -0.707205       -19.2440 
 145   2.0000      -0.702823       -19.1248 
 146   2.0000      -0.696364       -18.9490 
 147   2.0000      -0.692706       -18.8495 
 148   2.0000      -0.691998       -18.8302 
 149   2.0000      -0.688589       -18.7375 
 150   2.0000      -0.684749       -18.6330 
 151   2.0000      -0.682727       -18.5780 
 152   2.0000      -0.667772       -18.1710 
 153   2.0000      -0.663711       -18.0605 
 154   2.0000      -0.661834       -18.0094 
 155   2.0000      -0.658131       -17.9087 
 156   2.0000      -0.647376       -17.6160 
 157   2.0000      -0.645557       -17.5665 
 158   2.0000      -0.637846       -17.3567 
 159   2.0000      -0.629862       -17.1394 
 160   2.0000      -0.625561       -17.0224 
 161   2.0000      -0.624227       -16.9861 
 162   2.0000      -0.621341       -16.9076 
 163   2.0000      -0.619172       -16.8485 
 164   2.0000      -0.606726       -16.5099 
 165   2.0000      -0.604725       -16.4554 
 166   2.0000      -0.597181       -16.2501 
 167   2.0000      -0.595489       -16.2041 
 168   2.0000      -0.589207       -16.0331 
 169   2.0000      -0.583191       -15.8694 
 170   2.0000      -0.569378       -15.4936 
 171   2.0000      -0.566395       -15.4124 
 172   2.0000      -0.556052       -15.1309 
 173   2.0000      -0.555262       -15.1094 
 174   2.0000      -0.553795       -15.0695 
 175   2.0000      -0.549776       -14.9602 
 176   2.0000      -0.548047       -14.9131 
 177   2.0000      -0.541580       -14.7371 
 178   2.0000      -0.540505       -14.7079 
 179   2.0000      -0.538587       -14.6557 
 180   2.0000      -0.537051       -14.6139 
 181   2.0000      -0.534184       -14.5359 
 182   2.0000      -0.530829       -14.4446 
 183   2.0000      -0.523432       -14.2433 
 184   2.0000      -0.522078       -14.2065 
 185   2.0000      -0.517551       -14.0833 
 186   2.0000      -0.516129       -14.0446 
 187   2.0000      -0.513285       -13.9672 
 188   2.0000      -0.512187       -13.9373 
 189   2.0000      -0.510407       -13.8889 
 190   2.0000      -0.508467       -13.8361 
 191   2.0000      -0.507412       -13.8074 
 192   2.0000      -0.503936       -13.7128 
 193   2.0000      -0.502644       -13.6776 
 194   2.0000      -0.499585       -13.5944 
 195   2.0000      -0.498630       -13.5684 
 196   2.0000      -0.496086       -13.4992 
 197   2.0000      -0.494004       -13.4425 
 198   2.0000      -0.492148       -13.3920 
 199   2.0000      -0.490305       -13.3419 
 200   2.0000      -0.489318       -13.3150 
 201   2.0000      -0.487366       -13.2619 
 202   2.0000      -0.486710       -13.2440 
 203   2.0000      -0.477479       -12.9929 
 204   2.0000      -0.474486       -12.9114 
 205   2.0000      -0.472604       -12.8602 
 206   2.0000      -0.469129       -12.7656 
 207   2.0000      -0.466210       -12.6862 
 208   2.0000      -0.465813       -12.6754 
 209   2.0000      -0.463207       -12.6045 
 210   2.0000      -0.461223       -12.5505 
 211   2.0000      -0.457388       -12.4462 
 212   2.0000      -0.455667       -12.3993 
 213   2.0000      -0.454759       -12.3746 
 214   2.0000      -0.453120       -12.3300 
 215   2.0000      -0.451300       -12.2805 
 216   2.0000      -0.450467       -12.2578 
 217   2.0000      -0.449038       -12.2189 
 218   2.0000      -0.448377       -12.2010 
 219   2.0000      -0.445975       -12.1356 
 220   2.0000      -0.445638       -12.1264 
 221   2.0000      -0.444127       -12.0853 
 222   2.0000      -0.443890       -12.0789 
 223   2.0000      -0.443550       -12.0696 
 224   2.0000      -0.442536       -12.0420 
 225   2.0000      -0.441887       -12.0244 
 226   2.0000      -0.435578       -11.8527 
 227   2.0000      -0.435349       -11.8464 
 228   2.0000      -0.434499       -11.8233 
 229   2.0000      -0.433187       -11.7876 
 230   2.0000      -0.431980       -11.7548 
 231   2.0000      -0.431021       -11.7287 
 232   2.0000      -0.429555       -11.6888 
 233   2.0000      -0.427774       -11.6403 
 234   2.0000      -0.426728       -11.6119 
 235   2.0000      -0.423122       -11.5137 
 236   2.0000      -0.422462       -11.4958 
 237   2.0000      -0.412781       -11.2323 
 238   2.0000      -0.410654       -11.1745 
 239   2.0000      -0.407038       -11.0761 
 240   2.0000      -0.405669       -11.0388 
 241   2.0000      -0.404642       -11.0109 
 242   2.0000      -0.387144       -10.5347 
 243   2.0000      -0.380494       -10.3538 
 244   2.0000      -0.374894       -10.2014 
 245   2.0000      -0.366391        -9.9700 
 246   2.0000      -0.358685        -9.7603 
 247   2.0000      -0.356165        -9.6917 
 248   2.0000      -0.349187        -9.5019 
 249   2.0000      -0.341561        -9.2943 
 250   2.0000      -0.337259        -9.1773 
 251   2.0000      -0.329793        -8.9741 
 252   2.0000      -0.328267        -8.9326 
 253   2.0000      -0.317212        -8.6318 
 254   2.0000      -0.314791        -8.5659 
 255   2.0000      -0.313620        -8.5340 
 256   2.0000      -0.296885        -8.0787 
 257   2.0000      -0.295367        -8.0373 
 258   2.0000      -0.282688        -7.6923 
 259   2.0000      -0.251385        -6.8405 
 260   0.0000      -0.121281        -3.3002 
 261   0.0000      -0.111213        -3.0263 
 262   0.0000      -0.090694        -2.4679 
 263   0.0000      -0.088741        -2.4148 
 264   0.0000      -0.064568        -1.7570 
 265   0.0000      -0.058853        -1.6015 
 266   0.0000      -0.047906        -1.3036 
 267   0.0000      -0.012608        -0.3431 
 268   0.0000      -0.008442        -0.2297 
 269   0.0000       0.015316         0.4168 
 270   0.0000       0.022206         0.6043 
 271   0.0000       0.026466         0.7202 
 272   0.0000       0.027211         0.7404 
 273   0.0000       0.029603         0.8055 
 274   0.0000       0.032146         0.8747 
 275   0.0000       0.035816         0.9746 
 276   0.0000       0.040064         1.0902 
 277   0.0000       0.042874         1.1667 
 278   0.0000       0.050010         1.3609 
 279   0.0000       0.051908         1.4125 
 280   0.0000       0.052660         1.4329 
 281   0.0000       0.059428         1.6171 
 282   0.0000       0.066532         1.8104 
 283   0.0000       0.066942         1.8216 
 284   0.0000       0.072017         1.9597 
 285   0.0000       0.076752         2.0885 
 286   0.0000       0.083825         2.2810 
 287   0.0000       0.085779         2.3342 
 288   0.0000       0.086876         2.3640 
 289   0.0000       0.087400         2.3783 
 290   0.0000       0.089100         2.4245 
 291   0.0000       0.090731         2.4689 
 292   0.0000       0.093041         2.5318 
 293   0.0000       0.095788         2.6065 
 294   0.0000       0.103083         2.8050 
 295   0.0000       0.105666         2.8753 
 296   0.0000       0.106875         2.9082 
 297   0.0000       0.107757         2.9322 
 298   0.0000       0.110663         3.0113 
 299   0.0000       0.111564         3.0358 
 300   0.0000       0.115672         3.1476 
 301   0.0000       0.117987         3.2106 
 302   0.0000       0.122153         3.3239 
 303   0.0000       0.125968         3.4278 
 304   0.0000       0.126876         3.4525 
 305   0.0000       0.132592         3.6080 
 306   0.0000       0.134492         3.6597 
 307   0.0000       0.135683         3.6921 
 308   0.0000       0.136033         3.7016 
 309   0.0000       0.138771         3.7761 
 310   0.0000       0.140183         3.8146 
 311   0.0000       0.143291         3.8991 
 312   0.0000       0.146998         4.0000 
 313   0.0000       0.153133         4.1670 
 314   0.0000       0.155336         4.2269 
 315   0.0000       0.158314         4.3079 
 316   0.0000       0.158779         4.3206 
 317   0.0000       0.164993         4.4897 
 318   0.0000       0.166174         4.5218 
 319   0.0000       0.172582         4.6962 
 320   0.0000       0.175900         4.7865 
 321   0.0000       0.179583         4.8867 
 322   0.0000       0.180671         4.9163 
 323   0.0000       0.190536         5.1847 
 324   0.0000       0.192356         5.2343 
 325   0.0000       0.201828         5.4920 
 326   0.0000       0.203749         5.5443 
 327   0.0000       0.205307         5.5867 
 328   0.0000       0.207770         5.6537 
 329   0.0000       0.209996         5.7143 
 330   0.0000       0.218902         5.9566 
 331   0.0000       0.219910         5.9840 
 332   0.0000       0.221919         6.0387 
 333   0.0000       0.225475         6.1355 
 334   0.0000       0.228257         6.2112 
 335   0.0000       0.228971         6.2306 
 336   0.0000       0.230632         6.2758 
 337   0.0000       0.233060         6.3419 
 338   0.0000       0.235046         6.3959 
 339   0.0000       0.240174         6.5355 
 340   0.0000       0.244981         6.6663 
 341   0.0000       0.246155         6.6982 
 342   0.0000       0.252175         6.8620 
 343   0.0000       0.257623         7.0103 
 344   0.0000       0.261589         7.1182 
 345   0.0000       0.265486         7.2243 
 346   0.0000       0.267468         7.2782 
 347   0.0000       0.268160         7.2970 
 348   0.0000       0.274222         7.4620 
 349   0.0000       0.279723         7.6117 
 350   0.0000       0.282175         7.6784 
 351   0.0000       0.288698         7.8559 
 352   0.0000       0.292497         7.9592 
 353   0.0000       0.295516         8.0414 
 354   0.0000       0.299835         8.1589 
 355   0.0000       0.306504         8.3404 
 356   0.0000       0.308856         8.4044 
 357   0.0000       0.313302         8.5254 
 358   0.0000       0.314484         8.5576 
 359   0.0000       0.317812         8.6481 
 360   0.0000       0.324840         8.8394 
 361   0.0000       0.328918         8.9503 
 362   0.0000       0.332026         9.0349 
 363   0.0000       0.333823         9.0838 
 364   0.0000       0.335240         9.1223 
 365   0.0000       0.336332         9.1521 
 366   0.0000       0.339319         9.2334 
 367   0.0000       0.343186         9.3386 
 368   0.0000       0.344893         9.3850 
 369   0.0000       0.346353         9.4248 
 370   0.0000       0.347014         9.4427 
 371   0.0000       0.348974         9.4961 
[...]
  21   3.891     318.7   0.101138   0.096879  50.211920  54.306082     0.11 (  85->  94)    0.10 (  93-> 100)    0.08 (  89->  95)
  22   3.938     314.9   0.269747   0.237013  164.240991  155.769107     0.22 (  86->  94)    0.16 (  93-> 100)    0.11 (  87->  94)
  23   3.975     311.9   0.057085   0.046948  -62.021596  -57.413256     0.12 (  90->  99)    0.09 (  88->  95)    0.09 (  88->  97)
  24   4.019     308.5   0.173818   0.153376  118.322713  110.609202     0.16 (  81->  94)    0.09 (  87->  95)    0.08 (  81->  95)
  25   4.041     306.8   0.350711   0.303900  54.144704  61.537565     0.09 (  80->  94)    0.07 (  83->  95)    0.06 (  80->  95)
  26   4.075     304.3   0.039212   0.035595  -39.876319  -42.140041     0.19 (  91->  95)    0.13 (  81->  94)    0.08 (  87->  95)
  27   4.144     299.2   0.010909   0.009449  -22.607090  -20.943421     0.21 (  83->  98)    0.10 (  83->  99)    0.06 (  84->  99)
  28   4.165     297.7   0.069192   0.061484  -76.164737  -69.409223     0.16 (  91->  94)    0.16 (  91->  95)    0.13 (  90->  95)
  29   4.171     297.3   0.096674   0.086093  -176.748390  -156.004949     0.34 (  90->  95)    0.11 (  91->  95)    0.11 (  90->  94)
  30   4.177     296.8   0.166804   0.153340  307.726660  292.260843     0.09 (  80->  94)    0.09 (  84->  99)    0.08 (  80->  95)
  31   4.196     295.5   0.026695   0.024346  85.662964  85.699985     0.17 (  80->  94)    0.14 (  80->  95)    0.08 (  84->  98)
  32   4.259     291.1   0.396342   0.352022  98.474197  93.664463     0.16 (  91->  98)    0.10 (  89->  96)    0.10 (  91->  99)
  33   4.308     287.8   0.361110   0.308092  -32.079315  -48.542318     0.18 (  90->  99)    0.10 (  90->  98)    0.09 (  91->  99)
  34   4.347     285.2   0.038923   0.033868  -90.923230  -87.689454     0.22 (  86->  95)    0.12 (  85->  96)    0.12 (  85->  95)
  35   4.361     284.3   0.161605   0.142840  -31.500191  -31.602505     0.14 (  86->  95)    0.14 (  85->  95)    0.11 (  86->  94)
  36   4.386     282.7   0.129022   0.115947  -65.996578  -53.040118     0.14 (  85->  96)    0.12 (  85->  97)    0.11 (  86->  95)
  37   4.462     277.8   0.002699   0.002510  -13.414368  -13.121636     0.29 (  85->  95)    0.09 (  85->  94)    0.09 (  92->  98)
  38   4.470     277.4   0.030430   0.023683  23.416960  20.891804     0.17 (  84->  94)    0.10 (  84->  95)    0.10 (  84->  96)
  39   4.526     274.0   0.052719   0.045641  21.177695  22.157067     0.19 (  86->  96)    0.13 (  86->  97)    0.08 (  92->  98)
  40   4.571     271.2   0.012363   0.010434  -6.604057  -6.220855     0.20 (  89->  95)    0.17 (  82->  94)    0.07 (  88->  94)
  41   4.609     269.0   0.033596   0.030380  -4.093378  -5.929322     0.22 (  88->  95)    0.13 (  92->  99)    0.09 (  89->  94)
  42   4.636     267.5   0.085162   0.077496  142.794379  134.467186     0.24 (  88->  95)    0.17 (  92->  99)    0.12 (  89->  94)
  43   4.653     266.5   0.036149   0.030731  -126.465361  -114.633913     0.24 (  88->  94)    0.20 (  87->  95)    0.14 (  89->  95)
  44   4.698     263.9   0.030020   0.024396  -103.384213  -92.306903     0.16 (  82->  95)    0.06 (  83->  96)    0.06 (  87->  96)
  45   4.735     261.9   0.025352   0.020242  51.861303  47.350229     0.15 (  79->  94)    0.09 (  82->  95)    0.05 (  89->  98)
  46   4.767     260.1   0.002198   0.001974  -23.136987  -22.986846     0.30 (  92-> 100)    0.09 (  87->  99)    0.05 (  93->  99)
  47   4.827     256.9   0.131715   0.107286  -230.543893  -211.886993     0.15 (  89->  99)    0.14 (  92-> 100)    0.08 (  88->  98)
  48   4.837     256.3   0.131186   0.110576  250.883951  231.220179     0.12 (  91->  97)    0.07 (  88->  99)    0.06 (  90->  96)
  49   4.876     254.3   0.119585   0.095742  181.230176  162.477077     0.13 (  88->  99)    0.11 (  89->  98)    0.05 (  90->  96)
  50   4.950     250.5   0.040075   0.029739  46.209004  29.997933     0.09 (  79->  94)    0.07 (  88->  99)    0.07 (  93-> 101)
  51   4.964     249.8   0.014045   0.012515  28.983773  28.264680     0.29 (  91->  96)    0.16 (  90->  97)    0.15 (  91->  97)
  52   4.967     249.6   0.030504   0.023993  65.639101  59.924498     0.21 (  90->  96)    0.18 (  90->  97)    0.06 (  80->  94)

-----------------------------------------------------------------------------
         ABSORPTION SPECTRUM VIA TRANSITION ELECTRIC DIPOLE MOMENTS
-----------------------------------------------------------------------------
State   Energy  Wavelength   fosc         T2         TX        TY        TZ  
        (cm-1)    (nm)                  (au**2)     (au)      (au)      (au) 
-----------------------------------------------------------------------------
   0   12152.8    822.9   0.747391133  20.24635  -4.48208   0.27564   0.28512
   1   13423.8    744.9   0.024386447   0.59806   0.63952  -0.34479  -0.26495
   2   19327.2    517.4   1.882466214  32.06526   5.60171  -0.48444  -0.67185
   3   21286.7    469.8   0.201952561   3.12332   1.50516  -0.84698  -0.37475
   4   21643.3    462.0   0.004987487   0.07586   0.11168  -0.24768  -0.04521
   5   23525.1    425.1   0.049561571   0.69357  -0.67268   0.26574   0.41286
   6   25279.3    395.6   0.009667326   0.12590  -0.11616   0.25521  -0.21743
   7   25803.9    387.5   0.032025460   0.40859   0.23125  -0.39484   0.44633
   8   26771.1    373.5   0.489491865   6.01943  -2.40714  -0.47420  -0.01493
   9   27366.1    365.4   0.078511053   0.94448  -0.77966  -0.01875  -0.57988
  10   27900.8    358.4   0.034097019   0.40232  -0.10475   0.62496   0.02788
  11   28005.6    357.1   0.013029555   0.15317  -0.19262   0.11573  -0.32042
  12   28595.7    349.7   0.009360905   0.10777  -0.30320   0.11925   0.04022
  13   28800.7    347.2   0.019249954   0.22004   0.38012   0.00539   0.27481
  14   29125.4    343.3   0.047219415   0.53373   0.15674   0.04509   0.71213
  15   29434.3    339.7   0.034502506   0.38590  -0.02644  -0.62058   0.00922
  16   30111.5    332.1   0.153427451   1.67743   0.39282  -1.21295  -0.22779
  17   30282.9    330.2   0.040777002   0.44330  -0.51997   0.32322  -0.26165
  18   30413.3    328.8   0.223201192   2.41606   1.19049  -0.12751   0.99123
  19   30693.9    325.8   0.403085483   4.32335   1.35906   1.50502  -0.45960
  20   30951.2    323.1   0.471859114   5.01893   1.47157  -1.31770  -1.05692
  21   31379.9    318.7   0.101137956   1.06105  -0.74796  -0.64820  -0.28540
  22   31758.8    314.9   0.269747156   2.79620   0.13930  -1.59631  -0.47810
  23   32057.1    311.9   0.057085070   0.58624   0.47594  -0.59181  -0.09736
  24   32414.7    308.5   0.173818281   1.76534   0.90359  -0.97311  -0.04381
  25   32592.2    306.8   0.350710801   3.54251  -1.78885  -0.41951   0.40809
  26   32864.8    304.3   0.039212200   0.39280   0.13765   0.44175   0.42274
  27   33425.2    299.2   0.010908656   0.10744   0.19489   0.11404  -0.23761
  28   33592.9    297.7   0.069192177   0.67809  -0.11376  -0.76327   0.28735
  29   33638.7    297.3   0.096674198   0.94612   0.81526  -0.37322   0.37707
  30   33687.3    296.8   0.166803983   1.63010   1.14087   0.35132   0.45286
  31   33844.2    295.5   0.026694639   0.25967   0.18436  -0.31478  -0.35579
  32   34350.1    291.1   0.396341549   3.79855   0.58735   1.66148  -0.83250
  33   34747.6    287.8   0.361110247   3.42129   1.51632  -0.20604   1.03905
  34   35059.4    285.2   0.038922826   0.36549   0.06770   0.44749   0.40082
  35   35172.5    284.3   0.161604728   1.51261   0.03435  -1.22688  -0.07877
  36   35377.2    282.7   0.129021720   1.20065  -0.17000  -1.00928  -0.39127
  37   35990.9    277.8   0.002699179   0.02469   0.02989  -0.13984   0.06513
  38   36051.5    277.4   0.030430078   0.27788  -0.50203   0.09689  -0.12829
  39   36500.6    274.0   0.052718790   0.47549  -0.10810   0.54234   0.41191
  40   36871.3    271.2   0.012362893   0.11038  -0.19952   0.25812   0.06286
  41   37172.9    269.0   0.033596303   0.29754   0.45286  -0.30298  -0.02566
  42   37389.9    267.5   0.085162193   0.74984  -0.75305  -0.42718   0.01669
  43   37529.7    266.5   0.036149309   0.31710  -0.37019   0.04065  -0.42238
  44   37894.9    263.9   0.030019771   0.26080  -0.42996  -0.10254   0.25576
  45   38187.8    261.9   0.025351602   0.21855   0.07209  -0.45756  -0.06323
  46   38449.5    260.1   0.002198117   0.01882  -0.05335   0.10082   0.07621
  47   38928.6    256.9   0.131714736   1.11389  -0.58374   0.85798  -0.19236
  48   39014.2    256.3   0.131186329   1.10698  -0.19306  -0.87790  -0.54681
  49   39329.1    254.3   0.119584827   1.00101  -0.67691   0.62696   0.38693
  50   39922.5    250.5   0.040074902   0.33047   0.23936  -0.16959  -0.49438
  51   40035.8    249.8   0.014044904   0.11549  -0.22414  -0.23120  -0.10861
  52   40061.5    249.6   0.030503521   0.25067   0.34402   0.31251   0.18616

-----------------------------------------------------------------------------
         ABSORPTION SPECTRUM VIA TRANSITION VELOCITY DIPOLE MOMENTS
-----------------------------------------------------------------------------
State   Energy  Wavelength   fosc         P2         PX        PY        PZ  
        (cm-1)    (nm)                  (au**2)     (au)      (au)      (au) 
-----------------------------------------------------------------------------
   0   12152.8    822.9   1.051913856   0.08737  -0.29453   0.01722   0.01798
   1   13423.8    744.9   0.030662322   0.00281   0.04403  -0.02307  -0.01850
   2   19327.2    517.4   2.042155371   0.26975   0.51373  -0.04561  -0.06122
   3   21286.7    469.8   0.213108069   0.03100   0.15007  -0.08474  -0.03608
   4   21643.3    462.0   0.007290314   0.00108   0.01325  -0.02949  -0.00577
   5   23525.1    425.1   0.051679290   0.00831  -0.07297   0.03119   0.04484
   6   25279.3    395.6   0.009564778   0.00165  -0.01209   0.02956  -0.02515
   7   25803.9    387.5   0.032677170   0.00576   0.02977  -0.04649   0.05211
   8   26771.1    373.5   0.469559997   0.08591  -0.28645  -0.06195  -0.00474
   9   27366.1    365.4   0.073768543   0.01380  -0.09326  -0.00774  -0.07099
  10   27900.8    358.4   0.032510180   0.00620  -0.01168   0.07784   0.00175
  11   28005.6    357.1   0.012178259   0.00233  -0.02239   0.01794  -0.03883
  12   28595.7    349.7   0.007261364   0.00142  -0.03539   0.01192   0.00497
  13   28800.7    347.2   0.018062171   0.00356   0.04701   0.00063   0.03668
  14   29125.4    343.3   0.045494706   0.00906   0.02076   0.00844   0.09249
  15   29434.3    339.7   0.032701441   0.00658  -0.00415  -0.08099   0.00115
  16   30111.5    332.1   0.141630994   0.02915   0.05298  -0.15954  -0.02981
  17   30282.9    330.2   0.043790661   0.00906  -0.07790   0.04285  -0.03403
  18   30413.3    328.8   0.209902033   0.04363   0.15944  -0.01608   0.13398
  19   30693.9    325.8   0.376483381   0.07898   0.18435   0.20327  -0.06062
  20   30951.2    323.1   0.436689546   0.09238   0.20083  -0.17766  -0.14311
  21   31379.9    318.7   0.096879233   0.02078  -0.11090  -0.08443  -0.03672
  22   31758.8    314.9   0.237012567   0.05144   0.02723  -0.21601  -0.06358
  23   32057.1    311.9   0.046947907   0.01029   0.06116  -0.07984  -0.01308
  24   32414.7    308.5   0.153375963   0.03398   0.12741  -0.13310  -0.00547
  25   32592.2    306.8   0.303900089   0.06769  -0.24672  -0.05808   0.05874
  26   32864.8    304.3   0.035595181   0.00800   0.01882   0.06245   0.06117
  27   33425.2    299.2   0.009449127   0.00216   0.02873   0.01701  -0.03231
  28   33592.9    297.7   0.061483679   0.01412  -0.01554  -0.10993   0.04230
  29   33638.7    297.3   0.086092581   0.01979   0.11838  -0.05175   0.05568
  30   33687.3    296.8   0.153340040   0.03530   0.16756   0.05171   0.06749
  31   33844.2    295.5   0.024346151   0.00563   0.02725  -0.04764  -0.05118
  32   34350.1    291.1   0.352021737   0.08264   0.08586   0.24533  -0.12282
  33   34747.6    287.8   0.308092128   0.07317   0.22100  -0.03173   0.15270
  34   35059.4    285.2   0.033868304   0.00812   0.00876   0.06661   0.06001
  35   35172.5    284.3   0.142839764   0.03434   0.00250  -0.18489  -0.01204
  36   35377.2    282.7   0.115947110   0.02803  -0.02295  -0.15533  -0.05813
  37   35990.9    277.8   0.002510082   0.00062   0.00357  -0.02237   0.01020
  38   36051.5    277.4   0.023682624   0.00584  -0.07257   0.01413  -0.01923
  39   36500.6    274.0   0.045640578   0.01139  -0.01259   0.08450   0.06392
  40   36871.3    271.2   0.010434419   0.00263  -0.02948   0.04088   0.00948
  41   37172.9    269.0   0.030379921   0.00772   0.07528  -0.04513  -0.00380
  42   37389.9    267.5   0.077496082   0.01980  -0.12308  -0.06815   0.00300
  43   37529.7    266.5   0.030731473   0.00788  -0.05873   0.00607  -0.06631
  44   37894.9    263.9   0.024396031   0.00632  -0.06628  -0.01546   0.04106
  45   38187.8    261.9   0.020241522   0.00528   0.00716  -0.07163  -0.01000
  46   38449.5    260.1   0.001973799   0.00052  -0.01154   0.01528   0.01234
  47   38928.6    256.9   0.107286329   0.02854  -0.09057   0.13911  -0.03145
  48   39014.2    256.3   0.110575779   0.02948  -0.03055  -0.14353  -0.08917
  49   39329.1    254.3   0.095742303   0.02574  -0.10869   0.10061   0.06163
  50   39922.5    250.5   0.029739109   0.00811   0.03787  -0.02457  -0.07795
  51   40035.8    249.8   0.012514789   0.00342  -0.03760  -0.04070  -0.01881
  52   40061.5    249.6   0.023992739   0.00657   0.05499   0.05135   0.03014

-------------------------------------------------------------------
                             CD SPECTRUM
-------------------------------------------------------------------
State   Energy Wavelength       R         MX        MY        MZ   
        (cm-1)   (nm)       (1e40*cgs)   (au)      (au)      (au)  
-------------------------------------------------------------------
   0   12152.8    822.9     32.41251  -0.07725   0.16909  -1.86015
   1   13423.8    744.9    -10.41357   0.02025   0.07889  -0.22052
   2   19327.2    517.4    374.32662   0.31575  -0.04212   5.02661
   3   21286.7    469.8    -228.11876   0.17064  -1.03800   0.44899
   4   21643.3    462.0    -42.75482  -0.02212  -0.70525  -0.20285
   5   23525.1    425.1     23.28961  -0.32122  -1.35772   0.11124
   6   25279.3    395.6     14.04319   0.29029   0.96151   1.24748
   7   25803.9    387.5    -99.74457  -0.41686  -0.96233   0.31271
   8   26771.1    373.5    260.12369   0.01778   2.32215  -2.70997
   9   27366.1    365.4    -58.48119   0.60473   1.30198  -1.28299
  10   27900.8    358.4     36.34312   0.06478  -0.30354   1.51743
  11   28005.6    357.1    -118.55811   0.34767   0.89410  -1.45575
  12   28595.7    349.7    -11.00858   0.05161   0.45455   0.20253
  13   28800.7    347.2     22.21570  -0.45629  -1.70353   0.32163
  14   29125.4    343.3    -164.68188  -0.66399  -2.41259   1.27992
  15   29434.3    339.7    -73.77471  -0.12422  -0.53492  -2.41536
  16   30111.5    332.1    -120.03166  -0.01115   0.47312  -4.77396
  17   30282.9    330.2    131.43255   0.10621  -1.62736  -0.09037
  18   30413.3    328.8    -138.02232  -1.27250  -4.21017   1.57739
  19   30693.9    325.8    159.50803   0.58906  -0.24317   2.41789
  20   30951.2    323.1    -325.29265   0.70750   1.61146  -2.32964
  21   31379.9    318.7     50.21192   0.24616   1.86483  -4.13417
  22   31758.8    314.9    164.24099   0.09118   1.01137  -1.89291
  23   32057.1    311.9    -62.02160  -0.06944  -0.07102  -2.61023
  24   32414.7    308.5    118.32271  -0.10523   0.43928  -0.47017
  25   32592.2    306.8     54.14470  -0.56034   0.14842  -2.86652
  26   32864.8    304.3    -39.87632  -0.42764  -1.23761   1.83268
  27   33425.2    299.2    -22.60709   0.45285  -0.34559  -0.19806
  28   33592.9    297.7    -76.16474  -0.38381  -0.83841  -1.25453
  29   33638.7    297.3    -176.74839  -0.67080  -3.16499   0.30618
  30   33687.3    296.8    307.72666  -0.74750  -3.74621   1.90667
  31   33844.2    295.5     85.66296   0.40778   1.73401  -0.30144
  32   34350.1    291.1     98.47420   0.54748  -0.58856  -0.28654
  33   34747.6    287.8    -32.07932  -1.74999  -6.46246   1.40331
  34   35059.4    285.2    -90.92323  -0.49040  -2.55443   3.89701
  35   35172.5    284.3    -31.50019  -0.28163   0.10314  -3.42575
  36   35377.2    282.7    -65.99658   0.12363   1.04071  -3.45376
  37   35990.9    277.8    -13.41437  -0.09111  -0.23857   0.40336
  38   36051.5    277.4     23.41696   0.33995   1.48008   0.56194
  39   36500.6    274.0     21.17770  -0.32728  -0.94190   0.93617
  40   36871.3    271.2     -6.60406  -0.04055   0.11961  -0.17416
  41   37172.9    269.0     -4.09338   0.21306   0.24298   0.21439
  42   37389.9    267.5    142.79438   0.02383   1.32232  -1.37606
  43   37529.7    266.5    -126.46536   0.56243   2.27062  -1.54460
  44   37894.9    263.9    -103.38421  -0.49233  -1.44769   0.30675
  45   38187.8    261.9     51.86130   0.16048   0.71052  -1.47918
  46   38449.5    260.1    -23.13699  -0.03127  -1.06164   2.67044
  47   38928.6    256.9    -230.54389   0.11454   0.88526  -1.48346
  48   39014.2    256.3    250.88395   0.78456   4.21806  -5.10265
  49   39329.1    254.3    181.23018  -0.95842  -2.51827   0.41676
  50   39922.5    250.5     46.20900   0.98353   3.51176  -0.33198
  51   40035.8    249.8     28.98377   0.12686   1.12388  -1.52210
  52   40061.5    249.6     65.63910  -0.27891  -1.99632   2.37091

sTD-DFT done

Total run time:        3.002 sec

           *** ORCA-CIS/TD-DFT FINISHED WITHOUT ERROR ***

-------------------------   --------------------
FINAL SINGLE POINT ENERGY     -5116.801117196853
-------------------------   --------------------


                            ***************************************
                            *     ORCA property calculations      *
                            ***************************************

                                    ---------------------
                                    Active property flags
                                    ---------------------
   (+) Dipole Moment


------------------------------------------------------------------------------
                       ORCA ELECTRIC PROPERTIES CALCULATION
------------------------------------------------------------------------------

Dipole Moment Calculation                       ... on
Quadrupole Moment Calculation                   ... off
Polarizability Calculation                      ... off
GBWName                                         ... xtbopt.gbw
Electron density file                           ... xtbopt.scfp
The origin for moment calculation is the CENTER OF MASS  = (-20.484860, 10.912531  1.733595)

-------------
DIPOLE MOMENT
-------------
                                X             Y             Z
Electronic contribution:      3.51111      -8.94129       7.53868
Nuclear contribution   :     -4.91935       8.87178     -11.07614
                        -----------------------------------------
Total Dipole Moment    :     -1.40824      -0.06950      -3.53746
                        -----------------------------------------
Magnitude (a.u.)       :      3.80809
Magnitude (Debye)      :      9.67941



--------------------
Rotational spectrum 
--------------------
 
Rotational constants in cm-1:     0.003044     0.000162     0.000159 
Rotational constants in MHz :    91.268163     4.852951     4.756184 

 Dipole components along the rotational axes: 
x,y,z [a.u.] :     1.067950    -1.076508    -3.493164 
x,y,z [Debye]:     2.714513    -2.736266    -8.878918 

 

Timings for individual modules:

Sum of individual times         ...      571.383 sec (=   9.523 min)
GTO integral calculation        ...        6.555 sec (=   0.109 min)   1.1 %
SCF iterations                  ...      560.305 sec (=   9.338 min)  98.1 %
CIS module                      ...        4.523 sec (=   0.075 min)   0.8 %
                             ****ORCA TERMINATED NORMALLY****
TOTAL RUN TIME: 0 days 0 hours 9 minutes 33 seconds 901 msec
