
                                 *****************
                                 * O   R   C   A *
                                 *****************

           --- An Ab Initio, DFT and Semiempirical electronic structure package ---

                  #######################################################
                  #                        -***-                        #
                  #          Department of theory and spectroscopy      #
                  #               Directorship: Frank Neese             #
                  #        Max Planck Institute fuer Kohlenforschung    #
                  #                Kaiser Wilhelm Platz 1               #
                  #                 D-45470 Muelheim/Ruhr               #
                  #                      Germany                        #
                  #                                                     #
                  #                  All rights reserved                #
                  #                        -***-                        #
                  #######################################################


                         Program Version 4.2.0 -  RELEASE  -


 With contributions from (in alphabetic order):
   Daniel Aravena         : Magnetic Suceptibility
   Michael Atanasov       : Ab Initio Ligand Field Theory (pilot matlab implementation)
   Alexander A. Auer      : GIAO ZORA, VPT2
   Ute Becker             : Parallelization
   Giovanni Bistoni       : ED, misc. LED, open-shell LED, HFLED
   Martin Brehm           : Molecular dynamics
   Dmytro Bykov           : SCF Hessian
   Vijay G. Chilkuri      : MRCI spin determinant printing, contributions to CSF-ICE
   Dipayan Datta          : RHF DLPNO-CCSD density
   Achintya Kumar Dutta   : EOM-CC, STEOM-CC
   Dmitry Ganyushin       : Spin-Orbit,Spin-Spin,Magnetic field MRCI
   Miquel Garcia          : C-PCM Hessian, Gaussian charge scheme
   Yang Guo               : DLPNO-NEVPT2, CIM, IAO-localization
   Andreas Hansen         : Spin unrestricted coupled pair/coupled cluster methods
   Benjamin Helmich-Paris : CASSCF linear response (MC-RPA)
   Lee Huntington         : MR-EOM, pCC
   Robert Izsak           : Overlap fitted RIJCOSX, COSX-SCS-MP3, EOM
   Christian Kollmar      : KDIIS, OOCD, Brueckner-CCSD(T), CCSD density
   Simone Kossmann        : Meta GGA functionals, TD-DFT gradient, OOMP2, MP2 Hessian
   Martin Krupicka        : AUTO-CI
   Lucas Lang             : DCDCAS
   Dagmar Lenk            : GEPOL surface, SMD
   Dimitrios Liakos       : Extrapolation schemes; Compound Job, initial MDCI parallelization
   Dimitrios Manganas     : Further ROCIS development; embedding schemes
   Dimitrios Pantazis     : SARC Basis sets
   Taras Petrenko         : DFT Hessian,TD-DFT gradient, ASA, ECA, R-Raman, ABS, FL, XAS/XES, NRVS
   Peter Pinski           : DLPNO-MP2, DLPNO-MP2 Gradient
   Christoph Reimann      : Effective Core Potentials
   Marius Retegan         : Local ZFS, SOC
   Christoph Riplinger    : Optimizer, TS searches, QM/MM, DLPNO-CCSD(T), (RO)-DLPNO pert. Triples
   Tobias Risthaus        : Range-separated hybrids, TD-DFT gradient, RPA, STAB
   Michael Roemelt        : Original ROCIS implementation
   Masaaki Saitow         : Open-shell DLPNO-CCSD energy and density
   Barbara Sandhoefer     : DKH picture change effects
   Avijit Sen             : IP-ROCIS
   Kantharuban Sivalingam : CASSCF convergence, NEVPT2, FIC-MRCI
   Bernardo de Souza      : ESD, SOC TD-DFT
   Georgi Stoychev        : AutoAux, RI-MP2 NMR
   Willem Van den Heuvel  : Paramagnetic NMR
   Boris Wezisla          : Elementary symmetry handling
   Frank Wennmohs         : Technical directorship


 We gratefully acknowledge several colleagues who have allowed us to
 interface, adapt or use parts of their codes:
   Stefan Grimme, W. Hujo, H. Kruse,             : VdW corrections, initial TS optimization,
                  C. Bannwarth                     DFT functionals, gCP, sTDA/sTD-DF
   Ed Valeev, F. Pavosevic, A. Kumar             : LibInt (2-el integral package), F12 methods
   Garnet Chan, S. Sharma, J. Yang, R. Olivares  : DMRG
   Ulf Ekstrom                                   : XCFun DFT Library
   Mihaly Kallay                                 : mrcc  (arbitrary order and MRCC methods)
   Andreas Klamt, Michael Diedenhofen            : otool_cosmo (COSMO solvation model)
   Jiri Pittner, Ondrej Demel                    : Mk-CCSD
   Frank Weinhold                                : gennbo (NPA and NBO analysis)
   Christopher J. Cramer and Donald G. Truhlar   : smd solvation model
   Lars Goerigk                                  : TD-DFT with DH, B97 family of functionals
   V. Asgeirsson, H. Jonsson                     : NEB implementation
   FAccTs GmbH                                   : IRC, NEB, NEB-TS, Multilevel, MM, QM/MM, CI optimization
   S Lehtola, MJT Oliveira, MAL Marques          : LibXC Library


 Your calculation uses the libint2 library for the computation of 2-el integrals
 For citations please refer to: http://libint.valeyev.net

 Your ORCA version has been built with support for libXC version: 4.2.3
 For citations please refer to: https://tddft.org/programs/libxc/

 This ORCA versions uses:
   CBLAS   interface :  Fast vector & matrix operations
   LAPACKE interface :  Fast linear algebra routines
   SCALAPACK package :  Parallel linear algebra routines


XCFun DFT library Copyright 2009-2010 Ulf Ekstrom and contributors.
See http://admol.org/xcfun for more information. This is free soft-
ware; see the source code for copying conditions. There is ABSOLUTELY
NO WARRANTY; not even for MERCHANTABILITY or FITNESS FOR A PARTICULAR
PURPOSE. For details see the documentation. Scientific users of this 
library should cite U. Ekstrom, L. Visscher, R. Bast, A. J. Thorvald-
sen and K. Ruud; J.Chem.Theor.Comp. 2010, DOI: 10.1021/ct100117s
XCFun Version 0.99 
----- Orbital basis set information -----
Your calculation utilizes the basis: def2-SVP
   F. Weigend and R. Ahlrichs, Phys. Chem. Chem. Phys. 7, 3297 (2005).

----- AuxJ basis set information -----
Your calculation utilizes the auxiliary basis: def2/J
   F. Weigend, Phys. Chem. Chem. Phys. 8, 1057 (2006).

================================================================================
                                        WARNINGS
                       Please study these warnings very carefully!
================================================================================

INFO   : Checking CIS options ...

WARNING: CIS/ROCIS methods need fully converged wavefunctions
  ===> : Setting SCFConvForced true
         You can overwrite this default with %scf ConvForced false 


INFO   : the flag for use of LIBINT has been found!

================================================================================
                                       INPUT FILE
================================================================================
NAME = xtbopt.inp
|  1> # ORCA input file
|  2> # SCF done       -163.819289181072          0.000874210612
|  3> ! CAM-B3LYP def2-SVP def2/J RIJCOSX Grid4 TightSCF
|  4> %maxcore 5000
|  5> %tddft
|  6>     Mode sTDDFT
|  7>     Ethresh 5.0
|  8>     maxcore 5000
|  9> end
| 10> 
| 11> %pal
| 12>   nprocs 6
| 13>   end
| 14> * xyz 0 1
| 15>    C        4.50978         0.43908        -7.30656
| 16>    C        4.20168         0.96367        -8.52147
| 17>    S        3.23807         2.38865        -8.36154
| 18>    C        3.24826         2.27623        -6.61653
| 19>   Cl        2.44476         3.41801        -5.65672
| 20>    C        3.96383         1.18983        -6.21179
| 21>    C        4.35001         0.55350        -4.95316
| 22>    O        4.09178         0.89484        -3.80733
| 23>    C        5.15495        -0.61552        -5.34421
| 24>    C        5.25660        -0.69131        -6.78321
| 25>    C        5.90574        -1.62859        -7.54619
| 26>    C        5.89456        -1.56490        -8.95384
| 27>    N        5.89089        -1.52504       -10.10082
| 28>    C        6.63230        -2.71804        -7.03249
| 29>    N        7.24075        -3.61325        -6.64747
| 30>    C        5.70745        -1.45874        -4.41278
| 31>    N        5.51686        -1.26493        -3.10117
| 32>    C        5.98159        -2.05528        -2.08966
| 33>    S        6.30706        -1.32936        -0.54608
| 34>    C        6.90853        -2.85268         0.02043
| 35>    N        7.35975        -2.93104         1.34543
| 36>    O        7.79065        -4.00094         1.73224
| 37>    O        7.28650        -1.91391         2.01166
| 38>    C        6.85147        -3.84825        -0.91732
| 39>    C        6.30068        -3.41742        -2.14148
| 40>    C        5.99735        -4.27137        -3.25753
| 41>    C        6.62304        -5.43161        -3.54676
| 42>    C        6.28774        -6.24477        -4.66067
| 43>    S        4.95883        -5.81109        -5.69515
| 44>    C        5.29138        -7.13897        -6.72679
| 45>    C        6.36213        -7.87979        -6.34038
| 46>    C        6.77235        -9.10564        -7.08669
| 47>    C        6.95664        -7.37828        -5.13558
| 48>    C        8.06796        -7.94861        -4.44022
| 49>    C        9.04985        -8.72152        -4.97434
| 50>    C       10.10078        -9.28094        -4.21705
| 51>    C       11.10408       -10.01400        -4.78967
| 52>    C       12.16274       -10.60603        -4.09285
| 53>    C       13.16931       -11.31723        -4.70745
| 54>    C       14.27391       -11.95719        -4.09930
| 55>    C       15.11513       -12.57548        -4.97744
| 56>    C       14.71777       -12.45220        -6.32614
| 57>    S       13.23778       -11.53550        -6.44811
| 58>    C       15.34326       -12.93677        -7.46236
| 59>    C       16.53371       -13.68584        -7.56799
| 60>    C       16.87700       -13.98779        -8.85118
| 61>    C       15.97525       -13.49302        -9.82976
| 62>    S       14.66647       -12.63277        -9.04566
| 63>    C       16.12105       -13.65353       -11.18515
| 64>    C       15.27545       -13.19027       -12.21069
| 65>    S       15.73670       -13.46231       -13.88794
| 66>    C       14.34941       -12.68559       -14.53970
| 67>    C       13.54370       -12.22705       -13.52551
| 68>    C       14.06685       -12.51248       -12.22420
| 69>    O       13.23065       -12.05092       -11.26985
| 70>    C       12.19493       -11.47776       -11.93482
| 71>    N       11.15617       -10.90658       -11.16589
| 72>    O       10.23553       -10.40461       -11.78647
| 73>    O       11.24502       -10.94754        -9.95679
| 74>    C       12.31672       -11.54622       -13.29742
| 75>    H        4.47139         0.61867        -9.49986
| 76>    H        6.33351        -2.28905        -4.70707
| 77>    H        5.00438        -0.39930        -2.87342
| 78>    H        7.16228        -4.85518        -0.70785
| 79>    H        5.19028        -3.94751        -3.90179
| 80>    H        7.46022        -5.74987        -2.94279
| 81>    H        4.65934        -7.30568        -7.57735
| 82>    H        5.95876        -9.43377        -7.72984
| 83>    H        7.02425        -9.90945        -6.39801
| 84>    H        7.63575        -8.90457        -7.71995
| 85>    H        8.13538        -7.71823        -3.38408
| 86>    H        9.07782        -8.90799        -6.03594
| 87>    H       10.10281        -9.12415        -3.14557
| 88>    H       11.08947       -10.15256        -5.86436
| 89>    H       12.20288       -10.50532        -3.01595
| 90>    H       14.41411       -11.94132        -3.03259
| 91>    H       16.00408       -13.10930        -4.69250
| 92>    H       17.10235       -13.97979        -6.70393
| 93>    H       17.75053       -14.54918        -9.13216
| 94>    H       16.99770       -14.19336       -11.51759
| 95>    H       14.21651       -12.61767       -15.59869
| 96>    H       11.62088       -11.16196       -14.01381
| 97> *
| 98> 
| 99>                          ****END OF INPUT****
================================================================================

                       ****************************
                       * Single Point Calculation *
                       ****************************

---------------------------------
CARTESIAN COORDINATES (ANGSTROEM)
---------------------------------
  C      4.509780    0.439080   -7.306560
  C      4.201680    0.963670   -8.521470
  S      3.238070    2.388650   -8.361540
  C      3.248260    2.276230   -6.616530
  Cl     2.444760    3.418010   -5.656720
  C      3.963830    1.189830   -6.211790
  C      4.350010    0.553500   -4.953160
  O      4.091780    0.894840   -3.807330
  C      5.154950   -0.615520   -5.344210
  C      5.256600   -0.691310   -6.783210
  C      5.905740   -1.628590   -7.546190
  C      5.894560   -1.564900   -8.953840
  N      5.890890   -1.525040  -10.100820
  C      6.632300   -2.718040   -7.032490
  N      7.240750   -3.613250   -6.647470
  C      5.707450   -1.458740   -4.412780
  N      5.516860   -1.264930   -3.101170
  C      5.981590   -2.055280   -2.089660
  S      6.307060   -1.329360   -0.546080
  C      6.908530   -2.852680    0.020430
  N      7.359750   -2.931040    1.345430
  O      7.790650   -4.000940    1.732240
  O      7.286500   -1.913910    2.011660
  C      6.851470   -3.848250   -0.917320
  C      6.300680   -3.417420   -2.141480
  C      5.997350   -4.271370   -3.257530
  C      6.623040   -5.431610   -3.546760
  C      6.287740   -6.244770   -4.660670
  S      4.958830   -5.811090   -5.695150
  C      5.291380   -7.138970   -6.726790
  C      6.362130   -7.879790   -6.340380
  C      6.772350   -9.105640   -7.086690
  C      6.956640   -7.378280   -5.135580
  C      8.067960   -7.948610   -4.440220
  C      9.049850   -8.721520   -4.974340
  C     10.100780   -9.280940   -4.217050
  C     11.104080  -10.014000   -4.789670
  C     12.162740  -10.606030   -4.092850
  C     13.169310  -11.317230   -4.707450
  C     14.273910  -11.957190   -4.099300
  C     15.115130  -12.575480   -4.977440
  C     14.717770  -12.452200   -6.326140
  S     13.237780  -11.535500   -6.448110
  C     15.343260  -12.936770   -7.462360
  C     16.533710  -13.685840   -7.567990
  C     16.877000  -13.987790   -8.851180
  C     15.975250  -13.493020   -9.829760
  S     14.666470  -12.632770   -9.045660
  C     16.121050  -13.653530  -11.185150
  C     15.275450  -13.190270  -12.210690
  S     15.736700  -13.462310  -13.887940
  C     14.349410  -12.685590  -14.539700
  C     13.543700  -12.227050  -13.525510
  C     14.066850  -12.512480  -12.224200
  O     13.230650  -12.050920  -11.269850
  C     12.194930  -11.477760  -11.934820
  N     11.156170  -10.906580  -11.165890
  O     10.235530  -10.404610  -11.786470
  O     11.245020  -10.947540   -9.956790
  C     12.316720  -11.546220  -13.297420
  H      4.471390    0.618670   -9.499860
  H      6.333510   -2.289050   -4.707070
  H      5.004380   -0.399300   -2.873420
  H      7.162280   -4.855180   -0.707850
  H      5.190280   -3.947510   -3.901790
  H      7.460220   -5.749870   -2.942790
  H      4.659340   -7.305680   -7.577350
  H      5.958760   -9.433770   -7.729840
  H      7.024250   -9.909450   -6.398010
  H      7.635750   -8.904570   -7.719950
  H      8.135380   -7.718230   -3.384080
  H      9.077820   -8.907990   -6.035940
  H     10.102810   -9.124150   -3.145570
  H     11.089470  -10.152560   -5.864360
  H     12.202880  -10.505320   -3.015950
  H     14.414110  -11.941320   -3.032590
  H     16.004080  -13.109300   -4.692500
  H     17.102350  -13.979790   -6.703930
  H     17.750530  -14.549180   -9.132160
  H     16.997700  -14.193360  -11.517590
  H     14.216510  -12.617670  -15.598690
  H     11.620880  -11.161960  -14.013810

----------------------------
CARTESIAN COORDINATES (A.U.)
----------------------------
  NO LB      ZA    FRAG     MASS         X           Y           Z
   0 C     6.0000    0    12.011    8.522249    0.829741  -13.807397
   1 C     6.0000    0    12.011    7.940025    1.821072  -16.103245
   2 S    16.0000    0    32.060    6.119066    4.513894  -15.801021
   3 C     6.0000    0    12.011    6.138322    4.301451  -12.503430
   4 Cl   17.0000    0    35.453    4.619927    6.459103  -10.689652
   5 C     6.0000    0    12.011    7.490553    2.248453  -11.738582
   6 C     6.0000    0    12.011    8.220328    1.045963   -9.360116
   7 O     8.0000    0    15.999    7.732344    1.691003   -7.194811
   8 C     6.0000    0    12.011    9.741444   -1.163164  -10.099093
   9 C     6.0000    0    12.011    9.933534   -1.306387  -12.818409
  10 C     6.0000    0    12.011   11.160231   -3.077589  -14.260232
  11 C     6.0000    0    12.011   11.139104   -2.957232  -16.920305
  12 N     7.0000    0    14.007   11.132169   -2.881908  -19.087784
  13 C     6.0000    0    12.011   12.533231   -5.136351  -13.289480
  14 N     7.0000    0    14.007   13.683035   -6.828053  -12.561898
  15 C     6.0000    0    12.011   10.785517   -2.756619   -8.338946
  16 N     7.0000    0    14.007   10.425355   -2.390371   -5.860362
  17 C     6.0000    0    12.011   11.303567   -3.883916   -3.948885
  18 S    16.0000    0    32.060   11.918616   -2.512126   -1.031942
  19 C     6.0000    0    12.011   13.055230   -5.390784    0.038607
  20 N     7.0000    0    14.007   13.907912   -5.538863    2.542494
  21 O     8.0000    0    15.999   14.722195   -7.560681    3.273459
  22 O     8.0000    0    15.999   13.769489   -3.616766    3.801486
  23 C     6.0000    0    12.011   12.947402   -7.272139   -1.733484
  24 C     6.0000    0    12.011   11.906560   -6.457988   -4.046811
  25 C     6.0000    0    12.011   11.333349   -8.071720   -6.155840
  26 C     6.0000    0    12.011   12.515732  -10.264255   -6.702405
  27 C     6.0000    0    12.011   11.882107  -11.800905   -8.807390
  28 S    16.0000    0    32.060    9.370831  -10.981369  -10.762274
  29 C     6.0000    0    12.011    9.999259  -13.490698  -12.711791
  30 C     6.0000    0    12.011   12.022683  -14.890645  -11.981582
  31 C     6.0000    0    12.011   12.797887  -17.207166  -13.391903
  32 C     6.0000    0    12.011   13.146144  -13.942929   -9.704840
  33 C     6.0000    0    12.011   15.246235  -15.020696   -8.390800
  34 C     6.0000    0    12.011   17.101738  -16.481284   -9.400140
  35 C     6.0000    0    12.011   19.087708  -17.538435   -7.969070
  36 C     6.0000    0    12.011   20.983670  -18.923718   -9.051165
  37 C     6.0000    0    12.011   22.984248  -20.042492   -7.734366
  38 C     6.0000    0    12.011   24.886389  -21.386465   -8.895791
  39 C     6.0000    0    12.011   26.973781  -22.595814   -7.746554
  40 C     6.0000    0    12.011   28.563456  -23.764213   -9.405998
  41 C     6.0000    0    12.011   27.812555  -23.531248  -11.954672
  42 S    16.0000    0    32.060   25.015779  -21.798936  -12.185162
  43 C     6.0000    0    12.011   28.994559  -24.446952  -14.101817
  44 C     6.0000    0    12.011   31.244184  -25.862490  -14.301428
  45 C     6.0000    0    12.011   31.892908  -26.433092  -16.726306
  46 C     6.0000    0    12.011   30.188847  -25.498113  -18.575554
  47 S    16.0000    0    32.060   27.715612  -23.872476  -17.093820
  48 C     6.0000    0    12.011   30.464369  -25.801432  -21.136870
  49 C     6.0000    0    12.011   28.866417  -24.925998  -23.074860
  50 S    16.0000    0    32.060   29.738053  -25.440079  -26.244403
  51 C     6.0000    0    12.011   27.116455  -23.972291  -27.476051
  52 C     6.0000    0    12.011   25.593884  -23.105776  -25.559510
  53 C     6.0000    0    12.011   26.582494  -23.645160  -23.100390
  54 O     8.0000    0    15.999   25.002305  -22.772938  -21.296930
  55 C     6.0000    0    12.011   23.045078  -21.689823  -22.553541
  56 N     7.0000    0    14.007   21.082106  -20.610449  -21.100474
  57 O     8.0000    0    15.999   19.342349  -19.661863  -22.273200
  58 O     8.0000    0    15.999   21.250008  -20.687852  -18.815606
  59 C     6.0000    0    12.011   23.275228  -21.819194  -25.128482
  60 H     1.0000    0     1.008    8.449703    1.169117  -17.952134
  61 H     1.0000    0     1.008   11.968599   -4.325678   -8.895073
  62 H     1.0000    0     1.008    9.456908   -0.754568   -5.429977
  63 H     1.0000    0     1.008   13.534748   -9.174961   -1.337643
  64 H     1.0000    0     1.008    9.808208   -7.459713   -7.373315
  65 H     1.0000    0     1.008   14.097773  -10.865680   -5.561067
  66 H     1.0000    0     1.008    8.804877  -13.805734  -14.319116
  67 H     1.0000    0     1.008   11.260424  -17.827242  -14.607281
  68 H     1.0000    0     1.008   13.273909  -18.726147  -12.090487
  69 H     1.0000    0     1.008   14.429476  -16.827199  -14.588591
  70 H     1.0000    0     1.008   15.373640  -14.585341   -6.394984
  71 H     1.0000    0     1.008   17.154594  -16.833662  -11.406274
  72 H     1.0000    0     1.008   19.091544  -17.242145   -5.944266
  73 H     1.0000    0     1.008   20.956061  -19.185558  -11.082034
  74 H     1.0000    0     1.008   23.060101  -19.852178   -5.699320
  75 H     1.0000    0     1.008   27.238720  -22.565824   -5.730765
  76 H     1.0000    0     1.008   30.243328  -24.772987   -8.867540
  77 H     1.0000    0     1.008   32.318758  -26.417975  -12.668592
  78 H     1.0000    0     1.008   33.543640  -27.493966  -17.257281
  79 H     1.0000    0     1.008   32.120998  -26.821563  -21.765091
  80 H     1.0000    0     1.008   26.865310  -23.843941  -29.477252
  81 H     1.0000    0     1.008   21.960281  -21.093048  -26.482263

--------------------------------
INTERNAL COORDINATES (ANGSTROEM)
--------------------------------
 C      0   0   0     0.000000000000     0.00000000     0.00000000
 C      1   0   0     1.358722409545     0.00000000     0.00000000
 S      2   1   0     1.727625491071   111.23282432     0.00000000
 C      3   2   1     1.748657196994    92.06892240   359.95994063
 Cl     4   3   2     1.694257670633   121.28109721   180.00813236
 C      4   3   2     1.362394895946   110.53542317     0.02396431
 C      6   4   3     1.462258642717   137.85372765   179.74060735
 O      7   6   4     1.223160707920   128.98597380   359.61712994
 C      7   6   4     1.472228333683   105.14792807   180.27762332
 C      9   7   6     1.444575317040   110.16503996     0.00000000
 C     10   9   7     1.371865524897   128.54705175   180.52867975
 C     11  10   9     1.409134461647   121.39548364   179.23971181
 N     12  11  10     1.147678268898   179.34125187   189.67532405
 C     11  10   9     1.406655048724   124.78142909   359.09044439
 N     14  11  10     1.148848443878   178.10186815   193.45297034
 C      9   7   6     1.372529804157   121.84762411   179.39985705
 N     16   9   7     1.339480368016   121.22065548     1.16839035
 C     17  16   9     1.365203126095   126.39194147   177.97932860
 S     18  17  16     1.736528083188   118.71099556   151.28622869
 C     19  18  17     1.732975349911    89.32229365   183.93613337
 N     20  19  18     1.401914682853   118.02176929   180.72632924
 O     21  20  19     1.216545435280   117.62438598   180.58965260
 O     21  20  19     1.218105665490   116.80172617     0.50447597
 C     20  19  18     1.368864686885   113.63415254   359.63556885
 C     18  17  16     1.399974685521   127.83882631   334.42074566
 C     25  18  17     1.437639486763   123.95808425   350.35629363
 C     26  25  18     1.349555047636   125.39585149   157.91875571
 C     27  26  25     1.419313483238   123.45122829   179.89795950
 S     28  27  26     1.739031052310   120.29891335   356.85015546
 C     29  28  27     1.714099147220    90.94970144   176.85851436
 C     30  29  28     1.358172493831   113.84550526   359.17549635
 C     31  30  29     1.492637694486   121.49189442   177.66609108
 C     28  27  26     1.399218223938   128.13887980   172.36714344
 C     33  28  27     1.429627217459   121.98560450     5.58274261
 C     34  33  28     1.358963581043   126.68268371   203.64177345
 C     35  34  33     1.410989987704   123.55250758   181.73411964
 C     36  35  34     1.368167211272   122.27527636   182.51311849
 C     37  36  35     1.398863334604   124.97727701   180.76528724
 C     38  37  36     1.377215220980   123.32453434   181.23696339
 C     39  38  37     1.414049639900   127.78590893   180.36308523
 C     40  39  38     1.364208001772   114.20281347   180.61841234
 C     41  40  39     1.411412277827   113.69750135     0.12533171
 S     42  41  40     1.745160729274   110.57427857   359.65925384
 C     42  41  40     1.384572754824   128.78594549   179.04349013
 C     44  42  41     1.410473241256   128.94749789     0.45126443
 C     45  44  42     1.362203510016   113.63851533   180.75969659
 C     46  45  44     1.419707445849   114.32946595     0.00000000
 S     44  42  41     1.748513538438   120.48957419   180.98287873
 C     47  46  45     1.372626370212   124.91829398   178.99361875
 C     49  47  46     1.407615529610   128.10628101   180.22258532
 S     50  49  47     1.760660355264   119.06634400   176.87760985
 C     51  50  49     1.718330177847    94.58754687   180.22726232
 C     52  51  50     1.374048358610   110.13871346   359.89526067
 C     50  49  47     1.385747366658   133.78966642   357.03264654
 O     54  50  49     1.350204427522   134.46343082   359.07807170
 C     55  54  50     1.357723611380   105.69794615   180.48501989
 N     56  55  54     1.412983465898   117.70521532   179.89901989
 O     57  56  55     1.218470938061   116.41253903   180.34849076
 O     57  56  55     1.213051876096   118.35415884     0.52385871
 C     56  55  54     1.369743894201   113.47118531     0.08816789
 H      2   1   3     1.071921394599   129.40638371   179.88499283
 H     16   9   7     1.080727728801   121.35891246   182.76976247
 H     17  16   9     1.031417039708   114.10119422   354.81126271
 H     24  20  19     1.074424758603   122.41111840   181.73666154
 H     26  25  18     1.082274564101   116.21340460   337.16540605
 H     27  26  25     1.080249758574   119.52276089   356.45779096
 H     30  29  28     1.072715758857   118.90094242   178.79970881
 H     32  31  30     1.087768315176   109.74325494   343.56660896
 H     32  31  30     1.088046078298   110.72460209   223.27069138
 H     32  31  30     1.089452583870   110.90747575   102.49453914
 H     34  33  28     1.083075297659   115.96537532    22.31664987
 H     35  34  33     1.078215164891   120.27047954     4.06768694
 H     36  35  34     1.082892707243   118.36217957     2.83799766
 H     37  36  35     1.083683958449   118.27329809     0.85696010
 H     38  37  36     1.082343445354   118.96757391     1.17718727
 H     40  39  38     1.076000985594   121.43099750     0.59162571
 H     41  40  39     1.075354220013   124.34465701   179.93694034
 H     45  44  42     1.075340753296   122.09388279     0.70009457
 H     46  45  44     1.075715182286   124.49796642   179.87831553
 H     49  47  46     1.081872453203   116.60536403   359.52158303
 H     52  51  50     1.069455635592   120.30627365   179.95838850
 H     60  56  55     1.070076485724   126.17245832   179.96437061

---------------------------
INTERNAL COORDINATES (A.U.)
---------------------------
 C      0   0   0     0.000000000000     0.00000000     0.00000000
 C      1   0   0     2.567613246062     0.00000000     0.00000000
 S      2   1   0     3.264739040106   111.23282432     0.00000000
 C      3   2   1     3.304483204430    92.06892240   359.95994063
 Cl     4   3   2     3.201682997792   121.28109721   180.00813236
 C      4   3   2     2.574553239590   110.53542317     0.02396431
 C      6   4   3     2.763268371694   137.85372765   179.74060735
 O      7   6   4     2.311438755743   128.98597380   359.61712994
 C      7   6   4     2.782108357261   105.14792807   180.27762332
 C      9   7   6     2.729851729027   110.16503996     0.00000000
 C     10   9   7     2.592450134623   128.54705175   180.52867975
 C     11  10   9     2.662878218383   121.39548364   179.23971181
 N     12  11  10     2.168797618069   179.34125187   189.67532405
 C     11  10   9     2.658192806986   124.78142909   359.09044439
 N     14  11  10     2.171008928310   178.10186815   193.45297034
 C      9   7   6     2.593705440502   121.84762411   179.39985705
 N     16   9   7     2.531251057314   121.22065548     1.16839035
 C     17  16   9     2.579860025493   126.39194147   177.97932860
 S     18  17  16     3.281562501088   118.71099556   151.28622869
 C     19  18  17     3.274848808169    89.32229365   183.93613337
 N     20  19  18     2.649234813716   118.02176929   180.72632924
 O     21  20  19     2.298937702151   117.62438598   180.58965260
 O     21  20  19     2.301886109955   116.80172617     0.50447597
 C     20  19  18     2.586779372608   113.63415254   359.63556885
 C     18  17  16     2.645568750057   127.83882631   334.42074566
 C     25  18  17     2.716744909293   123.95808425   350.35629363
 C     26  25  18     2.550289442683   125.39585149   157.91875571
 C     27  26  25     2.682113781501   123.45122829   179.89795950
 S     28  27  26     3.286292427252   120.29891335   356.85015546
 C     29  28  27     3.239177954634    90.94970144   176.85851436
 C     30  29  28     2.566574055966   113.84550526   359.17549635
 C     31  30  29     2.820676459746   121.49189442   177.66609108
 C     28  27  26     2.644139244834   128.13887980   172.36714344
 C     33  28  27     2.701603914598   121.98560450     5.58274261
 C     34  33  28     2.568068994143   126.68268371   203.64177345
 C     35  34  33     2.666384654465   123.55250758   181.73411964
 C     36  35  34     2.585461334715   122.27527636   182.51311849
 C     37  36  35     2.643468601186   124.97727701   180.76528724
 C     38  37  36     2.602559595121   123.32453434   181.23696339
 C     39  38  37     2.672166559180   127.78590893   180.36308523
 C     40  39  38     2.577979513054   114.20281347   180.61841234
 C     41  40  39     2.667182667146   113.69750135     0.12533171
 S     42  41  40     3.297875838002   110.57427857   359.65925384
 C     42  41  40     2.616463319106   128.78594549   179.04349013
 C     44  42  41     2.665408145199   128.94749789     0.45126443
 C     45  44  42     2.574191572597   113.63851533   180.75969659
 C     46  45  44     2.682858262944   114.32946595     0.00000000
 S     44  42  41     3.304211729101   120.48957419   180.98287873
 C     47  46  45     2.593887923898   124.91829398   178.99361875
 C     49  47  46     2.660007852818   128.10628101   180.22258532
 S     50  49  47     3.327165886302   119.06634400   176.87760985
 C     51  50  49     3.247173443783    94.58754687   180.22726232
 C     52  51  50     2.596575092538   110.13871346   359.89526067
 C     50  49  47     2.618683013786   133.78966642   357.03264654
 O     54  50  49     2.551516592824   134.46343082   359.07807170
 C     55  54  50     2.565725791068   105.69794615   180.48501989
 N     56  55  54     2.670151782305   117.70521532   179.89901989
 O     57  56  55     2.302576375078   116.41253903   180.34849076
 O     57  56  55     2.292335832061   118.35415884     0.52385871
 C     56  55  54     2.588440833650   113.47118531     0.08816789
 H      2   1   3     2.025637872884   129.40638371   179.88499283
 H     16   9   7     2.042279432769   121.35891246   182.76976247
 H     17  16   9     1.949095734908   114.10119422   354.81126271
 H     24  20  19     2.030368545265   122.41111840   181.73666154
 H     26  25  18     2.045202527860   116.21340460   337.16540605
 H     27  26  25     2.041376199940   119.52276089   356.45779096
 H     30  29  28     2.027139003781   118.90094242   178.79970881
 H     32  31  30     2.055584212839   109.74325494   343.56660896
 H     32  31  30     2.056109109071   110.72460209   223.27069138
 H     32  31  30     2.058767019406   110.90747575   102.49453914
 H     34  33  28     2.046715694992   115.96537532    22.31664987
 H     35  34  33     2.037531375084   120.27047954     4.06768694
 H     36  35  34     2.046370649110   118.36217957     2.83799766
 H     37  36  35     2.047865897193   118.27329809     0.85696010
 H     38  37  36     2.045332694563   118.96757391     1.17718727
 H     40  39  38     2.033347182603   121.43099750     0.59162571
 H     41  40  39     2.032124972781   124.34465701   179.93694034
 H     45  44  42     2.032099524375   122.09388279     0.70009457
 H     46  45  44     2.032807092621   124.49796642   179.87831553
 H     49  47  46     2.044442648388   116.60536403   359.52158303
 H     52  51  50     2.020978263648   120.30627365   179.95838850
 H     60  56  55     2.022151500368   126.17245832   179.96437061

---------------------
BASIS SET INFORMATION
---------------------
There are 6 groups of distinct atoms

 Group   1 Type C   : 7s4p1d contracted to 3s2p1d pattern {511/31/1}
 Group   2 Type S   : 10s7p1d contracted to 4s3p1d pattern {5311/511/1}
 Group   3 Type Cl  : 10s7p1d contracted to 4s3p1d pattern {5311/511/1}
 Group   4 Type O   : 7s4p1d contracted to 3s2p1d pattern {511/31/1}
 Group   5 Type N   : 7s4p1d contracted to 3s2p1d pattern {511/31/1}
 Group   6 Type H   : 4s1p contracted to 2s1p pattern {31/1}

Atom   0C    basis set group =>   1
Atom   1C    basis set group =>   1
Atom   2S    basis set group =>   2
Atom   3C    basis set group =>   1
Atom   4Cl   basis set group =>   3
Atom   5C    basis set group =>   1
Atom   6C    basis set group =>   1
Atom   7O    basis set group =>   4
Atom   8C    basis set group =>   1
Atom   9C    basis set group =>   1
Atom  10C    basis set group =>   1
Atom  11C    basis set group =>   1
Atom  12N    basis set group =>   5
Atom  13C    basis set group =>   1
Atom  14N    basis set group =>   5
Atom  15C    basis set group =>   1
Atom  16N    basis set group =>   5
Atom  17C    basis set group =>   1
Atom  18S    basis set group =>   2
Atom  19C    basis set group =>   1
Atom  20N    basis set group =>   5
Atom  21O    basis set group =>   4
Atom  22O    basis set group =>   4
Atom  23C    basis set group =>   1
Atom  24C    basis set group =>   1
Atom  25C    basis set group =>   1
Atom  26C    basis set group =>   1
Atom  27C    basis set group =>   1
Atom  28S    basis set group =>   2
Atom  29C    basis set group =>   1
Atom  30C    basis set group =>   1
Atom  31C    basis set group =>   1
Atom  32C    basis set group =>   1
Atom  33C    basis set group =>   1
Atom  34C    basis set group =>   1
Atom  35C    basis set group =>   1
Atom  36C    basis set group =>   1
Atom  37C    basis set group =>   1
Atom  38C    basis set group =>   1
Atom  39C    basis set group =>   1
Atom  40C    basis set group =>   1
Atom  41C    basis set group =>   1
Atom  42S    basis set group =>   2
Atom  43C    basis set group =>   1
Atom  44C    basis set group =>   1
Atom  45C    basis set group =>   1
Atom  46C    basis set group =>   1
Atom  47S    basis set group =>   2
Atom  48C    basis set group =>   1
Atom  49C    basis set group =>   1
Atom  50S    basis set group =>   2
Atom  51C    basis set group =>   1
Atom  52C    basis set group =>   1
Atom  53C    basis set group =>   1
Atom  54O    basis set group =>   4
Atom  55C    basis set group =>   1
Atom  56N    basis set group =>   5
Atom  57O    basis set group =>   4
Atom  58O    basis set group =>   4
Atom  59C    basis set group =>   1
Atom  60H    basis set group =>   6
Atom  61H    basis set group =>   6
Atom  62H    basis set group =>   6
Atom  63H    basis set group =>   6
Atom  64H    basis set group =>   6
Atom  65H    basis set group =>   6
Atom  66H    basis set group =>   6
Atom  67H    basis set group =>   6
Atom  68H    basis set group =>   6
Atom  69H    basis set group =>   6
Atom  70H    basis set group =>   6
Atom  71H    basis set group =>   6
Atom  72H    basis set group =>   6
Atom  73H    basis set group =>   6
Atom  74H    basis set group =>   6
Atom  75H    basis set group =>   6
Atom  76H    basis set group =>   6
Atom  77H    basis set group =>   6
Atom  78H    basis set group =>   6
Atom  79H    basis set group =>   6
Atom  80H    basis set group =>   6
Atom  81H    basis set group =>   6
---------------------------------
AUXILIARY/J BASIS SET INFORMATION
---------------------------------
There are 6 groups of distinct atoms

 Group   1 Type C   : 12s5p4d2f1g contracted to 6s4p3d1f1g pattern {711111/2111/211/2/1}
 Group   2 Type S   : 14s5p5d2f1g contracted to 8s4p3d1f1g pattern {71111111/2111/311/2/1}
 Group   3 Type Cl  : 14s5p5d2f1g contracted to 8s4p3d1f1g pattern {71111111/2111/311/2/1}
 Group   4 Type O   : 12s5p4d2f1g contracted to 6s4p3d1f1g pattern {711111/2111/211/2/1}
 Group   5 Type N   : 12s5p4d2f1g contracted to 6s4p3d1f1g pattern {711111/2111/211/2/1}
 Group   6 Type H   : 5s2p1d contracted to 3s1p1d pattern {311/2/1}

Atom   0C    basis set group =>   1
Atom   1C    basis set group =>   1
Atom   2S    basis set group =>   2
Atom   3C    basis set group =>   1
Atom   4Cl   basis set group =>   3
Atom   5C    basis set group =>   1
Atom   6C    basis set group =>   1
Atom   7O    basis set group =>   4
Atom   8C    basis set group =>   1
Atom   9C    basis set group =>   1
Atom  10C    basis set group =>   1
Atom  11C    basis set group =>   1
Atom  12N    basis set group =>   5
Atom  13C    basis set group =>   1
Atom  14N    basis set group =>   5
Atom  15C    basis set group =>   1
Atom  16N    basis set group =>   5
Atom  17C    basis set group =>   1
Atom  18S    basis set group =>   2
Atom  19C    basis set group =>   1
Atom  20N    basis set group =>   5
Atom  21O    basis set group =>   4
Atom  22O    basis set group =>   4
Atom  23C    basis set group =>   1
Atom  24C    basis set group =>   1
Atom  25C    basis set group =>   1
Atom  26C    basis set group =>   1
Atom  27C    basis set group =>   1
Atom  28S    basis set group =>   2
Atom  29C    basis set group =>   1
Atom  30C    basis set group =>   1
Atom  31C    basis set group =>   1
Atom  32C    basis set group =>   1
Atom  33C    basis set group =>   1
Atom  34C    basis set group =>   1
Atom  35C    basis set group =>   1
Atom  36C    basis set group =>   1
Atom  37C    basis set group =>   1
Atom  38C    basis set group =>   1
Atom  39C    basis set group =>   1
Atom  40C    basis set group =>   1
Atom  41C    basis set group =>   1
Atom  42S    basis set group =>   2
Atom  43C    basis set group =>   1
Atom  44C    basis set group =>   1
Atom  45C    basis set group =>   1
Atom  46C    basis set group =>   1
Atom  47S    basis set group =>   2
Atom  48C    basis set group =>   1
Atom  49C    basis set group =>   1
Atom  50S    basis set group =>   2
Atom  51C    basis set group =>   1
Atom  52C    basis set group =>   1
Atom  53C    basis set group =>   1
Atom  54O    basis set group =>   4
Atom  55C    basis set group =>   1
Atom  56N    basis set group =>   5
Atom  57O    basis set group =>   4
Atom  58O    basis set group =>   4
Atom  59C    basis set group =>   1
Atom  60H    basis set group =>   6
Atom  61H    basis set group =>   6
Atom  62H    basis set group =>   6
Atom  63H    basis set group =>   6
Atom  64H    basis set group =>   6
Atom  65H    basis set group =>   6
Atom  66H    basis set group =>   6
Atom  67H    basis set group =>   6
Atom  68H    basis set group =>   6
Atom  69H    basis set group =>   6
Atom  70H    basis set group =>   6
Atom  71H    basis set group =>   6
Atom  72H    basis set group =>   6
Atom  73H    basis set group =>   6
Atom  74H    basis set group =>   6
Atom  75H    basis set group =>   6
Atom  76H    basis set group =>   6
Atom  77H    basis set group =>   6
Atom  78H    basis set group =>   6
Atom  79H    basis set group =>   6
Atom  80H    basis set group =>   6
Atom  81H    basis set group =>   6


           ************************************************************
           *        Program running with 6 parallel MPI-processes     *
           *              working on a common directory               *
           ************************************************************
------------------------------------------------------------------------------
                           ORCA GTO INTEGRAL CALCULATION
                           -- RI-GTO INTEGRALS CHOSEN --
------------------------------------------------------------------------------

                         BASIS SET STATISTICS AND STARTUP INFO

Gaussian basis set:
 # of primitive gaussian shells          ...  872
 # of primitive gaussian functions       ... 1678
 # of contracted shells                  ...  440
 # of contracted basis functions         ...  978
 Highest angular momentum                ...    2
 Maximum contraction depth               ...    5
Auxiliary gaussian basis set:
 # of primitive gaussian shells          ... 1637
 # of primitive gaussian functions       ... 4601
 # of contracted shells                  ... 1024
 # of contracted aux-basis functions     ... 3196
 Highest angular momentum                ...    4
 Maximum contraction depth               ...    7
Ratio of auxiliary to basis functions    ...  3.27
Integral package used                  ... LIBINT
 One Electron integrals                  ... done
 Ordering auxiliary basis shells         ... done
 Integral threshhold             Thresh  ...  2.500e-11
 Primitive cut-off               TCut    ...  2.500e-12
 Pre-screening matrix                    ... done
 Shell pair data                         ... 
 Ordering of the shell pairs             ... done (   0.005 sec) 32896 of 97020 pairs
 Determination of significant pairs      ... done (   0.000 sec)
 Creation of shell pair data             ... done (   0.005 sec)
 Storage of shell pair data              ... done (   0.007 sec)
 Shell pair data done in (   0.017 sec)
 Computing two index integrals           ... done
 Cholesky decomposition of the V-matrix  ... done


Timings:
 Total evaluation time                   ...   1.597 sec (  0.027 min)
 One electron matrix time                ...   0.348 sec (  0.006 min) = 21.8%
 Schwartz matrix evaluation time         ...   0.492 sec (  0.008 min) = 30.8%
 Two index repulsion integral time       ...   0.304 sec (  0.005 min) = 19.0%
 Cholesky decomposition of V             ...   0.421 sec (  0.007 min) = 26.4%
 Three index repulsion integral time     ...   0.000 sec (  0.000 min) =  0.0%



           ************************************************************
           *        Program running with 6 parallel MPI-processes     *
           *              working on a common directory               *
           ************************************************************
-------------------------------------------------------------------------------
                                 ORCA SCF
-------------------------------------------------------------------------------

------------
SCF SETTINGS
------------
Hamiltonian:
 Density Functional     Method          .... DFT(GTOs)
 Exchange Functional    Exchange        .... WB88
 Correlation Functional Correlation     .... LYP
 LDA part of GGA corr.  LDAOpt          .... VWN-5
 Gradients option       PostSCFGGA      .... off
 Hybrid DFT is turned on
   Fraction HF Exchange ScalHFX         ....  0.190000
   Scaling of DF-GGA-X  ScalDFX         ....  0.350000
   Scaling of DF-GGA-C  ScalDFC         ....  0.810000
   Scaling of DF-LDA-C  ScalLDAC        ....  1.000000
   Perturbative correction              ....  0.000000
   Density functional embedding theory  .... OFF
 Long-range corrected/Screened/Range-Separated Hybrid DFT is turned on
   Amount of maximum screened exact exchange              ....  0.460000
   Range separation parameter mu (erf(mu*r12)/r12)        ....  0.330000
 RI-approximation to the Coulomb term is turned on
   Number of auxiliary basis functions  .... 3196
   RIJ-COSX (HFX calculated with COS-X)).... on


General Settings:
 Integral files         IntName         .... xtbopt
 Hartree-Fock type      HFTyp           .... RHF
 Total Charge           Charge          ....    0
 Multiplicity           Mult            ....    1
 Number of Electrons    NEL             ....  470
 Basis Dimension        Dim             ....  978
 Nuclear Repulsion      ENuc            ....   8710.4552235178 Eh

Convergence Acceleration:
 DIIS                   CNVDIIS         .... on
   Start iteration      DIISMaxIt       ....    12
   Startup error        DIISStart       ....  0.200000
   # of expansion vecs  DIISMaxEq       ....     5
   Bias factor          DIISBfac        ....   1.050
   Max. coefficient     DIISMaxC        ....  10.000
 Newton-Raphson         CNVNR           .... off
 SOSCF                  CNVSOSCF        .... on
   Start iteration      SOSCFMaxIt      ....   150
   Startup grad/error   SOSCFStart      ....  0.003300
 Level Shifting         CNVShift        .... on
   Level shift para.    LevelShift      ....    0.2500
   Turn off err/grad.   ShiftErr        ....    0.0010
 Zerner damping         CNVZerner       .... off
 Static damping         CNVDamp         .... on
   Fraction old density DampFac         ....    0.7000
   Max. Damping (<1)    DampMax         ....    0.9800
   Min. Damping (>=0)   DampMin         ....    0.0000
   Turn off err/grad.   DampErr         ....    0.1000
 Fernandez-Rico         CNVRico         .... off

SCF Procedure:
 Maximum # iterations   MaxIter         ....   125
 SCF integral mode      SCFMode         .... Direct
   Integral package                     .... LIBINT
 Reset frequency        DirectResetFreq ....    20
 Integral Threshold     Thresh          ....  2.500e-11 Eh
 Primitive CutOff       TCut            ....  2.500e-12 Eh

Convergence Tolerance:
 Convergence Check Mode ConvCheckMode   .... Total+1el-Energy
 Convergence forced     ConvForced      .... 1
 Energy Change          TolE            ....  1.000e-08 Eh
 1-El. energy change                    ....  1.000e-05 Eh
 Orbital Gradient       TolG            ....  1.000e-05
 Orbital Rotation angle TolX            ....  1.000e-05
 DIIS Error             TolErr          ....  5.000e-07


Diagonalization of the overlap matrix:
Smallest eigenvalue                        ... 2.011e-04
Time for diagonalization                   ...    0.164 sec
Threshold for overlap eigenvalues          ... 1.000e-08
Number of eigenvalues below threshold      ... 0
Time for construction of square roots      ...    0.102 sec
Total time needed                          ...    0.268 sec

-------------------
DFT GRID GENERATION
-------------------

General Integration Accuracy     IntAcc      ...  4.670
Radial Grid Type                 RadialGrid  ... Gauss-Chebyshev
Angular Grid (max. acc.)         AngularGrid ... Lebedev-302
Angular grid pruning method      GridPruning ... 3 (G Style)
Weight generation scheme         WeightScheme... Becke
Basis function cutoff            BFCut       ...    1.0000e-11
Integration weight cutoff        WCut        ...    1.0000e-14
Grids for H and He will be reduced by one unit

# of grid points (after initial pruning)     ... 451718 (   0.0 sec)
# of grid points (after weights+screening)   ... 393406 (   3.2 sec)
nearest neighbour list constructed           ...    0.0 sec
Grid point re-assignment to atoms done       ...    0.1 sec
Grid point division into batches done        ...    1.2 sec
Reduced shell lists constructed in    2.1 sec

Total number of grid points                  ...   393406
Total number of batches                      ...     6186
Average number of points per batch           ...       63
Average number of grid points per atom       ...     4798
Average number of shells per batch           ...    77.26 (17.56%)
Average number of basis functions per batch  ...   167.70 (17.15%)
Average number of large shells per batch     ...    48.83 (63.20%)
Average number of large basis fcns per batch ...   107.95 (64.37%)
Maximum spatial batch extension              ...  19.55, 17.15, 19.31 au
Average spatial batch extension              ...   0.42,  0.39,  0.37 au

Time for grid setup =    5.464 sec

------------------------------
INITIAL GUESS: MODEL POTENTIAL
------------------------------
Loading Hartree-Fock densities                     ... done
Calculating cut-offs                               ... done
Setting up the integral package                    ... done
Initializing the effective Hamiltonian             ... done
Starting the Coulomb interaction                   ... done (   0.7 sec)
Reading the grid                                   ... done
Mapping shells                                     ... done
Starting the XC term evaluation                    ... done (   0.9 sec)
  promolecular density results
     # of electrons  =    469.989396081
     EX              =   -480.007091138
     EC              =    -16.588131783
     EX+EC           =   -496.595222921
Transforming the Hamiltonian                       ... done (   0.1 sec)
Diagonalizing the Hamiltonian                      ... done (   0.2 sec)
Back transforming the eigenvectors                 ... done (   0.0 sec)
Now organizing SCF variables                       ... done
                      ------------------
                      INITIAL GUESS DONE (   7.6 sec)
                      ------------------
--------------------
COSX GRID GENERATION
--------------------

General Integration Accuracy     IntAcc      ...  3.340
Radial Grid Type                 RadialGrid  ... Gauss-Chebyshev
Angular Grid (max. acc.)         AngularGrid ... Lebedev-50
Angular grid pruning method      GridPruning ... 3 (G Style)
Weight generation scheme         WeightScheme... Becke
Basis function cutoff            BFCut       ...    1.0000e-11
Integration weight cutoff        WCut        ...    1.0000e-14
Grids for H and He will be reduced by one unit

# of grid points (after initial pruning)     ...  42652 (   0.0 sec)
# of grid points (after weights+screening)   ...  38675 (   0.3 sec)
nearest neighbour list constructed           ...    0.0 sec
Grid point re-assignment to atoms done       ...    0.0 sec
Grid point division into batches done        ...    0.0 sec
Reduced shell lists constructed in    0.1 sec

Total number of grid points                  ...    38675
Total number of batches                      ...      643
Average number of points per batch           ...       60
Average number of grid points per atom       ...      472
Average number of shells per batch           ...    95.06 (21.60%)
Average number of basis functions per batch  ...   208.16 (21.28%)
Average number of large shells per batch     ...    59.94 (63.06%)
Average number of large basis fcns per batch ...   134.48 (64.60%)
Maximum spatial batch extension              ...  26.90, 17.99, 14.90 au
Average spatial batch extension              ...   1.01,  0.88,  0.68 au

Overlap Fitting                  UseSFitting ... on
Constructing numerical overlap ... done (      0.1 sec)
Inverting numerical overlap    ... done (      0.0 sec)
Obtaining analytic overlap     ... done (      0.0 sec)
Final contraction and storage  ... done (      0.1 sec)


General Integration Accuracy     IntAcc      ...  3.670
Radial Grid Type                 RadialGrid  ... Gauss-Chebyshev
Angular Grid (max. acc.)         AngularGrid ... Lebedev-50
Angular grid pruning method      GridPruning ... 3 (G Style)
Weight generation scheme         WeightScheme... Becke
Basis function cutoff            BFCut       ...    1.0000e-11
Integration weight cutoff        WCut        ...    1.0000e-14
Grids for H and He will be reduced by one unit

# of grid points (after initial pruning)     ...  53220 (   0.0 sec)
# of grid points (after weights+screening)   ...  48089 (   0.4 sec)
nearest neighbour list constructed           ...    0.0 sec
Grid point re-assignment to atoms done       ...    0.0 sec
Grid point division into batches done        ...    0.0 sec
Reduced shell lists constructed in    0.1 sec

Total number of grid points                  ...    48089
Total number of batches                      ...      789
Average number of points per batch           ...       60
Average number of grid points per atom       ...      586
Average number of shells per batch           ...    93.41 (21.23%)
Average number of basis functions per batch  ...   204.47 (20.91%)
Average number of large shells per batch     ...    59.08 (63.25%)
Average number of large basis fcns per batch ...   132.38 (64.74%)
Maximum spatial batch extension              ...  27.71, 17.56, 16.52 au
Average spatial batch extension              ...   0.91,  0.74,  0.61 au

Overlap Fitting                  UseSFitting ... on
Constructing numerical overlap ... done (      0.1 sec)
Inverting numerical overlap    ... done (      0.0 sec)
Obtaining analytic overlap     ... done (      0.0 sec)
Final contraction and storage  ... done (      0.1 sec)


General Integration Accuracy     IntAcc      ...  4.010
Radial Grid Type                 RadialGrid  ... Gauss-Chebyshev
Angular Grid (max. acc.)         AngularGrid ... Lebedev-110
Angular grid pruning method      GridPruning ... 3 (G Style)
Weight generation scheme         WeightScheme... Becke
Basis function cutoff            BFCut       ...    1.0000e-11
Integration weight cutoff        WCut        ...    1.0000e-14
Grids for H and He will be reduced by one unit

# of grid points (after initial pruning)     ... 103672 (   0.0 sec)
# of grid points (after weights+screening)   ...  92781 (   0.8 sec)
nearest neighbour list constructed           ...    0.0 sec
Grid point re-assignment to atoms done       ...    0.0 sec
Grid point division into batches done        ...    0.1 sec
Reduced shell lists constructed in    0.3 sec

Total number of grid points                  ...    92781
Total number of batches                      ...     1490
Average number of points per batch           ...       62
Average number of grid points per atom       ...     1131
Average number of shells per batch           ...    87.38 (19.86%)
Average number of basis functions per batch  ...   191.00 (19.53%)
Average number of large shells per batch     ...    55.45 (63.46%)
Average number of large basis fcns per batch ...   123.63 (64.73%)
Maximum spatial batch extension              ...  18.28, 21.05, 16.81 au
Average spatial batch extension              ...   0.68,  0.62,  0.52 au

Overlap Fitting                  UseSFitting ... on
Constructing numerical overlap ... done (      0.1 sec)
Inverting numerical overlap    ... done (      0.0 sec)
Obtaining analytic overlap     ... done (      0.0 sec)
Final contraction and storage  ... done (      0.1 sec)

Time for X-Grid setup             =    2.613 sec
--------------
SCF ITERATIONS
--------------
ITER       Energy         Delta-E        Max-DP      RMS-DP      [F,P]     Damp
               ***  Starting incremental Fock matrix formation  ***
  0  -5182.6642336270   0.000000000000 0.08325926  0.00106246  0.2444599 0.7000
  1  -5183.2813446811  -0.617111054100 0.04486152  0.00074628  0.0986475 0.7000
                               ***Turning on DIIS***
  2  -5183.5397222353  -0.258377554219 0.08917066  0.00134390  0.0379209 0.0000
  3  -5183.9307665381  -0.391044302864 0.04674698  0.00058198  0.0591048 0.0000
  4  -5184.0275302187  -0.096763680589 0.01890538  0.00021300  0.0162140 0.0000
  5  -5184.0352833521  -0.007753133397 0.00870746  0.00009192  0.0122238 0.0000
                      *** Initiating the SOSCF procedure ***
                           *** Shutting down DIIS ***
                      *** Re-Reading the Fockian *** 
                      *** Removing any level shift *** 
ITER      Energy       Delta-E        Grad      Rot      Max-DP    RMS-DP
  6  -5184.03738362  -0.0021002665  0.003270  0.003270  0.002947  0.000054
               *** Restarting incremental Fock matrix formation ***
  7  -5184.03819652  -0.0008129029  0.002658  0.016411  0.004291  0.000075
  8  -5184.03902778  -0.0008312597  0.001479  0.024411  0.006862  0.000119
  9  -5184.03906342  -0.0000356340  0.003548  0.008211  0.003811  0.000045
 10  -5184.03938252  -0.0003191080  0.000633  0.002198  0.001007  0.000016
 11  -5184.03937610   0.0000064211  0.000420  0.001218  0.000613  0.000009
 12  -5184.03939532  -0.0000192157  0.000029  0.000337  0.000228  0.000003
 13  -5184.03939517   0.0000001429  0.000053  0.000142  0.000122  0.000001
 14  -5184.03939566  -0.0000004876  0.000020  0.000047  0.000081  0.000001
 15  -5184.03939567  -0.0000000121  0.000027  0.000030  0.000048  0.000000
 16  -5184.03939572  -0.0000000481  0.000004  0.000013  0.000013  0.000000
 17  -5184.03939577  -0.0000000507  0.000004  0.000006  0.000008  0.000000
                  ***Gradient check signals convergence***
              ***Rediagonalizing the Fockian in SOSCF/NRSCF***

               *****************************************************
               *                     SUCCESS                       *
               *           SCF CONVERGED AFTER  18 CYCLES          *
               *****************************************************

Setting up the final grid:

General Integration Accuracy     IntAcc      ...  5.010
Radial Grid Type                 RadialGrid  ... Gauss-Chebyshev
Angular Grid (max. acc.)         AngularGrid ... Lebedev-434
Angular grid pruning method      GridPruning ... 3 (G Style)
Weight generation scheme         WeightScheme... Becke
Basis function cutoff            BFCut       ...    1.0000e-11
Integration weight cutoff        WCut        ...    1.0000e-14
Grids for H and He will be reduced by one unit

# of grid points (after initial pruning)     ... 796866 (   0.0 sec)
# of grid points (after weights+screening)   ... 691748 (   5.5 sec)
nearest neighbour list constructed           ...    0.0 sec
Grid point re-assignment to atoms done       ...    0.1 sec
Grid point division into batches done        ...    4.0 sec
Reduced shell lists constructed in    5.4 sec

Total number of grid points                  ...   691748
Total number of batches                      ...    10848
Average number of points per batch           ...       63
Average number of grid points per atom       ...     8436
Average number of shells per batch           ...    74.10 (16.84%)
Average number of basis functions per batch  ...   160.45 (16.41%)
Average number of large shells per batch     ...    46.68 (62.99%)
Average number of large basis fcns per batch ...   102.90 (64.13%)
Maximum spatial batch extension              ...  21.11, 21.07, 20.55 au
Average spatial batch extension              ...   0.34,  0.33,  0.32 au

Final grid set up in   11.2 sec
Final integration                            ... done (   1.9 sec)
Change in XC energy                          ...    -0.000073518
Integrated number of electrons               ...   470.000073390
Previous integrated no of electrons          ...   470.000061804
Old exchange energy                            =   -129.228568350 Eh
New exchange energy                            =   -129.225589964 Eh
Exchange energy change after final integration =      0.002978386 Eh
Total energy after final integration           =  -5184.036490867 Eh
Final COS-X integration done in                =    35.831 sec

----------------
TOTAL SCF ENERGY
----------------

Total Energy       :        -5184.03649087 Eh         -141064.80451 eV

Components:
Nuclear Repulsion  :         8710.45522352 Eh          237023.53668 eV
Electronic Energy  :       -13894.49171438 Eh         -378088.34119 eV
One Electron Energy:       -24461.97554728 Eh         -665644.19534 eV
Two Electron Energy:        10567.48383290 Eh          287555.85415 eV

Virial components:
Potential Energy   :       -10341.17406323 Eh         -281397.65224 eV
Kinetic Energy     :         5157.13757237 Eh          140332.84773 eV
Virial Ratio       :            2.00521586


DFT components:
N(Alpha)           :      235.000036695057 electrons
N(Beta)            :      235.000036695057 electrons
N(Total)           :      470.000073390113 electrons
E(XC)              :     -374.178816116476 Eh       
DFET-embed. en.    :        0.000000000000 Eh       

---------------
SCF CONVERGENCE
---------------

  Last Energy change         ...    3.8031e-08  Tolerance :   1.0000e-08
  Last MAX-Density change    ...    5.7732e-15  Tolerance :   1.0000e-07
  Last RMS-Density change    ...    3.7441e-17  Tolerance :   5.0000e-09
  Last Orbital Gradient      ...    3.6365e-07  Tolerance :   1.0000e-05
  Last Orbital Rotation      ...    3.2624e-06  Tolerance :   1.0000e-05

             **** THE GBW FILE WAS UPDATED (xtbopt.gbw) ****
             **** DENSITY FILE WAS UPDATED (xtbopt.scfp) ****
             **** ENERGY FILE WAS UPDATED (xtbopt.en.tmp) ****
             **** THE GBW FILE WAS UPDATED (xtbopt.gbw) ****
             **** DENSITY FILE WAS UPDATED (xtbopt.scfp) ****
----------------
ORBITAL ENERGIES
----------------

  NO   OCC          E(Eh)            E(eV) 
   0   2.0000    -101.618814     -2765.1885 
   1   2.0000     -88.992297     -2421.6035 
   2   2.0000     -88.988817     -2421.5088 
   3   2.0000     -88.971442     -2421.0360 
   4   2.0000     -88.943717     -2420.2816 
   5   2.0000     -88.935648     -2420.0620 
   6   2.0000     -88.935163     -2420.0488 
   7   2.0000     -19.304956      -525.3146 
   8   2.0000     -19.241920      -523.5993 
   9   2.0000     -19.240750      -523.5674 
  10   2.0000     -19.240131      -523.5506 
  11   2.0000     -19.239150      -523.5239 
  12   2.0000     -19.230430      -523.2866 
  13   2.0000     -14.653046      -398.7297 
  14   2.0000     -14.652051      -398.7026 
  15   2.0000     -14.497056      -394.4849 
  16   2.0000     -14.418157      -392.3380 
  17   2.0000     -14.414218      -392.2308 
  18   2.0000     -10.384827      -282.5855 
  19   2.0000     -10.383748      -282.5562 
  20   2.0000     -10.377488      -282.3858 
  21   2.0000     -10.368312      -282.1361 
  22   2.0000     -10.368272      -282.1350 
  23   2.0000     -10.348537      -281.5980 
  24   2.0000     -10.348214      -281.5892 
  25   2.0000     -10.343861      -281.4708 
  26   2.0000     -10.340432      -281.3775 
  27   2.0000     -10.329140      -281.0702 
  28   2.0000     -10.319798      -280.8160 
  29   2.0000     -10.317379      -280.7502 
  30   2.0000     -10.316582      -280.7285 
  31   2.0000     -10.312260      -280.6109 
  32   2.0000     -10.310858      -280.5727 
  33   2.0000     -10.309230      -280.5284 
  34   2.0000     -10.308341      -280.5042 
  35   2.0000     -10.307532      -280.4822 
  36   2.0000     -10.306267      -280.4478 
  37   2.0000     -10.304696      -280.4050 
  38   2.0000     -10.301880      -280.3284 
  39   2.0000     -10.300195      -280.2826 
  40   2.0000     -10.299346      -280.2594 
  41   2.0000     -10.299068      -280.2519 
  42   2.0000     -10.295939      -280.1667 
  43   2.0000     -10.291082      -280.0346 
  44   2.0000     -10.289226      -279.9841 
  45   2.0000     -10.285001      -279.8691 
  46   2.0000     -10.284199      -279.8473 
  47   2.0000     -10.282989      -279.8144 
  48   2.0000     -10.282507      -279.8012 
  49   2.0000     -10.281086      -279.7626 
  50   2.0000     -10.280084      -279.7353 
  51   2.0000     -10.279134      -279.7095 
  52   2.0000     -10.275326      -279.6058 
  53   2.0000     -10.272931      -279.5407 
  54   2.0000     -10.270538      -279.4755 
  55   2.0000     -10.269795      -279.4553 
  56   2.0000     -10.268663      -279.4245 
  57   2.0000     -10.268048      -279.4078 
  58   2.0000     -10.266385      -279.3625 
  59   2.0000     -10.256510      -279.0938 
  60   2.0000      -9.573573      -260.5102 
  61   2.0000      -8.088120      -220.0889 
  62   2.0000      -8.084411      -219.9880 
  63   2.0000      -8.066430      -219.4987 
  64   2.0000      -8.039480      -218.7654 
  65   2.0000      -8.032095      -218.5644 
  66   2.0000      -8.031386      -218.5451 
  67   2.0000      -7.344182      -199.8454 
  68   2.0000      -7.333618      -199.5579 
  69   2.0000      -7.333101      -199.5438 
  70   2.0000      -6.057571      -164.8349 
  71   2.0000      -6.054020      -164.7383 
  72   2.0000      -6.052928      -164.7086 
  73   2.0000      -6.050241      -164.6354 
  74   2.0000      -6.049651      -164.6194 
  75   2.0000      -6.045940      -164.5184 
  76   2.0000      -6.035768      -164.2416 
  77   2.0000      -6.031499      -164.1254 
  78   2.0000      -6.028701      -164.0493 
  79   2.0000      -6.008740      -163.5061 
  80   2.0000      -6.004576      -163.3928 
  81   2.0000      -6.001795      -163.3172 
  82   2.0000      -6.001724      -163.3152 
  83   2.0000      -6.001156      -163.2998 
  84   2.0000      -5.997753      -163.2072 
  85   2.0000      -5.996993      -163.1865 
  86   2.0000      -5.992996      -163.0777 
  87   2.0000      -5.992143      -163.0545 
  88   2.0000      -1.323876       -36.0245 
  89   2.0000      -1.321879       -35.9701 
  90   2.0000      -1.227114       -33.3915 
  91   2.0000      -1.146750       -31.2047 
  92   2.0000      -1.140911       -31.0458 
  93   2.0000      -1.139546       -31.0086 
  94   2.0000      -1.101093       -29.9623 
  95   2.0000      -1.038246       -28.2521 
  96   2.0000      -1.014764       -27.6131 
  97   2.0000      -1.009947       -27.4820 
  98   2.0000      -0.995189       -27.0805 
  99   2.0000      -0.993820       -27.0432 
 100   2.0000      -0.987835       -26.8804 
 101   2.0000      -0.986943       -26.8561 
 102   2.0000      -0.976901       -26.5828 
 103   2.0000      -0.967094       -26.3160 
 104   2.0000      -0.952994       -25.9323 
 105   2.0000      -0.932738       -25.3811 
 106   2.0000      -0.919347       -25.0167 
 107   2.0000      -0.909917       -24.7601 
 108   2.0000      -0.907497       -24.6942 
 109   2.0000      -0.897775       -24.4297 
 110   2.0000      -0.895613       -24.3709 
 111   2.0000      -0.883041       -24.0288 
 112   2.0000      -0.871249       -23.7079 
 113   2.0000      -0.869860       -23.6701 
 114   2.0000      -0.856014       -23.2933 
 115   2.0000      -0.849347       -23.1119 
 116   2.0000      -0.839226       -22.8365 
 117   2.0000      -0.832852       -22.6631 
 118   2.0000      -0.827023       -22.5044 
 119   2.0000      -0.820154       -22.3175 
 120   2.0000      -0.813138       -22.1266 
 121   2.0000      -0.800697       -21.7881 
 122   2.0000      -0.796189       -21.6654 
 123   2.0000      -0.785200       -21.3664 
 124   2.0000      -0.777281       -21.1509 
 125   2.0000      -0.759230       -20.6597 
 126   2.0000      -0.755875       -20.5684 
 127   2.0000      -0.746755       -20.3202 
 128   2.0000      -0.728677       -19.8283 
 129   2.0000      -0.714477       -19.4419 
 130   2.0000      -0.710779       -19.3413 
 131   2.0000      -0.705759       -19.2047 
 132   2.0000      -0.695303       -18.9201 
 133   2.0000      -0.689561       -18.7639 
 134   2.0000      -0.675860       -18.3911 
 135   2.0000      -0.670877       -18.2555 
 136   2.0000      -0.668446       -18.1893 
 137   2.0000      -0.663562       -18.0564 
 138   2.0000      -0.650182       -17.6923 
 139   2.0000      -0.648004       -17.6331 
 140   2.0000      -0.643280       -17.5046 
 141   2.0000      -0.637835       -17.3564 
 142   2.0000      -0.635038       -17.2803 
 143   2.0000      -0.633230       -17.2311 
 144   2.0000      -0.628012       -17.0891 
 145   2.0000      -0.626881       -17.0583 
 146   2.0000      -0.621488       -16.9115 
 147   2.0000      -0.616474       -16.7751 
 148   2.0000      -0.613738       -16.7007 
 149   2.0000      -0.610740       -16.6191 
 150   2.0000      -0.609564       -16.5871 
 151   2.0000      -0.601763       -16.3748 
 152   2.0000      -0.597555       -16.2603 
 153   2.0000      -0.593879       -16.1603 
 154   2.0000      -0.588619       -16.0171 
 155   2.0000      -0.584296       -15.8995 
 156   2.0000      -0.578217       -15.7341 
 157   2.0000      -0.571344       -15.5471 
 158   2.0000      -0.563355       -15.3297 
 159   2.0000      -0.562477       -15.3058 
 160   2.0000      -0.559625       -15.2282 
 161   2.0000      -0.551789       -15.0149 
 162   2.0000      -0.547923       -14.9097 
 163   2.0000      -0.545607       -14.8467 
 164   2.0000      -0.539113       -14.6700 
 165   2.0000      -0.536782       -14.6066 
 166   2.0000      -0.530479       -14.4351 
 167   2.0000      -0.528514       -14.3816 
 168   2.0000      -0.526908       -14.3379 
 169   2.0000      -0.520461       -14.1625 
 170   2.0000      -0.520227       -14.1561 
 171   2.0000      -0.515175       -14.0186 
 172   2.0000      -0.510215       -13.8837 
 173   2.0000      -0.505015       -13.7421 
 174   2.0000      -0.500454       -13.6180 
 175   2.0000      -0.499730       -13.5983 
 176   2.0000      -0.498108       -13.5542 
 177   2.0000      -0.494944       -13.4681 
 178   2.0000      -0.492036       -13.3890 
 179   2.0000      -0.491352       -13.3704 
 180   2.0000      -0.489764       -13.3272 
 181   2.0000      -0.486986       -13.2516 
 182   2.0000      -0.478592       -13.0231 
 183   2.0000      -0.474101       -12.9009 
 184   2.0000      -0.471472       -12.8294 
 185   2.0000      -0.470036       -12.7903 
 186   2.0000      -0.467978       -12.7343 
 187   2.0000      -0.462695       -12.5906 
 188   2.0000      -0.460512       -12.5312 
 189   2.0000      -0.458615       -12.4796 
 190   2.0000      -0.456093       -12.4109 
 191   2.0000      -0.455247       -12.3879 
 192   2.0000      -0.449831       -12.2405 
 193   2.0000      -0.447444       -12.1756 
 194   2.0000      -0.445820       -12.1314 
 195   2.0000      -0.444215       -12.0877 
 196   2.0000      -0.442448       -12.0396 
 197   2.0000      -0.441605       -12.0167 
 198   2.0000      -0.434436       -11.8216 
 199   2.0000      -0.432018       -11.7558 
 200   2.0000      -0.431239       -11.7346 
 201   2.0000      -0.426947       -11.6178 
 202   2.0000      -0.426531       -11.6065 
 203   2.0000      -0.418918       -11.3993 
 204   2.0000      -0.415047       -11.2940 
 205   2.0000      -0.413249       -11.2451 
 206   2.0000      -0.410179       -11.1615 
 207   2.0000      -0.406243       -11.0544 
 208   2.0000      -0.404517       -11.0075 
 209   2.0000      -0.403477       -10.9792 
 210   2.0000      -0.402078       -10.9411 
 211   2.0000      -0.394734       -10.7413 
 212   2.0000      -0.388532       -10.5725 
 213   2.0000      -0.387661       -10.5488 
 214   2.0000      -0.384190       -10.4543 
 215   2.0000      -0.380324       -10.3491 
 216   2.0000      -0.379635       -10.3304 
 217   2.0000      -0.376247       -10.2382 
 218   2.0000      -0.368613       -10.0305 
 219   2.0000      -0.368489       -10.0271 
 220   2.0000      -0.356975        -9.7138 
 221   2.0000      -0.354283        -9.6405 
 222   2.0000      -0.351229        -9.5574 
 223   2.0000      -0.342117        -9.3095 
 224   2.0000      -0.336906        -9.1677 
 225   2.0000      -0.332210        -9.0399 
 226   2.0000      -0.323816        -8.8115 
 227   2.0000      -0.317953        -8.6520 
 228   2.0000      -0.315628        -8.5887 
 229   2.0000      -0.313378        -8.5275 
 230   2.0000      -0.293764        -7.9937 
 231   2.0000      -0.289071        -7.8660 
 232   2.0000      -0.265188        -7.2161 
 233   2.0000      -0.245904        -6.6914 
 234   2.0000      -0.198513        -5.4018 
 235   0.0000      -0.085925        -2.3381 
 236   0.0000      -0.079765        -2.1705 
 237   0.0000      -0.059033        -1.6064 
 238   0.0000      -0.058432        -1.5900 
 239   0.0000      -0.045774        -1.2456 
 240   0.0000      -0.032939        -0.8963 
 241   0.0000      -0.007871        -0.2142 
 242   0.0000       0.012802         0.3484 
 243   0.0000       0.028349         0.7714 
 244   0.0000       0.037963         1.0330 
 245   0.0000       0.043569         1.1856 
 246   0.0000       0.048917         1.3311 
 247   0.0000       0.050834         1.3833 
 248   0.0000       0.052672         1.4333 
 249   0.0000       0.053961         1.4683 
 250   0.0000       0.058565         1.5936 
 251   0.0000       0.075069         2.0427 
 252   0.0000       0.079338         2.1589 
 253   0.0000       0.079560         2.1649 
 254   0.0000       0.082667         2.2495 
 255   0.0000       0.091609         2.4928 
 256   0.0000       0.098513         2.6807 
 257   0.0000       0.099430         2.7056 
 258   0.0000       0.101003         2.7484 
 259   0.0000       0.106260         2.8915 
 260   0.0000       0.109941         2.9916 
 261   0.0000       0.113948         3.1007 
 262   0.0000       0.117438         3.1956 
 263   0.0000       0.119180         3.2430 
 264   0.0000       0.122473         3.3327 
 265   0.0000       0.124638         3.3916 
 266   0.0000       0.127189         3.4610 
 267   0.0000       0.132121         3.5952 
 268   0.0000       0.134888         3.6705 
 269   0.0000       0.139105         3.7852 
 270   0.0000       0.140293         3.8176 
 271   0.0000       0.141818         3.8591 
 272   0.0000       0.145163         3.9501 
 273   0.0000       0.146072         3.9748 
 274   0.0000       0.146702         3.9920 
 275   0.0000       0.148677         4.0457 
 276   0.0000       0.153548         4.1783 
 277   0.0000       0.155498         4.2313 
 278   0.0000       0.157665         4.2903 
 279   0.0000       0.158450         4.3117 
 280   0.0000       0.159777         4.3478 
 281   0.0000       0.160767         4.3747 
 282   0.0000       0.161177         4.3859 
 283   0.0000       0.166068         4.5189 
 284   0.0000       0.173931         4.7329 
 285   0.0000       0.177087         4.8188 
 286   0.0000       0.179294         4.8788 
 287   0.0000       0.181414         4.9365 
 288   0.0000       0.190276         5.1777 
 289   0.0000       0.191898         5.2218 
 290   0.0000       0.201221         5.4755 
 291   0.0000       0.209092         5.6897 
 292   0.0000       0.213756         5.8166 
 293   0.0000       0.219026         5.9600 
 294   0.0000       0.221994         6.0408 
 295   0.0000       0.228463         6.2168 
 296   0.0000       0.230311         6.2671 
 297   0.0000       0.235126         6.3981 
 298   0.0000       0.238864         6.4998 
 299   0.0000       0.244134         6.6432 
 300   0.0000       0.250391         6.8135 
 301   0.0000       0.254565         6.9271 
 302   0.0000       0.255637         6.9562 
 303   0.0000       0.265116         7.2142 
 304   0.0000       0.267925         7.2906 
 305   0.0000       0.275486         7.4964 
 306   0.0000       0.279184         7.5970 
 307   0.0000       0.284940         7.7536 
 308   0.0000       0.291211         7.9242 
 309   0.0000       0.292934         7.9711 
 310   0.0000       0.296003         8.0547 
 311   0.0000       0.303925         8.2702 
 312   0.0000       0.304483         8.2854 
 313   0.0000       0.305383         8.3099 
 314   0.0000       0.310951         8.4614 
 315   0.0000       0.313266         8.5244 
 316   0.0000       0.323319         8.7980 
 317   0.0000       0.324777         8.8376 
 318   0.0000       0.325843         8.8666 
 319   0.0000       0.331262         9.0141 
 320   0.0000       0.332490         9.0475 
 321   0.0000       0.336857         9.1664 
 322   0.0000       0.343009         9.3338 
 323   0.0000       0.347338         9.4516 
 324   0.0000       0.349360         9.5066 
 325   0.0000       0.351254         9.5581 
 326   0.0000       0.360058         9.7977 
 327   0.0000       0.361669         9.8415 
 328   0.0000       0.364484         9.9181 
 329   0.0000       0.367726        10.0063 
 330   0.0000       0.369280        10.0486 
 331   0.0000       0.374986        10.2039 
 332   0.0000       0.378119        10.2892 
 333   0.0000       0.380356        10.3500 
 334   0.0000       0.380773        10.3614 
 335   0.0000       0.384299        10.4573 
 336   0.0000       0.385738        10.4965 
 337   0.0000       0.387679        10.5493 
 338   0.0000       0.391202        10.6451 
 339   0.0000       0.395294        10.7565 
 340   0.0000       0.396697        10.7947 
 341   0.0000       0.404763        11.0142 
 342   0.0000       0.408043        11.1034 
 343   0.0000       0.411712        11.2033 
 344   0.0000       0.412483        11.2242 
 345   0.0000       0.415953        11.3187 
 346   0.0000       0.418361        11.3842 
 347   0.0000       0.419753        11.4221 
 348   0.0000       0.425560        11.5801 
 349   0.0000       0.429024        11.6743 
 350   0.0000       0.433279        11.7901 
 351   0.0000       0.434016        11.8102 
 352   0.0000       0.441554        12.0153 
 353   0.0000       0.445424        12.1206 
 354   0.0000       0.445945        12.1348 
 355   0.0000       0.446857        12.1596 
 356   0.0000       0.449279        12.2255 
 357   0.0000       0.450789        12.2666 
 358   0.0000       0.454195        12.3593 
 359   0.0000       0.459645        12.5076 
 360   0.0000       0.462533        12.5862 
 361   0.0000       0.464075        12.6281 
 362   0.0000       0.467892        12.7320 
 363   0.0000       0.469358        12.7719 
 364   0.0000       0.471944        12.8423 
 365   0.0000       0.476672        12.9709 
 366   0.0000       0.480684        13.0801 
 367   0.0000       0.485998        13.2247 
 368   0.0000       0.488140        13.2830 
 369   0.0000       0.489644        13.3239 
 370   0.0000       0.489823        13.3288 
 371   0.0000       0.494636        13.4597 
 372   0.0000       0.498518        13.5654 
 373   0.0000       0.502687        13.6788 
 374   0.0000       0.505175        13.7465 
 375   0.0000       0.508732        13.8433 
 376   0.0000       0.509515        13.8646 
 377   0.0000       0.512176        13.9370 
 378   0.0000       0.514927        14.0119 
 379   0.0000       0.516056        14.0426 
 380   0.0000       0.517870        14.0920 
 381   0.0000       0.520949        14.1758 
 382   0.0000       0.523335        14.2407 
 383   0.0000       0.528482        14.3807 
 384   0.0000       0.530018        14.4225 
 385   0.0000       0.530504        14.4357 
 386   0.0000       0.534545        14.5457 
 387   0.0000       0.536243        14.5919 
 388   0.0000       0.539169        14.6715 
 389   0.0000       0.540547        14.7090 
 390   0.0000       0.544646        14.8206 
 391   0.0000       0.545963        14.8564 
 392   0.0000       0.549036        14.9400 
 393   0.0000       0.549235        14.9454 
 394   0.0000       0.552277        15.0282 
 395   0.0000       0.554221        15.0811 
 396   0.0000       0.557175        15.1615 
 397   0.0000       0.559125        15.2146 
 398   0.0000       0.563511        15.3339 
 399   0.0000       0.563652        15.3378 
 400   0.0000       0.569593        15.4994 
 401   0.0000       0.570682        15.5290 
 402   0.0000       0.573050        15.5935 
 403   0.0000       0.575256        15.6535 
 404   0.0000       0.576000        15.6738 
 405   0.0000       0.579608        15.7719 
 406   0.0000       0.582000        15.8370 
 407   0.0000       0.583566        15.8796 
 408   0.0000       0.590840        16.0776 
 409   0.0000       0.591690        16.1007 
 410   0.0000       0.592721        16.1288 
 411   0.0000       0.595177        16.1956 
 412   0.0000       0.596656        16.2358 
 413   0.0000       0.598775        16.2935 
 414   0.0000       0.602211        16.3870 
 415   0.0000       0.607467        16.5300 
 416   0.0000       0.612933        16.6788 
 417   0.0000       0.613568        16.6960 
 418   0.0000       0.615864        16.7585 
[...]
setting up A+B and A-B matrices...  done
estimated time (min):    0.001
calculating (A-B)^0.5 ... done
calculating (A+B)*(A-B)^0.5 ... done
calculating (A-B)^0.5 *(A+B)*(A-B)^0.5 ... done
diagonalizing ...using LAPACKE_ssyevr ...done

   44 roots found, lowest/highest eigenvalue :     1.544     4.897

excitation energies, transition moments and amplitudes

molecular weight:  920.480
state   eV        nm        fL         fV        Rl        RV
   0   1.544     803.1   0.895955   1.467901  -409.883575  -400.786387     0.59 (  76->  78)    0.25 (  76->  77)    0.13 (  76->  79)
   1   1.796     690.3   0.270970   0.354173   7.620506  13.236696     0.51 (  76->  77)    0.35 (  76->  79)    0.06 (  75->  77)
   2   1.911     648.7   0.390636   0.590117  -48.746284  -93.586572     0.46 (  76->  79)    0.34 (  76->  78)    0.12 (  76->  77)
   3   2.495     497.0   0.218209   0.242477  105.076054  80.208220     0.59 (  75->  77)    0.22 (  74->  77)    0.09 (  76->  77)
   4   2.637     470.2   0.000807   0.000978  12.138150  13.494998     0.77 (  76->  80)    0.09 (  75->  80)    0.08 (  76->  81)
   5   2.672     464.0   0.023323   0.030476  60.449548  55.671968     0.39 (  76->  82)    0.25 (  75->  78)    0.09 (  76->  81)
   6   2.909     426.1   0.432475   0.427675  567.624944  590.363789     0.41 (  76->  81)    0.35 (  75->  78)    0.07 (  75->  81)
   7   3.099     400.1   0.399355   0.408534  281.455890  277.015435     0.35 (  76->  82)    0.28 (  76->  81)    0.22 (  75->  78)
   8   3.215     385.7   0.026300   0.028629  -209.903095  -213.976539     0.41 (  74->  77)    0.10 (  75->  77)    0.09 (  73->  77)
   9   3.284     377.5   0.129241   0.125202  -101.485622  -99.218463     0.42 (  75->  79)    0.16 (  74->  78)    0.09 (  74->  79)
  10   3.315     374.0   0.166542   0.157066  151.833418  149.623225     0.25 (  75->  79)    0.19 (  76->  83)    0.09 (  74->  78)
  11   3.320     373.5   0.071608   0.070844  -8.448635  -19.963674     0.46 (  75->  80)    0.22 (  74->  80)    0.07 (  76->  83)
  12   3.528     351.4   0.131974   0.126019  -507.349761  -500.425792     0.53 (  72->  77)    0.11 (  74->  78)    0.06 (  72->  78)
  13   3.600     344.4   0.804022   0.811102  106.539351  127.949754     0.27 (  76->  83)    0.23 (  74->  78)    0.12 (  72->  77)
  14   3.657     339.0   0.071549   0.073401  38.673466  37.064562     0.43 (  75->  81)    0.17 (  74->  81)    0.11 (  74->  78)
  15   3.790     327.1   0.005395   0.002817  -0.579697  -3.425111     0.34 (  73->  78)    0.12 (  72->  78)    0.10 (  76->  85)
  16   3.950     313.9   0.032336   0.031955  -77.558515  -71.235776     0.15 (  73->  80)    0.15 (  72->  80)    0.11 (  74->  80)
  17   3.992     310.6   0.024318   0.021384  14.886520  15.520795     0.33 (  74->  79)    0.13 (  75->  79)    0.08 (  73->  79)
  18   4.039     307.0   0.002384   0.002249   7.861275   5.921156     0.76 (  61->  79)    0.10 (  61->  78)    0.03 (  61->  82)
  19   4.049     306.2   0.282570   0.266859  -83.903340  -99.224647     0.30 (  70->  78)    0.14 (  76->  85)    0.14 (  71->  77)
  20   4.089     303.2   0.069393   0.060837  -184.956609  -174.723673     0.11 (  70->  77)    0.11 (  71->  77)    0.11 (  73->  77)
  21   4.146     299.1   0.354835   0.319564  148.060455  164.654165     0.42 (  75->  82)    0.12 (  74->  80)    0.09 (  71->  77)
  22   4.171     297.3   0.001100   0.000629  -3.419700  -1.085002     0.71 (  76->  89)    0.20 (  76->  92)    0.03 (  76->  88)
  23   4.252     291.6   0.107041   0.098120  -85.089846  -84.866143     0.23 (  73->  77)    0.13 (  76->  85)    0.12 (  72->  77)
  24   4.264     290.8   0.128699   0.110917  -25.191855  -17.567444     0.26 (  72->  80)    0.13 (  74->  80)    0.08 (  71->  77)
  25   4.292     288.9   0.038766   0.034070  -80.982383  -72.102216     0.18 (  76->  85)    0.13 (  73->  78)    0.11 (  67->  78)
  26   4.332     286.2   0.043536   0.044670  84.407481  81.734275     0.09 (  73->  79)    0.08 (  74->  82)    0.08 (  74->  81)
  27   4.350     285.0   0.029875   0.029022  -93.038538  -91.921938     0.10 (  64->  77)    0.10 (  62->  77)    0.09 (  62->  80)
  28   4.396     282.0   0.058445   0.053034  30.684242  28.183824     0.32 (  72->  78)    0.12 (  73->  78)    0.10 (  72->  79)
  29   4.451     278.5   0.046198   0.039999  108.664279  102.100121     0.13 (  74->  81)    0.12 (  66->  77)    0.10 (  73->  79)
  30   4.486     276.4   0.266616   0.237403  151.716149  139.745290     0.18 (  69->  78)    0.11 (  71->  78)    0.08 (  67->  78)
  31   4.488     276.3   0.084450   0.069640  -197.472272  -180.521694     0.10 (  66->  77)    0.09 (  71->  80)    0.09 (  76->  85)
  32   4.500     275.5   0.009613   0.006957  17.198283  14.369440     0.14 (  74->  81)    0.12 (  68->  78)    0.08 (  73->  78)
  33   4.540     273.1   0.005050   0.003637  -0.914394  -0.667423     0.67 (  76->  92)    0.14 (  76->  89)    0.04 (  75->  92)
  34   4.567     271.5   0.032710   0.025151  -17.305012  -12.224629     0.24 (  74->  82)    0.15 (  76->  84)    0.08 (  68->  78)
  35   4.664     265.8   0.240087   0.208693  -72.902236  -67.354155     0.42 (  76->  84)    0.13 (  66->  77)    0.06 (  71->  80)
  36   4.685     264.7   0.139228   0.120284  -12.487754  -9.726623     0.19 (  76->  84)    0.14 (  66->  77)    0.12 (  71->  80)
  37   4.737     261.7   0.125610   0.117923  90.098196  94.931598     0.19 (  75->  83)    0.17 (  69->  79)    0.10 (  72->  81)
  38   4.755     260.7   0.036334   0.032926  61.132855  60.940978     0.30 (  70->  79)    0.08 (  72->  81)    0.08 (  75->  83)
  39   4.774     259.7   0.166191   0.149709  127.104857  122.409121     0.11 (  75->  83)    0.10 (  70->  79)    0.09 (  64->  77)
  40   4.794     258.6   0.077256   0.061427  10.618237  10.330365     0.21 (  72->  81)    0.11 (  62->  77)    0.10 (  64->  80)
  41   4.835     256.4   0.156206   0.134140  -36.137682  -44.085612     0.27 (  75->  83)    0.17 (  69->  79)    0.07 (  76->  91)
  42   4.882     253.9   0.034028   0.027475  -62.168100  -55.313465     0.49 (  65->  77)    0.09 (  75->  83)    0.05 (  68->  77)
  43   4.897     253.2   0.089972   0.073629  -3.675155  -9.872388     0.21 (  69->  79)    0.20 (  76->  91)    0.07 (  76->  88)

-----------------------------------------------------------------------------
         ABSORPTION SPECTRUM VIA TRANSITION ELECTRIC DIPOLE MOMENTS
-----------------------------------------------------------------------------
State   Energy  Wavelength   fosc         T2         TX        TY        TZ  
        (cm-1)    (nm)                  (au**2)     (au)      (au)      (au) 
-----------------------------------------------------------------------------
   0   12451.4    803.1   0.895954994  23.68891  -2.48251   2.29200   3.50325
   1   14485.5    690.3   0.270970147   6.15834  -1.62026   1.84012   0.38351
   2   15415.8    648.7   0.390636194   8.34221  -1.62662   0.99107   2.17119
   3   20121.0    497.0   0.218208523   3.57023   0.41052  -1.18022   1.41732
   4   21269.8    470.2   0.000807352   0.01250   0.05377   0.05231  -0.08287
   5   21553.2    464.0   0.023323201   0.35625   0.11589  -0.39318   0.43385
   6   23466.4    426.1   0.432475050   6.06722   1.55023  -1.80310   0.64252
   7   24991.5    400.1   0.399354766   5.26068   1.60672  -1.40901   0.83296
   8   25926.8    385.7   0.026299881   0.33395   0.37868   0.06487  -0.43167
   9   26489.7    377.5   0.129240796   1.60620  -0.39054   0.49111   1.10113
  10   26739.6    374.0   0.166541744   2.05043   0.72546  -0.76397   0.96978
  11   26776.2    373.5   0.071607640   0.88041  -0.60575   0.69914  -0.15711
  12   28457.9    351.4   0.131974098   1.52673  -0.59264  -0.02242   1.08398
  13   29033.2    344.4   0.804021600   9.11691   1.65577  -0.16822   2.51933
  14   29498.3    339.0   0.071549293   0.79852   0.54675  -0.66198  -0.24772
  15   30569.6    327.1   0.005394549   0.05810  -0.13617   0.10707   0.16760
  16   31857.5    313.9   0.032336063   0.33416  -0.48685  -0.11105  -0.29121
  17   32199.2    310.6   0.024318445   0.24864  -0.07716   0.41032   0.27262
  18   32575.4    307.0   0.002383595   0.02409   0.05837   0.00896   0.14353
  19   32654.9    306.2   0.282570235   2.84874   0.89444  -0.25327   1.40875
  20   32983.9    303.2   0.069392916   0.69261   0.03447  -0.22045   0.80176
  21   33437.0    299.1   0.354835146   3.49361  -0.68137   1.68163   0.44885
  22   33637.6    297.3   0.001099623   0.01076   0.01012   0.07712   0.06865
  23   34291.1    291.6   0.107041035   1.02765   0.25336   0.25425   0.94806
  24   34387.6    290.8   0.128698963   1.23211   0.66002  -0.76067   0.46675
  25   34618.1    288.9   0.038765621   0.36865   0.29525   0.02278   0.53006
  26   34936.4    286.2   0.043535603   0.41024   0.34122  -0.39229  -0.37406
  27   35083.1    285.0   0.029874655   0.28034   0.02873  -0.00217   0.52868
  28   35458.5    282.0   0.058445122   0.54263   0.31753  -0.49825  -0.43995
  29   35903.2    278.5   0.046197701   0.42361   0.58869  -0.17004   0.21941
  30   36182.8    276.4   0.266616404   2.42583  -1.18738   0.91102   0.43128
  31   36196.1    276.3   0.084450419   0.76810  -0.69268   0.05932   0.53364
  32   36291.6    275.5   0.009613002   0.08720   0.12130  -0.13919   0.23047
  33   36619.4    273.1   0.005050103   0.04540   0.17171  -0.10235  -0.07376
  34   36836.3    271.5   0.032709731   0.29233  -0.47177   0.14924   0.21793
  35   37619.5    265.8   0.240087251   2.10103  -1.00868   0.99179   0.31613
  36   37785.7    264.7   0.139227840   1.21304  -0.44640   1.00678   0.01241
  37   38209.9    261.7   0.125610238   1.08224   0.26926  -0.69527  -0.72550
  38   38351.2    260.7   0.036333619   0.31189   0.04306  -0.41714  -0.36883
  39   38505.6    259.7   0.166190993   1.42089   0.67871  -0.76227  -0.61578
  40   38669.2    258.6   0.077256244   0.65772   0.28526  -0.75821   0.03837
  41   38999.6    256.4   0.156206126   1.31860   0.76194  -0.19213  -0.83734
  42   39378.3    253.9   0.034028214   0.28448  -0.44983   0.11845  -0.26097
  43   39498.5    253.2   0.089971526   0.74990   0.76614  -0.38559   0.11934

-----------------------------------------------------------------------------
         ABSORPTION SPECTRUM VIA TRANSITION VELOCITY DIPOLE MOMENTS
-----------------------------------------------------------------------------
State   Energy  Wavelength   fosc         P2         PX        PY        PZ  
        (cm-1)    (nm)                  (au**2)     (au)      (au)      (au) 
-----------------------------------------------------------------------------
   0   12451.4    803.1   1.467900587   0.12492  -0.17956   0.16111   0.25830
   1   14485.5    690.3   0.354173326   0.03506  -0.12380   0.13731   0.02972
   2   15415.8    648.7   0.590117063   0.06217  -0.14017   0.08806   0.18647
   3   20121.0    497.0   0.242477202   0.03334   0.03926  -0.10981   0.14052
   4   21269.8    470.2   0.000977994   0.00014   0.00521   0.00616  -0.00878
   5   21553.2    464.0   0.030475932   0.00449   0.01397  -0.04117   0.05099
   6   23466.4    426.1   0.427675150   0.06859   0.16181  -0.19103   0.07691
   7   24991.5    400.1   0.408533696   0.06978   0.18314  -0.15900   0.10467
   8   25926.8    385.7   0.028628839   0.00507   0.04430   0.00627  -0.05542
   9   26489.7    377.5   0.125201940   0.02267  -0.04569   0.05755   0.13140
  10   26739.6    374.0   0.157065813   0.02870   0.08214  -0.08904   0.11845
  11   26776.2    373.5   0.070844338   0.01296  -0.07477   0.08282  -0.02271
  12   28457.9    351.4   0.126018569   0.02451  -0.08036  -0.00334   0.13431
  13   29033.2    344.4   0.811101702   0.16095   0.22188  -0.02536   0.33327
  14   29498.3    339.0   0.073401297   0.01480   0.07507  -0.08993  -0.03280
  15   30569.6    327.1   0.002816679   0.00059  -0.01159   0.01122   0.01812
  16   31857.5    313.9   0.031955063   0.00696  -0.06995  -0.01427  -0.04314
  17   32199.2    310.6   0.021383529   0.00471  -0.00928   0.05661   0.03762
  18   32575.4    307.0   0.002249180   0.00050   0.00912   0.00316   0.02019
  19   32654.9    306.2   0.266858778   0.05956   0.13000  -0.03485   0.20358
  20   32983.9    303.2   0.060836771   0.01371   0.00245  -0.02777   0.11374
  21   33437.0    299.1   0.319564046   0.07303  -0.09482   0.24322   0.06988
  22   33637.6    297.3   0.000629473   0.00014  -0.00056   0.00683   0.00989
  23   34291.1    291.6   0.098119886   0.02300   0.04152   0.03663   0.14117
  24   34387.6    290.8   0.110917266   0.02607   0.09463  -0.11206   0.06749
  25   34618.1    288.9   0.034069701   0.00806   0.04643   0.00036   0.07684
  26   34936.4    286.2   0.044670430   0.01067   0.05725  -0.06132  -0.06023
  27   35083.1    285.0   0.029022273   0.00696   0.00453  -0.00151   0.08328
  28   35458.5    282.0   0.053034231   0.01285   0.05169  -0.07768  -0.06439
  29   35903.2    278.5   0.039998685   0.00981   0.08939  -0.02685   0.03321
  30   36182.8    276.4   0.237402798   0.05871  -0.18418   0.14127   0.06950
  31   36196.1    276.3   0.069639901   0.01723  -0.10483   0.00585   0.07877
  32   36291.6    275.5   0.006956955   0.00173   0.00960  -0.01359   0.03806
  33   36619.4    273.1   0.003636736   0.00091   0.02504  -0.01374  -0.00972
  34   36836.3    271.5   0.025150962   0.00633  -0.07041   0.02007   0.03117
  35   37619.5    265.8   0.208692665   0.05366  -0.16090   0.15929   0.04895
  36   37785.7    264.7   0.120283688   0.03106  -0.07070   0.16144   0.00135
  37   38209.9    261.7   0.117922980   0.03080   0.04161  -0.11384  -0.12690
  38   38351.2    260.7   0.032925615   0.00863   0.00442  -0.06806  -0.06308
  39   38505.6    259.7   0.149708756   0.03940   0.11134  -0.12470  -0.10701
  40   38669.2    258.6   0.061427475   0.01623   0.04464  -0.11919   0.00592
  41   38999.6    256.4   0.134140046   0.03575   0.12298  -0.02780  -0.14091
  42   39378.3    253.9   0.027474619   0.00739  -0.07145   0.01827  -0.04422
  43   39498.5    253.2   0.073629104   0.01988   0.12526  -0.06310   0.01426

-------------------------------------------------------------------
                             CD SPECTRUM
-------------------------------------------------------------------
State   Energy Wavelength       R         MX        MY        MZ   
        (cm-1)   (nm)       (1e40*cgs)   (au)      (au)      (au)  
-------------------------------------------------------------------
   0   12451.4    803.1    -409.88358   5.17707   6.31203   0.03533
   1   14485.5    690.3      7.62051   0.36478   0.34896  -0.21754
   2   15415.8    648.7    -48.74628   3.08107   3.93447   0.60759
   3   20121.0    497.0    105.07605   0.93051   1.98968   1.07281
   4   21269.8    470.2     12.13815  -0.43314  -0.49332   0.02891
   5   21553.2    464.0     60.44955   0.91665   1.31450   0.35533
   6   23466.4    426.1    567.62494   5.00353   5.61643  -0.05857
   7   24991.5    400.1    281.45589   4.78261   5.86661  -0.73496
   8   25926.8    385.7    -209.90310   1.25251   0.81638  -0.84139
   9   26489.7    377.5    -101.48562  -0.24816   0.33012   0.15574
  10   26739.6    374.0    151.83342   1.39688   2.42725   0.20299
  11   26776.2    373.5     -8.44863  -1.28219  -1.18178  -0.54340
  12   28457.9    351.4    -507.34976  -1.17218  -0.80108   1.32815
  13   29033.2    344.4    106.53935   4.67557   8.14796  -2.70827
  14   29498.3    339.0     38.67347   1.26289   1.22626   0.17271
  15   30569.6    327.1     -0.57970   0.66344   0.90456  -0.02415
  16   31857.5    313.9    -77.55851  -0.83293  -1.40362   0.79790
  17   32199.2    310.6     14.88652  -0.68633   0.20957  -0.74134
  18   32575.4    307.0      7.86127   0.62791   0.20536  -0.50050
  19   32654.9    306.2    -83.90334   3.33387   4.97993  -0.96875
  20   32983.9    303.2    -184.95661   0.48084   0.35880   1.05663
  21   33437.0    299.1    148.06046  -1.11957  -0.21373  -2.29818
  22   33637.6    297.3     -3.41970   0.16225   0.24715  -0.09023
  23   34291.1    291.6    -85.08985   1.67265   3.12490  -0.90428
  24   34387.6    290.8    -25.19186   1.15628   1.37871   0.84082
  25   34618.1    288.9    -80.98238   2.19409   3.23151  -0.71288
  26   34936.4    286.2     84.40748   0.28630   0.97887   0.19186
  27   35083.1    285.0    -93.03854   0.23095  -0.13464   0.73346
  28   35458.5    282.0     30.68424  -0.40578  -0.38946   0.44407
  29   35903.2    278.5    108.66428  -0.17846   0.92786  -0.90311
  30   36182.8    276.4    151.71615  -0.18637  -1.31979   0.78242
  31   36196.1    276.3    -197.47227   0.02527  -0.93276   1.70633
  32   36291.6    275.5     17.19828   0.64701   0.92777  -0.09678
  33   36619.4    273.1     -0.91439  -0.01586   0.00079  -0.09061
  34   36836.3    271.5    -17.30501   0.34980   0.60197   0.68190
  35   37619.5    265.8    -72.90224  -1.42802  -0.98613  -0.48433
  36   37785.7    264.7    -12.48775  -3.12772  -1.30798  -2.12486
  37   38209.9    261.7     90.09820  -0.03296  -0.44214   0.93832
  38   38351.2    260.7     61.13285   0.40517   0.11290   0.62277
  39   38505.6    259.7    127.10486   0.29685   0.58698   0.47622
  40   38669.2    258.6     10.61824   2.11922   0.95609   1.96366
  41   38999.6    256.4    -36.13768  -1.87162  -0.52349  -1.76607
  42   39378.3    253.9    -62.16810  -0.95949  -1.10385   0.14223
  43   39498.5    253.2     -3.67515   1.19406   2.03081  -0.97343

sTD-DFT done

Total run time:        1.990 sec

           *** ORCA-CIS/TD-DFT FINISHED WITHOUT ERROR ***

-------------------------   --------------------
FINAL SINGLE POINT ENERGY     -5184.036490866901
-------------------------   --------------------


                            ***************************************
                            *     ORCA property calculations      *
                            ***************************************

                                    ---------------------
                                    Active property flags
                                    ---------------------
   (+) Dipole Moment


------------------------------------------------------------------------------
                       ORCA ELECTRIC PROPERTIES CALCULATION
------------------------------------------------------------------------------

Dipole Moment Calculation                       ... on
Quadrupole Moment Calculation                   ... off
Polarizability Calculation                      ... off
GBWName                                         ... xtbopt.gbw
Electron density file                           ... xtbopt.scfp
The origin for moment calculation is the CENTER OF MASS  = (17.050638, -12.154813 -12.460944)

-------------
DIPOLE MOMENT
-------------
                                X             Y             Z
Electronic contribution:    -27.82410      57.92673      -5.21645
Nuclear contribution   :     28.47311     -58.66783       3.55661
                        -----------------------------------------
Total Dipole Moment    :      0.64901      -0.74110      -1.65984
                        -----------------------------------------
Magnitude (a.u.)       :      1.93016
Magnitude (Debye)      :      4.90607



--------------------
Rotational spectrum 
--------------------
 
Rotational constants in cm-1:     0.001512     0.000335     0.000287 
Rotational constants in MHz :    45.321768    10.039617     8.605691 

 Dipole components along the rotational axes: 
x,y,z [a.u.] :    -1.486598    -1.229511    -0.061983 
x,y,z [Debye]:    -3.778633    -3.125169    -0.157548 

 

Timings for individual modules:

Sum of individual times         ...      395.160 sec (=   6.586 min)
GTO integral calculation        ...        3.617 sec (=   0.060 min)   0.9 %
SCF iterations                  ...      388.803 sec (=   6.480 min)  98.4 %
CIS module                      ...        2.740 sec (=   0.046 min)   0.7 %
                             ****ORCA TERMINATED NORMALLY****
TOTAL RUN TIME: 0 days 0 hours 6 minutes 36 seconds 99 msec
