
                                 *****************
                                 * O   R   C   A *
                                 *****************

           --- An Ab Initio, DFT and Semiempirical electronic structure package ---

                  #######################################################
                  #                        -***-                        #
                  #          Department of theory and spectroscopy      #
                  #               Directorship: Frank Neese             #
                  #        Max Planck Institute fuer Kohlenforschung    #
                  #                Kaiser Wilhelm Platz 1               #
                  #                 D-45470 Muelheim/Ruhr               #
                  #                      Germany                        #
                  #                                                     #
                  #                  All rights reserved                #
                  #                        -***-                        #
                  #######################################################


                         Program Version 4.2.0 -  RELEASE  -


 With contributions from (in alphabetic order):
   Daniel Aravena         : Magnetic Suceptibility
   Michael Atanasov       : Ab Initio Ligand Field Theory (pilot matlab implementation)
   Alexander A. Auer      : GIAO ZORA, VPT2
   Ute Becker             : Parallelization
   Giovanni Bistoni       : ED, misc. LED, open-shell LED, HFLED
   Martin Brehm           : Molecular dynamics
   Dmytro Bykov           : SCF Hessian
   Vijay G. Chilkuri      : MRCI spin determinant printing, contributions to CSF-ICE
   Dipayan Datta          : RHF DLPNO-CCSD density
   Achintya Kumar Dutta   : EOM-CC, STEOM-CC
   Dmitry Ganyushin       : Spin-Orbit,Spin-Spin,Magnetic field MRCI
   Miquel Garcia          : C-PCM Hessian, Gaussian charge scheme
   Yang Guo               : DLPNO-NEVPT2, CIM, IAO-localization
   Andreas Hansen         : Spin unrestricted coupled pair/coupled cluster methods
   Benjamin Helmich-Paris : CASSCF linear response (MC-RPA)
   Lee Huntington         : MR-EOM, pCC
   Robert Izsak           : Overlap fitted RIJCOSX, COSX-SCS-MP3, EOM
   Christian Kollmar      : KDIIS, OOCD, Brueckner-CCSD(T), CCSD density
   Simone Kossmann        : Meta GGA functionals, TD-DFT gradient, OOMP2, MP2 Hessian
   Martin Krupicka        : AUTO-CI
   Lucas Lang             : DCDCAS
   Dagmar Lenk            : GEPOL surface, SMD
   Dimitrios Liakos       : Extrapolation schemes; Compound Job, initial MDCI parallelization
   Dimitrios Manganas     : Further ROCIS development; embedding schemes
   Dimitrios Pantazis     : SARC Basis sets
   Taras Petrenko         : DFT Hessian,TD-DFT gradient, ASA, ECA, R-Raman, ABS, FL, XAS/XES, NRVS
   Peter Pinski           : DLPNO-MP2, DLPNO-MP2 Gradient
   Christoph Reimann      : Effective Core Potentials
   Marius Retegan         : Local ZFS, SOC
   Christoph Riplinger    : Optimizer, TS searches, QM/MM, DLPNO-CCSD(T), (RO)-DLPNO pert. Triples
   Tobias Risthaus        : Range-separated hybrids, TD-DFT gradient, RPA, STAB
   Michael Roemelt        : Original ROCIS implementation
   Masaaki Saitow         : Open-shell DLPNO-CCSD energy and density
   Barbara Sandhoefer     : DKH picture change effects
   Avijit Sen             : IP-ROCIS
   Kantharuban Sivalingam : CASSCF convergence, NEVPT2, FIC-MRCI
   Bernardo de Souza      : ESD, SOC TD-DFT
   Georgi Stoychev        : AutoAux, RI-MP2 NMR
   Willem Van den Heuvel  : Paramagnetic NMR
   Boris Wezisla          : Elementary symmetry handling
   Frank Wennmohs         : Technical directorship


 We gratefully acknowledge several colleagues who have allowed us to
 interface, adapt or use parts of their codes:
   Stefan Grimme, W. Hujo, H. Kruse,             : VdW corrections, initial TS optimization,
                  C. Bannwarth                     DFT functionals, gCP, sTDA/sTD-DF
   Ed Valeev, F. Pavosevic, A. Kumar             : LibInt (2-el integral package), F12 methods
   Garnet Chan, S. Sharma, J. Yang, R. Olivares  : DMRG
   Ulf Ekstrom                                   : XCFun DFT Library
   Mihaly Kallay                                 : mrcc  (arbitrary order and MRCC methods)
   Andreas Klamt, Michael Diedenhofen            : otool_cosmo (COSMO solvation model)
   Jiri Pittner, Ondrej Demel                    : Mk-CCSD
   Frank Weinhold                                : gennbo (NPA and NBO analysis)
   Christopher J. Cramer and Donald G. Truhlar   : smd solvation model
   Lars Goerigk                                  : TD-DFT with DH, B97 family of functionals
   V. Asgeirsson, H. Jonsson                     : NEB implementation
   FAccTs GmbH                                   : IRC, NEB, NEB-TS, Multilevel, MM, QM/MM, CI optimization
   S Lehtola, MJT Oliveira, MAL Marques          : LibXC Library


 Your calculation uses the libint2 library for the computation of 2-el integrals
 For citations please refer to: http://libint.valeyev.net

 Your ORCA version has been built with support for libXC version: 4.2.3
 For citations please refer to: https://tddft.org/programs/libxc/

 This ORCA versions uses:
   CBLAS   interface :  Fast vector & matrix operations
   LAPACKE interface :  Fast linear algebra routines
   SCALAPACK package :  Parallel linear algebra routines


XCFun DFT library Copyright 2009-2010 Ulf Ekstrom and contributors.
See http://admol.org/xcfun for more information. This is free soft-
ware; see the source code for copying conditions. There is ABSOLUTELY
NO WARRANTY; not even for MERCHANTABILITY or FITNESS FOR A PARTICULAR
PURPOSE. For details see the documentation. Scientific users of this 
library should cite U. Ekstrom, L. Visscher, R. Bast, A. J. Thorvald-
sen and K. Ruud; J.Chem.Theor.Comp. 2010, DOI: 10.1021/ct100117s
XCFun Version 0.99 
----- Orbital basis set information -----
Your calculation utilizes the basis: def2-SVP
   F. Weigend and R. Ahlrichs, Phys. Chem. Chem. Phys. 7, 3297 (2005).

----- AuxJ basis set information -----
Your calculation utilizes the auxiliary basis: def2/J
   F. Weigend, Phys. Chem. Chem. Phys. 8, 1057 (2006).

================================================================================
                                        WARNINGS
                       Please study these warnings very carefully!
================================================================================


WARNING: your system is open-shell and RHF/RKS was chosen
  ===> : WILL SWITCH to UHF/UKS

INFO   : Checking CIS options ...

WARNING: CIS/ROCIS methods need fully converged wavefunctions
  ===> : Setting SCFConvForced true
         You can overwrite this default with %scf ConvForced false 


INFO   : the flag for use of LIBINT has been found!

================================================================================
                                       INPUT FILE
================================================================================
NAME = xtbopt.inp
|  1> # ORCA input file
|  2> # SCF done       -144.697638824465          0.000683038421
|  3> ! CAM-B3LYP def2-SVP def2/J RIJCOSX Grid4 TightSCF
|  4> %maxcore 5000
|  5> %tddft
|  6>     Mode sTDDFT
|  7>     Ethresh 5.0
|  8>     maxcore 5000
|  9> end
| 10> 
| 11> %pal
| 12>   nprocs 6
| 13>   end
| 14> * xyz 0 2
| 15>    C        2.13424        -5.23876        -4.65554
| 16>    C        1.23962        -5.93749        -5.40162
| 17>    S       -0.06722        -4.92892        -5.91736
| 18>    C        0.61031        -3.53392        -5.10629
| 19>   Cl       -0.16401        -2.02672        -5.15504
| 20>    C        1.77592        -3.86459        -4.48619
| 21>    C        2.79085        -3.18836        -3.67315
| 22>    O        2.76905        -2.01016        -3.34942
| 23>    C        3.78619        -4.22258        -3.35206
| 24>    C        3.38336        -5.47475        -3.95631
| 25>    C        4.00934        -6.70214        -3.93100
| 26>    C        3.46042        -7.81695        -4.59323
| 27>    N        3.06190        -8.75994        -5.11482
| 28>    C        5.21421        -7.05772        -3.30172
| 29>    N        6.18107        -7.47687        -2.83632
| 30>    C        4.94693        -4.13913        -2.59919
| 31>    C        5.63148        -3.14170        -1.91646
| 32>    S        7.11044        -3.71466        -1.12391
| 33>    C        7.55385        -2.16004        -0.48119
| 34>    C        6.58612        -1.21996        -0.86410
| 35>    C        5.52981        -1.76753        -1.65353
| 36>    N        4.67550        -0.77672        -1.96130
| 37>    C        5.13708         0.38919        -1.39790
| 38>    C        4.45803         1.60765        -1.54052
| 39>    N        3.92000         2.61531        -1.64630
| 40>    C        6.31635         0.15614        -0.71332
| 41>    C        8.71686        -1.97891         0.28301
| 42>    S        9.15905        -0.41341         0.94227
| 43>    C       10.59854        -1.04909         1.66791
| 44>    C       10.72947        -2.36753         1.42214
| 45>    C        9.68169        -2.92326         0.64212
| 46>    C        9.80408        -4.31128         0.37123
| 47>    C       10.89930        -4.92070         0.88644
| 48>    S       11.88453        -3.69853         1.79292
| 49>    O       13.14444        -3.47220         1.14389
| 50>    O       11.89803        -3.98807         3.19853
| 51>    C       11.30274        -6.27704         0.79044
| 52>    C       10.59590        -7.19325         0.09206
| 53>    C       10.88260        -8.59232        -0.09314
| 54>    C       10.01865        -9.33590        -0.89244
| 55>    C       10.24997       -10.70184        -1.11092
| 56>    C       11.38555       -11.25873        -0.47884
| 57>    N       12.20040       -10.56286         0.27834
| 58>    C       11.97315        -9.27682         0.47438
| 59>    C        9.38202       -11.46387        -1.92808
| 60>    S        9.61558       -13.14868        -2.23246
| 61>    C        8.22704       -13.34686        -3.27997
| 62>    C        7.47361       -12.22747        -3.49809
| 63>    S        8.00064       -10.76329        -2.70554
| 64>    C        6.25542       -12.14197        -4.34110
| 65>    O        5.83525       -13.08835        -4.96559
| 66>    C        5.60021       -10.79324        -4.35587
| 67>    C        7.96718       -14.65459        -3.83068
| 68>    C        8.73293       -15.71953        -3.60875
| 69>    H        1.24611        -6.96990        -5.68889
| 70>    H        5.46480        -5.08919        -2.51602
| 71>    H        3.82527        -0.92392        -2.50690
| 72>    H        6.89641         0.88266        -0.18199
| 73>    H       11.24093        -0.39643         2.22362
| 74>    H        9.06214        -4.83341        -0.20860
| 75>    H       12.21565        -6.53216         1.30795
| 76>    H        9.69443        -6.86498        -0.40897
| 77>    H        9.16241        -8.85998        -1.35110
| 78>    H       11.62511       -12.30661        -0.60367
| 79>    H       12.68462        -8.77041         1.10929
| 80>    H        6.28684       -10.04334        -4.74633
| 81>    H        5.32485       -10.49302        -3.34607
| 82>    H        4.70855       -10.82029        -4.97684
| 83>    H        7.08824       -14.71713        -4.45616
| 84>    H        9.61649       -15.67577        -2.99132
| 85>    H        8.49507       -16.67377        -4.04359
| 86> *
| 87> 
| 88>                          ****END OF INPUT****
================================================================================

                       ****************************
                       * Single Point Calculation *
                       ****************************

---------------------------------
CARTESIAN COORDINATES (ANGSTROEM)
---------------------------------
  C      2.134240   -5.238760   -4.655540
  C      1.239620   -5.937490   -5.401620
  S     -0.067220   -4.928920   -5.917360
  C      0.610310   -3.533920   -5.106290
  Cl    -0.164010   -2.026720   -5.155040
  C      1.775920   -3.864590   -4.486190
  C      2.790850   -3.188360   -3.673150
  O      2.769050   -2.010160   -3.349420
  C      3.786190   -4.222580   -3.352060
  C      3.383360   -5.474750   -3.956310
  C      4.009340   -6.702140   -3.931000
  C      3.460420   -7.816950   -4.593230
  N      3.061900   -8.759940   -5.114820
  C      5.214210   -7.057720   -3.301720
  N      6.181070   -7.476870   -2.836320
  C      4.946930   -4.139130   -2.599190
  C      5.631480   -3.141700   -1.916460
  S      7.110440   -3.714660   -1.123910
  C      7.553850   -2.160040   -0.481190
  C      6.586120   -1.219960   -0.864100
  C      5.529810   -1.767530   -1.653530
  N      4.675500   -0.776720   -1.961300
  C      5.137080    0.389190   -1.397900
  C      4.458030    1.607650   -1.540520
  N      3.920000    2.615310   -1.646300
  C      6.316350    0.156140   -0.713320
  C      8.716860   -1.978910    0.283010
  S      9.159050   -0.413410    0.942270
  C     10.598540   -1.049090    1.667910
  C     10.729470   -2.367530    1.422140
  C      9.681690   -2.923260    0.642120
  C      9.804080   -4.311280    0.371230
  C     10.899300   -4.920700    0.886440
  S     11.884530   -3.698530    1.792920
  O     13.144440   -3.472200    1.143890
  O     11.898030   -3.988070    3.198530
  C     11.302740   -6.277040    0.790440
  C     10.595900   -7.193250    0.092060
  C     10.882600   -8.592320   -0.093140
  C     10.018650   -9.335900   -0.892440
  C     10.249970  -10.701840   -1.110920
  C     11.385550  -11.258730   -0.478840
  N     12.200400  -10.562860    0.278340
  C     11.973150   -9.276820    0.474380
  C      9.382020  -11.463870   -1.928080
  S      9.615580  -13.148680   -2.232460
  C      8.227040  -13.346860   -3.279970
  C      7.473610  -12.227470   -3.498090
  S      8.000640  -10.763290   -2.705540
  C      6.255420  -12.141970   -4.341100
  O      5.835250  -13.088350   -4.965590
  C      5.600210  -10.793240   -4.355870
  C      7.967180  -14.654590   -3.830680
  C      8.732930  -15.719530   -3.608750
  H      1.246110   -6.969900   -5.688890
  H      5.464800   -5.089190   -2.516020
  H      3.825270   -0.923920   -2.506900
  H      6.896410    0.882660   -0.181990
  H     11.240930   -0.396430    2.223620
  H      9.062140   -4.833410   -0.208600
  H     12.215650   -6.532160    1.307950
  H      9.694430   -6.864980   -0.408970
  H      9.162410   -8.859980   -1.351100
  H     11.625110  -12.306610   -0.603670
  H     12.684620   -8.770410    1.109290
  H      6.286840  -10.043340   -4.746330
  H      5.324850  -10.493020   -3.346070
  H      4.708550  -10.820290   -4.976840
  H      7.088240  -14.717130   -4.456160
  H      9.616490  -15.675770   -2.991320
  H      8.495070  -16.673770   -4.043590

----------------------------
CARTESIAN COORDINATES (A.U.)
----------------------------
  NO LB      ZA    FRAG     MASS         X           Y           Z
   0 C     6.0000    0    12.011    4.033129   -9.899822   -8.797696
   1 C     6.0000    0    12.011    2.342542  -11.220230  -10.207582
   2 S    16.0000    0    32.060   -0.127027   -9.314309  -11.182190
   3 C     6.0000    0    12.011    1.153319   -6.678141   -9.649490
   4 Cl   17.0000    0    35.453   -0.309934   -3.829946   -9.741614
   5 C     6.0000    0    12.011    3.356002   -7.303017   -8.477670
   6 C     6.0000    0    12.011    5.273942   -6.025127   -6.941248
   7 O     8.0000    0    15.999    5.232746   -3.798652   -6.329487
   8 C     6.0000    0    12.011    7.154862   -7.979520   -6.334475
   9 C     6.0000    0    12.011    6.393624  -10.345778   -7.476342
  10 C     6.0000    0    12.011    7.576555  -12.665209   -7.428513
  11 C     6.0000    0    12.011    6.539246  -14.771895   -8.679947
  12 N     7.0000    0    14.007    5.786152  -16.553888   -9.665609
  13 C     6.0000    0    12.011    9.853429  -13.337158   -6.239347
  14 N     7.0000    0    14.007   11.680530  -14.129237   -5.359868
  15 C     6.0000    0    12.011    9.348343   -7.821822   -4.911757
  16 C     6.0000    0    12.011   10.641955   -5.936953   -3.621585
  17 S    16.0000    0    32.060   13.436784   -7.019690   -2.123882
  18 C     6.0000    0    12.011   14.274708   -4.081884   -0.909317
  19 C     6.0000    0    12.011   12.445963   -2.305390   -1.632912
  20 C     6.0000    0    12.011   10.449826   -3.340148   -3.124719
  21 N     7.0000    0    14.007    8.835415   -1.467788   -3.706320
  22 C     6.0000    0    12.011    9.707674    0.735463   -2.641648
  23 C     6.0000    0    12.011    8.424456    3.038018   -2.911161
  24 N     7.0000    0    14.007    7.407726    4.942220   -3.111056
  25 C     6.0000    0    12.011   11.936172    0.295062   -1.347979
  26 C     6.0000    0    12.011   16.472478   -3.739598    0.534811
  27 S    16.0000    0    32.060   17.308096   -0.781232    1.780632
  28 C     6.0000    0    12.011   20.028338   -1.982493    3.151893
  29 C     6.0000    0    12.011   20.275760   -4.473983    2.687455
  30 C     6.0000    0    12.011   18.295743   -5.524161    1.213431
  31 C     6.0000    0    12.011   18.527026   -8.147138    0.701523
  32 C     6.0000    0    12.011   20.596692   -9.298775    1.675129
  33 S    16.0000    0    32.060   22.458507   -6.989209    3.388128
  34 O     8.0000    0    15.999   24.839392   -6.561507    2.161639
  35 O     8.0000    0    15.999   22.484018   -7.536360    6.044346
  36 C     6.0000    0    12.011   21.359083  -11.861887    1.493715
  37 C     6.0000    0    12.011   20.023349  -13.593273    0.173968
  38 C     6.0000    0    12.011   20.565134  -16.237132   -0.176009
  39 C     6.0000    0    12.011   18.932505  -17.642294   -1.686467
  40 C     6.0000    0    12.011   19.369636  -20.223547   -2.099335
  41 C     6.0000    0    12.011   21.515571  -21.275916   -0.904876
  42 N     7.0000    0    14.007   23.055415  -19.960913    0.525986
  43 C     6.0000    0    12.011   22.625974  -17.530649    0.896448
  44 C     6.0000    0    12.011   17.729448  -21.663575   -3.643543
  45 S    16.0000    0    32.060   18.170813  -24.847404   -4.218738
  46 C     6.0000    0    12.011   15.546852  -25.221910   -6.198245
  47 C     6.0000    0    12.011   14.123076  -23.106570   -6.610432
  48 S    16.0000    0    32.060   15.119018  -20.339670   -5.112730
  49 C     6.0000    0    12.011   11.821031  -22.944998   -8.203490
  50 O     8.0000    0    15.999   11.027024  -24.733397   -9.383605
  51 C     6.0000    0    12.011   10.582863  -20.396268   -8.231401
  52 C     6.0000    0    12.011   15.055788  -27.693162   -7.238936
  53 C     6.0000    0    12.011   16.502846  -29.705607   -6.819549
  54 H     1.0000    0     1.008    2.354807  -13.171202  -10.750444
  55 H     1.0000    0     1.008   10.326975   -9.617175   -4.754589
  56 H     1.0000    0     1.008    7.228713   -1.745956   -4.737354
  57 H     1.0000    0     1.008   13.032326    1.667986   -0.343911
  58 H     1.0000    0     1.008   21.242279   -0.749144    4.202033
  59 H     1.0000    0     1.008   17.124963   -9.133821   -0.394197
  60 H     1.0000    0     1.008   23.084233  -12.343993    2.471667
  61 H     1.0000    0     1.008   18.319818  -12.972932   -0.772841
  62 H     1.0000    0     1.008   17.314446  -16.742936   -2.553209
  63 H     1.0000    0     1.008   21.968274  -23.256123   -1.140771
  64 H     1.0000    0     1.008   23.970458  -16.573673    2.096254
  65 H     1.0000    0     1.008   11.880406  -18.979162   -8.969264
  66 H     1.0000    0     1.008   10.062508  -19.828934   -6.323156
  67 H     1.0000    0     1.008    8.897870  -20.447385   -9.404865
  68 H     1.0000    0     1.008   13.394832  -27.811345   -8.420922
  69 H     1.0000    0     1.008   18.172532  -29.622912   -5.652776
  70 H     1.0000    0     1.008   16.053356  -31.508859   -7.641278

--------------------------------
INTERNAL COORDINATES (ANGSTROEM)
--------------------------------
 C      0   0   0     0.000000000000     0.00000000     0.00000000
 C      1   0   0     1.358382833998     0.00000000     0.00000000
 S      2   1   0     1.729460025008   111.19050613     0.00000000
 C      3   2   1     1.750116123519    91.95451017   359.97077410
 Cl     4   3   2     1.695169568185   121.23446071   179.96647399
 C      4   3   2     1.361070656138   110.42787067     0.04381701
 C      6   4   3     1.465743483492   137.19124897   179.96980605
 O      7   6   4     1.222060388401   125.40745802     0.15967369
 C      7   6   4     1.470854007745   105.38284989   179.84797835
 C      9   7   6     1.447521944670   109.19601028     0.19187400
 C     10   9   7     1.378034023020   129.52370435   179.42776185
 C     11  10   9     1.408070692615   121.29563601   180.36184843
 N     12  11  10     1.148957988179   176.88442078   178.65490720
 C     11  10   9     1.405041697495   128.54830377     0.11792486
 N     14  11  10     1.151999193620   173.08969230   180.29561264
 C      9   7   6     1.386035528765   130.01253232   180.74281365
 C     16   9   7     1.389098830285   136.29436760   358.05942386
 S     17  16   9     1.773059882153   113.49825123   179.87475375
 C     18  17  16     1.739696746821    95.10440419   179.26692927
 C     19  18  17     1.402452076686   108.79962634     0.10977826
 C     17  16   9     1.402787283482   139.44640546   359.01622567
 N     21  17  16     1.343976340975   136.49644322     0.47025399
 C     22  21  17     1.374707890608   108.53993765   180.31087382
 C     23  22  21     1.402174788855   122.18822065   180.05710663
 N     24  23  22     1.147189768478   178.83667072   185.43750259
 C     23  22  21     1.383343707037   110.25308077     0.18729330
 C     19  18  17     1.403353831719   121.85330926   180.29020279
 S     27  19  18     1.755262371755   121.89887572   180.47164527
 C     28  27  19     1.732851387771    92.25647501   180.23131892
 C     29  28  27     1.347527213603   111.30060059   359.97580245
 C     27  19  18     1.397016049836   128.68860060     0.69926992
 C     31  27  19     1.419492946302   132.18145478   359.90844034
 C     32  31  27     1.355116573915   115.90474815   179.69292669
 S     30  29  28     1.800889339188   138.40825013   179.66207919
 O     34  30  29     1.435213718545   110.69446433   293.82194747
 O     34  30  29     1.435184703688   110.90272752    66.51178989
 C     33  32  31     1.418322258586   129.36255651   180.17991017
 C     37  33  32     1.351590978847   122.30778916     1.47400602
 C     38  37  33     1.440101661307   128.38164187   179.89859412
 C     39  38  37     1.392192985509   117.98100568   181.72974287
 C     40  39  38     1.402510084242   120.48182666   179.84175459
 C     41  40  39     1.413928405154   116.51394126     0.19873664
 N     42  41  40     1.312073599994   123.22123768     0.00000000
 C     43  42  41     1.320595746510   119.68816168   359.87902237
 C     41  40  39     1.414841824728   120.88690777   180.37963736
 S     45  41  40     1.727941606102   122.95447883   180.03787891
 C     46  45  41     1.750598710185    96.23312578   180.61700290
 C     47  46  45     1.366845664806   116.10331130   359.73756797
 S     45  41  40     1.733051381927   122.02911182     0.27831950
 C     48  47  46     1.483901272390   126.18256362   180.07372798
 O     50  48  47     1.209200435577   122.24622497   357.49910545
 C     50  48  47     1.499530229739   114.59005268   177.72491606
 C     47  46  45     1.442555536747   118.29057469   180.02628850
 C     53  47  46     1.330309434305   123.93990209   358.84711339
 H      2   1   3     1.071651333737   129.70172317   180.04839704
 H     16   9   7     1.085228358181   112.86442114   178.25692603
 H     22  21  17     1.020900706680   123.05733641     1.71312099
 H     26  23  22     1.070799926644   126.37346130   179.82951466
 H     29  28  27     1.071187934865   119.46578876   179.99183552
 H     32  31  27     1.076706798251   121.16713828   359.59623693
 H     37  33  32     1.079957167021   115.71683276   181.18972695
 H     38  37  33     1.082331009765   117.98069730     0.21056707
 H     40  39  38     1.081672676737   119.97901672   359.92348130
 H     42  41  40     1.082138631091   120.50536402   180.01152156
 H     44  43  42     1.079699660600   115.50920965   179.92327411
 H     52  50  48     1.089160125280   110.32497604    60.58839838
 H     52  50  48     1.088876126104   110.44756293   301.78075521
 H     52  50  48     1.086919039763   109.98000415   181.15513617
 H     53  47  46     1.080588731017   114.83235934   179.07144551
 H     54  53  47     1.078801657442   122.30661711   359.94515342
 H     54  53  47     1.075284698487   121.03836868   179.99505365

---------------------------
INTERNAL COORDINATES (A.U.)
---------------------------
 C      0   0   0     0.000000000000     0.00000000     0.00000000
 C      1   0   0     2.566971541276     0.00000000     0.00000000
 S      2   1   0     3.268205806829   111.19050613     0.00000000
 C      3   2   1     3.307240176010    91.95451017   359.97077410
 Cl     4   3   2     3.203406234427   121.23446071   179.96647399
 C      4   3   2     2.572050789017   110.42787067     0.04381701
 C      6   4   3     2.769853766380   137.19124897   179.96980605
 O      7   6   4     2.309359453192   125.40745802     0.15967369
 C      7   6   4     2.779511257619   105.38284989   179.84797835
 C      9   7   6     2.735420048267   109.19601028     0.19187400
 C     10   9   7     2.604106906733   129.52370435   179.42776185
 C     11  10   9     2.660867986242   121.29563601   180.36184843
 N     12  11  10     2.171215937039   176.88442078   178.65490720
 C     11  10   9     2.655144015006   128.54830377     0.11792486
 N     14  11  10     2.176962982439   173.08969230   180.29561264
 C      9   7   6     2.619227561251   130.01253232   180.74281365
 C     16   9   7     2.625016362190   136.29436760   358.05942386
 S     17  16   9     3.350597596312   113.49825123   179.87475375
 C     18  17  16     3.287550407566    95.10440419   179.26692927
 C     19  18  17     2.650250340885   108.79962634     0.10977826
 C     17  16   9     2.650883789929   139.44640546   359.01622567
 N     21  17  16     2.539747214912   136.49644322     0.47025399
 C     22  21  17     2.597821427390   108.53993765   180.31087382
 C     23  22  21     2.649726342824   122.18822065   180.05710663
 N     24  23  22     2.167874486059   178.83667072   185.43750259
 C     23  22  21     2.614140755384   110.25308077     0.18729330
 C     19  18  17     2.651954410938   121.85330926   180.29020279
 S     27  19  18     3.316965175795   121.89887572   180.47164527
 C     28  27  19     3.274614553673    92.25647501   180.23131892
 C     29  28  27     2.546457391715   111.30060059   359.97580245
 C     27  19  18     2.639977738883   128.68860060     0.69926992
 C     31  27  19     2.682452917543   132.18145478   359.90844034
 C     32  31  27     2.560799204238   115.90474815   179.69292669
 S     30  29  28     3.403187648563   138.40825013   179.66207919
 O     34  30  29     2.712160871697   110.69446433   293.82194747
 O     34  30  29     2.712106041563   110.90272752    66.51178989
 C     33  32  31     2.680240638372   129.36255651   180.17991017
 C     37  33  32     2.554136795099   122.30778916     1.47400602
 C     38  37  33     2.721397744876   128.38164187   179.89859412
 C     39  38  37     2.630863468178   117.98100568   181.72974287
 C     40  39  38     2.650359959280   120.48182666   179.84175459
 C     41  40  39     2.671937458712   116.51394126     0.19873664
 N     42  41  40     2.479459771536   123.22123768     0.00000000
 C     43  42  41     2.495564294525   119.68816168   359.87902237
 C     41  40  39     2.673663571554   120.88690777   180.37963736
 S     45  41  40     3.265336410942   122.95447883   180.03787891
 C     46  45  41     3.308152132645    96.23312578   180.61700290
 C     47  46  45     2.582963973822   116.10331130   359.73756797
 S     45  41  40     3.274992487856   122.02911182     0.27831950
 C     48  47  46     2.804167014594   126.18256362   180.07372798
 O     50  48  47     2.285057664259   122.24622497   357.49910545
 C     50  48  47     2.833701463742   114.59005268   177.72491606
 C     47  46  45     2.726034897424   118.29057469   180.02628850
 C     53  47  46     2.513920504208   123.93990209   358.84711339
 H      2   1   3     2.025127531814   129.70172317   180.04839704
 H     16   9   7     2.050784389727   112.86442114   178.25692603
 H     22  21  17     1.929222745552   123.05733641     1.71312099
 H     26  23  22     2.023518605579   126.37346130   179.82951466
 H     29  28  27     2.024251834855   119.46578876   179.99183552
 H     32  31  27     2.034680975226   121.16713828   359.59623693
 H     37  33  32     2.040823282035   115.71683276   181.18972695
 H     38  37  33     2.045309194707   117.98069730     0.21056707
 H     40  39  38     2.044065125579   119.97901672   359.92348130
 H     42  41  40     2.044945651699   120.50536402   180.01152156
 H     44  43  42     2.040336665422   115.50920965   179.92327411
 H     52  50  48     2.058214352767   110.32497604    60.58839838
 H     52  50  48     2.057677672102   110.44756293   301.78075521
 H     52  50  48     2.053979314897   109.98000415   181.15513617
 H     53  47  46     2.042016765023   114.83235934   179.07144551
 H     54  53  47     2.038639685386   122.30661711   359.94515342
 H     54  53  47     2.031993596136   121.03836868   179.99505365

---------------------
BASIS SET INFORMATION
---------------------
There are 6 groups of distinct atoms

 Group   1 Type C   : 7s4p1d contracted to 3s2p1d pattern {511/31/1}
 Group   2 Type S   : 10s7p1d contracted to 4s3p1d pattern {5311/511/1}
 Group   3 Type Cl  : 10s7p1d contracted to 4s3p1d pattern {5311/511/1}
 Group   4 Type O   : 7s4p1d contracted to 3s2p1d pattern {511/31/1}
 Group   5 Type N   : 7s4p1d contracted to 3s2p1d pattern {511/31/1}
 Group   6 Type H   : 4s1p contracted to 2s1p pattern {31/1}

Atom   0C    basis set group =>   1
Atom   1C    basis set group =>   1
Atom   2S    basis set group =>   2
Atom   3C    basis set group =>   1
Atom   4Cl   basis set group =>   3
Atom   5C    basis set group =>   1
Atom   6C    basis set group =>   1
Atom   7O    basis set group =>   4
Atom   8C    basis set group =>   1
Atom   9C    basis set group =>   1
Atom  10C    basis set group =>   1
Atom  11C    basis set group =>   1
Atom  12N    basis set group =>   5
Atom  13C    basis set group =>   1
Atom  14N    basis set group =>   5
Atom  15C    basis set group =>   1
Atom  16C    basis set group =>   1
Atom  17S    basis set group =>   2
Atom  18C    basis set group =>   1
Atom  19C    basis set group =>   1
Atom  20C    basis set group =>   1
Atom  21N    basis set group =>   5
Atom  22C    basis set group =>   1
Atom  23C    basis set group =>   1
Atom  24N    basis set group =>   5
Atom  25C    basis set group =>   1
Atom  26C    basis set group =>   1
Atom  27S    basis set group =>   2
Atom  28C    basis set group =>   1
Atom  29C    basis set group =>   1
Atom  30C    basis set group =>   1
Atom  31C    basis set group =>   1
Atom  32C    basis set group =>   1
Atom  33S    basis set group =>   2
Atom  34O    basis set group =>   4
Atom  35O    basis set group =>   4
Atom  36C    basis set group =>   1
Atom  37C    basis set group =>   1
Atom  38C    basis set group =>   1
Atom  39C    basis set group =>   1
Atom  40C    basis set group =>   1
Atom  41C    basis set group =>   1
Atom  42N    basis set group =>   5
Atom  43C    basis set group =>   1
Atom  44C    basis set group =>   1
Atom  45S    basis set group =>   2
Atom  46C    basis set group =>   1
Atom  47C    basis set group =>   1
Atom  48S    basis set group =>   2
Atom  49C    basis set group =>   1
Atom  50O    basis set group =>   4
Atom  51C    basis set group =>   1
Atom  52C    basis set group =>   1
Atom  53C    basis set group =>   1
Atom  54H    basis set group =>   6
Atom  55H    basis set group =>   6
Atom  56H    basis set group =>   6
Atom  57H    basis set group =>   6
Atom  58H    basis set group =>   6
Atom  59H    basis set group =>   6
Atom  60H    basis set group =>   6
Atom  61H    basis set group =>   6
Atom  62H    basis set group =>   6
Atom  63H    basis set group =>   6
Atom  64H    basis set group =>   6
Atom  65H    basis set group =>   6
Atom  66H    basis set group =>   6
Atom  67H    basis set group =>   6
Atom  68H    basis set group =>   6
Atom  69H    basis set group =>   6
Atom  70H    basis set group =>   6
---------------------------------
AUXILIARY/J BASIS SET INFORMATION
---------------------------------
There are 6 groups of distinct atoms

 Group   1 Type C   : 12s5p4d2f1g contracted to 6s4p3d1f1g pattern {711111/2111/211/2/1}
 Group   2 Type S   : 14s5p5d2f1g contracted to 8s4p3d1f1g pattern {71111111/2111/311/2/1}
 Group   3 Type Cl  : 14s5p5d2f1g contracted to 8s4p3d1f1g pattern {71111111/2111/311/2/1}
 Group   4 Type O   : 12s5p4d2f1g contracted to 6s4p3d1f1g pattern {711111/2111/211/2/1}
 Group   5 Type N   : 12s5p4d2f1g contracted to 6s4p3d1f1g pattern {711111/2111/211/2/1}
 Group   6 Type H   : 5s2p1d contracted to 3s1p1d pattern {311/2/1}

Atom   0C    basis set group =>   1
Atom   1C    basis set group =>   1
Atom   2S    basis set group =>   2
Atom   3C    basis set group =>   1
Atom   4Cl   basis set group =>   3
Atom   5C    basis set group =>   1
Atom   6C    basis set group =>   1
Atom   7O    basis set group =>   4
Atom   8C    basis set group =>   1
Atom   9C    basis set group =>   1
Atom  10C    basis set group =>   1
Atom  11C    basis set group =>   1
Atom  12N    basis set group =>   5
Atom  13C    basis set group =>   1
Atom  14N    basis set group =>   5
Atom  15C    basis set group =>   1
Atom  16C    basis set group =>   1
Atom  17S    basis set group =>   2
Atom  18C    basis set group =>   1
Atom  19C    basis set group =>   1
Atom  20C    basis set group =>   1
Atom  21N    basis set group =>   5
Atom  22C    basis set group =>   1
Atom  23C    basis set group =>   1
Atom  24N    basis set group =>   5
Atom  25C    basis set group =>   1
Atom  26C    basis set group =>   1
Atom  27S    basis set group =>   2
Atom  28C    basis set group =>   1
Atom  29C    basis set group =>   1
Atom  30C    basis set group =>   1
Atom  31C    basis set group =>   1
Atom  32C    basis set group =>   1
Atom  33S    basis set group =>   2
Atom  34O    basis set group =>   4
Atom  35O    basis set group =>   4
Atom  36C    basis set group =>   1
Atom  37C    basis set group =>   1
Atom  38C    basis set group =>   1
Atom  39C    basis set group =>   1
Atom  40C    basis set group =>   1
Atom  41C    basis set group =>   1
Atom  42N    basis set group =>   5
Atom  43C    basis set group =>   1
Atom  44C    basis set group =>   1
Atom  45S    basis set group =>   2
Atom  46C    basis set group =>   1
Atom  47C    basis set group =>   1
Atom  48S    basis set group =>   2
Atom  49C    basis set group =>   1
Atom  50O    basis set group =>   4
Atom  51C    basis set group =>   1
Atom  52C    basis set group =>   1
Atom  53C    basis set group =>   1
Atom  54H    basis set group =>   6
Atom  55H    basis set group =>   6
Atom  56H    basis set group =>   6
Atom  57H    basis set group =>   6
Atom  58H    basis set group =>   6
Atom  59H    basis set group =>   6
Atom  60H    basis set group =>   6
Atom  61H    basis set group =>   6
Atom  62H    basis set group =>   6
Atom  63H    basis set group =>   6
Atom  64H    basis set group =>   6
Atom  65H    basis set group =>   6
Atom  66H    basis set group =>   6
Atom  67H    basis set group =>   6
Atom  68H    basis set group =>   6
Atom  69H    basis set group =>   6
Atom  70H    basis set group =>   6


           ************************************************************
           *        Program running with 6 parallel MPI-processes     *
           *              working on a common directory               *
           ************************************************************
------------------------------------------------------------------------------
                           ORCA GTO INTEGRAL CALCULATION
                           -- RI-GTO INTEGRALS CHOSEN --
------------------------------------------------------------------------------

                         BASIS SET STATISTICS AND STARTUP INFO

Gaussian basis set:
 # of primitive gaussian shells          ...  775
 # of primitive gaussian functions       ... 1499
 # of contracted shells                  ...  389
 # of contracted basis functions         ...  869
 Highest angular momentum                ...    2
 Maximum contraction depth               ...    5
Auxiliary gaussian basis set:
 # of primitive gaussian shells          ... 1453
 # of primitive gaussian functions       ... 4101
 # of contracted shells                  ...  909
 # of contracted aux-basis functions     ... 2847
 Highest angular momentum                ...    4
 Maximum contraction depth               ...    7
Ratio of auxiliary to basis functions    ...  3.28
Integral package used                  ... LIBINT
 One Electron integrals                  ... done
 Ordering auxiliary basis shells         ... done
 Integral threshhold             Thresh  ...  2.500e-11
 Primitive cut-off               TCut    ...  2.500e-12
 Pre-screening matrix                    ... done
 Shell pair data                         ... 
 Ordering of the shell pairs             ... done (   0.006 sec) 30790 of 75855 pairs
 Determination of significant pairs      ... done (   0.000 sec)
 Creation of shell pair data             ... done (   0.004 sec)
 Storage of shell pair data              ... done (   0.006 sec)
 Shell pair data done in (   0.016 sec)
 Computing two index integrals           ... done
 Cholesky decomposition of the V-matrix  ... done


Timings:
 Total evaluation time                   ...   1.317 sec (  0.022 min)
 One electron matrix time                ...   0.290 sec (  0.005 min) = 22.0%
 Schwartz matrix evaluation time         ...   0.443 sec (  0.007 min) = 33.6%
 Two index repulsion integral time       ...   0.186 sec (  0.003 min) = 14.1%
 Cholesky decomposition of V             ...   0.365 sec (  0.006 min) = 27.8%
 Three index repulsion integral time     ...   0.000 sec (  0.000 min) =  0.0%



           ************************************************************
           *        Program running with 6 parallel MPI-processes     *
           *              working on a common directory               *
           ************************************************************
-------------------------------------------------------------------------------
                                 ORCA SCF
-------------------------------------------------------------------------------

------------
SCF SETTINGS
------------
Hamiltonian:
 Density Functional     Method          .... DFT(GTOs)
 Exchange Functional    Exchange        .... WB88
 Correlation Functional Correlation     .... LYP
 LDA part of GGA corr.  LDAOpt          .... VWN-5
 Gradients option       PostSCFGGA      .... off
 Hybrid DFT is turned on
   Fraction HF Exchange ScalHFX         ....  0.190000
   Scaling of DF-GGA-X  ScalDFX         ....  0.350000
   Scaling of DF-GGA-C  ScalDFC         ....  0.810000
   Scaling of DF-LDA-C  ScalLDAC        ....  1.000000
   Perturbative correction              ....  0.000000
   Density functional embedding theory  .... OFF
 Long-range corrected/Screened/Range-Separated Hybrid DFT is turned on
   Amount of maximum screened exact exchange              ....  0.460000
   Range separation parameter mu (erf(mu*r12)/r12)        ....  0.330000
 RI-approximation to the Coulomb term is turned on
   Number of auxiliary basis functions  .... 2847
   RIJ-COSX (HFX calculated with COS-X)).... on


General Settings:
 Integral files         IntName         .... xtbopt
 Hartree-Fock type      HFTyp           .... UHF
 Total Charge           Charge          ....    0
 Multiplicity           Mult            ....    2
 Number of Electrons    NEL             ....  425
 Basis Dimension        Dim             ....  869
 Nuclear Repulsion      ENuc            ....   8019.1036125947 Eh

Convergence Acceleration:
 DIIS                   CNVDIIS         .... on
   Start iteration      DIISMaxIt       ....    12
   Startup error        DIISStart       ....  0.200000
   # of expansion vecs  DIISMaxEq       ....     5
   Bias factor          DIISBfac        ....   1.050
   Max. coefficient     DIISMaxC        ....  10.000
 Newton-Raphson         CNVNR           .... off
 SOSCF                  CNVSOSCF        .... off
 Level Shifting         CNVShift        .... on
   Level shift para.    LevelShift      ....    0.2500
   Turn off err/grad.   ShiftErr        ....    0.0010
 Zerner damping         CNVZerner       .... off
 Static damping         CNVDamp         .... on
   Fraction old density DampFac         ....    0.7000
   Max. Damping (<1)    DampMax         ....    0.9800
   Min. Damping (>=0)   DampMin         ....    0.0000
   Turn off err/grad.   DampErr         ....    0.1000
 Fernandez-Rico         CNVRico         .... off

SCF Procedure:
 Maximum # iterations   MaxIter         ....   125
 SCF integral mode      SCFMode         .... Direct
   Integral package                     .... LIBINT
 Reset frequency        DirectResetFreq ....    20
 Integral Threshold     Thresh          ....  2.500e-11 Eh
 Primitive CutOff       TCut            ....  2.500e-12 Eh

Convergence Tolerance:
 Convergence Check Mode ConvCheckMode   .... Total+1el-Energy
 Convergence forced     ConvForced      .... 1
 Energy Change          TolE            ....  1.000e-08 Eh
 1-El. energy change                    ....  1.000e-05 Eh
 DIIS Error             TolErr          ....  5.000e-07


Diagonalization of the overlap matrix:
Smallest eigenvalue                        ... 1.832e-04
Time for diagonalization                   ...    0.131 sec
Threshold for overlap eigenvalues          ... 1.000e-08
Number of eigenvalues below threshold      ... 0
Time for construction of square roots      ...    0.083 sec
Total time needed                          ...    0.216 sec

-------------------
DFT GRID GENERATION
-------------------

General Integration Accuracy     IntAcc      ...  4.670
Radial Grid Type                 RadialGrid  ... Gauss-Chebyshev
Angular Grid (max. acc.)         AngularGrid ... Lebedev-302
Angular grid pruning method      GridPruning ... 3 (G Style)
Weight generation scheme         WeightScheme... Becke
Basis function cutoff            BFCut       ...    1.0000e-11
Integration weight cutoff        WCut        ...    1.0000e-14
Grids for H and He will be reduced by one unit

# of grid points (after initial pruning)     ... 397476 (   0.0 sec)
# of grid points (after weights+screening)   ... 345190 (   2.2 sec)
nearest neighbour list constructed           ...    0.0 sec
Grid point re-assignment to atoms done       ...    0.1 sec
Grid point division into batches done        ...    1.3 sec
Reduced shell lists constructed in    2.0 sec

Total number of grid points                  ...   345190
Total number of batches                      ...     5431
Average number of points per batch           ...       63
Average number of grid points per atom       ...     4862
Average number of shells per batch           ...    82.29 (21.15%)
Average number of basis functions per batch  ...   178.65 (20.56%)
Average number of large shells per batch     ...    51.70 (62.83%)
Average number of large basis fcns per batch ...   114.37 (64.02%)
Maximum spatial batch extension              ...  25.21, 18.03, 24.53 au
Average spatial batch extension              ...   0.37,  0.34,  0.40 au

Time for grid setup =    4.376 sec

------------------------------
INITIAL GUESS: MODEL POTENTIAL
------------------------------
Loading Hartree-Fock densities                     ... done
Calculating cut-offs                               ... done
Setting up the integral package                    ... done
Initializing the effective Hamiltonian             ... done
Starting the Coulomb interaction                   ... done (   0.7 sec)
Reading the grid                                   ... done
Mapping shells                                     ... done
Starting the XC term evaluation                    ... done (   0.9 sec)
  promolecular density results
     # of electrons  =    424.991404382
     EX              =   -441.728056847
     EC              =    -15.061089406
     EX+EC           =   -456.789146252
Transforming the Hamiltonian                       ... done (   0.1 sec)
Diagonalizing the Hamiltonian                      ... done (   0.1 sec)
Back transforming the eigenvectors                 ... done (   0.0 sec)
Now organizing SCF variables                       ... done
                      ------------------
                      INITIAL GUESS DONE (   6.3 sec)
                      ------------------
--------------------
COSX GRID GENERATION
--------------------

General Integration Accuracy     IntAcc      ...  3.340
Radial Grid Type                 RadialGrid  ... Gauss-Chebyshev
Angular Grid (max. acc.)         AngularGrid ... Lebedev-50
Angular grid pruning method      GridPruning ... 3 (G Style)
Weight generation scheme         WeightScheme... Becke
Basis function cutoff            BFCut       ...    1.0000e-11
Integration weight cutoff        WCut        ...    1.0000e-14
Grids for H and He will be reduced by one unit

# of grid points (after initial pruning)     ...  37572 (   0.0 sec)
# of grid points (after weights+screening)   ...  34016 (   0.2 sec)
nearest neighbour list constructed           ...    0.0 sec
Grid point re-assignment to atoms done       ...    0.0 sec
Grid point division into batches done        ...    0.0 sec
Reduced shell lists constructed in    0.1 sec

Total number of grid points                  ...    34016
Total number of batches                      ...      567
Average number of points per batch           ...       59
Average number of grid points per atom       ...      479
Average number of shells per batch           ...    99.44 (25.56%)
Average number of basis functions per batch  ...   218.27 (25.12%)
Average number of large shells per batch     ...    61.81 (62.16%)
Average number of large basis fcns per batch ...   139.23 (63.79%)
Maximum spatial batch extension              ...  17.38, 15.77, 18.98 au
Average spatial batch extension              ...   0.83,  0.64,  1.00 au

Overlap Fitting                  UseSFitting ... on
Constructing numerical overlap ... done (      0.1 sec)
Inverting numerical overlap    ... done (      0.0 sec)
Obtaining analytic overlap     ... done (      0.0 sec)
Final contraction and storage  ... done (      0.0 sec)


General Integration Accuracy     IntAcc      ...  3.670
Radial Grid Type                 RadialGrid  ... Gauss-Chebyshev
Angular Grid (max. acc.)         AngularGrid ... Lebedev-50
Angular grid pruning method      GridPruning ... 3 (G Style)
Weight generation scheme         WeightScheme... Becke
Basis function cutoff            BFCut       ...    1.0000e-11
Integration weight cutoff        WCut        ...    1.0000e-14
Grids for H and He will be reduced by one unit

# of grid points (after initial pruning)     ...  46756 (   0.0 sec)
# of grid points (after weights+screening)   ...  42195 (   0.2 sec)
nearest neighbour list constructed           ...    0.0 sec
Grid point re-assignment to atoms done       ...    0.0 sec
Grid point division into batches done        ...    0.0 sec
Reduced shell lists constructed in    0.1 sec

Total number of grid points                  ...    42195
Total number of batches                      ...      695
Average number of points per batch           ...       60
Average number of grid points per atom       ...      594
Average number of shells per batch           ...    98.34 (25.28%)
Average number of basis functions per batch  ...   215.45 (24.79%)
Average number of large shells per batch     ...    61.19 (62.22%)
Average number of large basis fcns per batch ...   137.58 (63.86%)
Maximum spatial batch extension              ...  19.79, 16.96, 22.24 au
Average spatial batch extension              ...   0.74,  0.60,  0.84 au

Overlap Fitting                  UseSFitting ... on
Constructing numerical overlap ... done (      0.1 sec)
Inverting numerical overlap    ... done (      0.0 sec)
Obtaining analytic overlap     ... done (      0.0 sec)
Final contraction and storage  ... done (      0.0 sec)


General Integration Accuracy     IntAcc      ...  4.010
Radial Grid Type                 RadialGrid  ... Gauss-Chebyshev
Angular Grid (max. acc.)         AngularGrid ... Lebedev-110
Angular grid pruning method      GridPruning ... 3 (G Style)
Weight generation scheme         WeightScheme... Becke
Basis function cutoff            BFCut       ...    1.0000e-11
Integration weight cutoff        WCut        ...    1.0000e-14
Grids for H and He will be reduced by one unit

# of grid points (after initial pruning)     ...  91616 (   0.0 sec)
# of grid points (after weights+screening)   ...  81731 (   0.5 sec)
nearest neighbour list constructed           ...    0.0 sec
Grid point re-assignment to atoms done       ...    0.0 sec
Grid point division into batches done        ...    0.1 sec
Reduced shell lists constructed in    0.3 sec

Total number of grid points                  ...    81731
Total number of batches                      ...     1315
Average number of points per batch           ...       62
Average number of grid points per atom       ...     1151
Average number of shells per batch           ...    92.14 (23.69%)
Average number of basis functions per batch  ...   201.64 (23.20%)
Average number of large shells per batch     ...    58.16 (63.12%)
Average number of large basis fcns per batch ...   130.06 (64.50%)
Maximum spatial batch extension              ...  20.16, 15.62, 18.56 au
Average spatial batch extension              ...   0.63,  0.52,  0.68 au

Overlap Fitting                  UseSFitting ... on
Constructing numerical overlap ... done (      0.1 sec)
Inverting numerical overlap    ... done (      0.0 sec)
Obtaining analytic overlap     ... done (      0.0 sec)
Final contraction and storage  ... done (      0.0 sec)

Time for X-Grid setup             =    2.009 sec
--------------
SCF ITERATIONS
--------------
ITER       Energy         Delta-E        Max-DP      RMS-DP      [F,P]     Damp
               ***  Starting incremental Fock matrix formation  ***
  0  -4877.3650456296   0.000000000000 0.08068280  0.00060931  0.2626812 0.7000
  1  -4877.9160129098  -0.550967280140 0.04258124  0.00042873  0.1144920 0.7000
                               ***Turning on DIIS***
  2  -4878.1512338607  -0.235220950962 0.03972055  0.00075909  0.0424254 0.0000
  3  -4878.5205275084  -0.369293647705 0.03725721  0.00032296  0.0594687 0.0000
  4  -4878.6007209096  -0.080193401206 0.00817801  0.00011049  0.0132519 0.0000
  5  -4878.6070136518  -0.006292742217 0.00377334  0.00005183  0.0072325 0.0000
  6  -4878.6090151037  -0.002001451826 0.00256000  0.00003768  0.0017315 0.0000
  7  -4878.6102970621  -0.001281958396 0.00280762  0.00003343  0.0010732 0.0000
  8  -4878.6114009382  -0.001103876137 0.00286258  0.00003196  0.0010500 0.0000
  9  -4878.6124330082  -0.001032069968 0.00290399  0.00002833  0.0010851 0.0000
 10  -4878.6133335410  -0.000900532837 0.00229883  0.00002028  0.0012363 0.0000
 11  -4878.6137964603  -0.000462919251 0.00269011  0.00001997  0.0027232 0.0000
 12  -4878.6142696181  -0.000473157864 0.00224419  0.00001766  0.0039963 0.0000
 13  -4878.6146593530  -0.000389734867 0.00216821  0.00001698  0.0049231 0.0000
 14  -4878.6150772323  -0.000417879301 0.00212443  0.00001711  0.0055748 0.0000
 15  -4878.6155488822  -0.000471649897 0.00137625  0.00001133  0.0059612 0.0000
 16  -4878.6155361837   0.000012698468 0.00095380  0.00000811  0.0068576 0.0000
 17  -4878.6157277216  -0.000191537855 0.00271461  0.00002084  0.0064026 0.0000
 18  -4878.6166083589  -0.000880637308 0.00391544  0.00004044  0.0033517 0.0000
 19  -4878.6180344648  -0.001426105870 0.00538418  0.00004372  0.0022488 0.0000
               *** Restarting incremental Fock matrix formation ***
                                   *** Resetting DIIS ***
 20  -4878.5879392689   0.030095195862 0.00388269  0.00004030  0.0019831 0.0000
 21  -4878.5892843902  -0.001345121343 0.00482600  0.00003321  0.0017269 0.0000
 22  -4878.5905432298  -0.001258839525 0.00312212  0.00002262  0.0016578 0.0000
 23  -4878.5912365781  -0.000693348391 0.00293628  0.00001938  0.0029681 0.0000
 24  -4878.5914576049  -0.000221026731 0.00268796  0.00001786  0.0056008 0.0000
 25  -4878.5919216424  -0.000464037543 0.00304703  0.00002329  0.0065931 0.0000
 26  -4878.5928047391  -0.000883096629 0.00234071  0.00001794  0.0065512 0.0000
 27  -4878.5933913765  -0.000586637492 0.00170725  0.00001492  0.0068904 0.0000
 28  -4878.5939027507  -0.000511374136 0.00365418  0.00002399  0.0065541 0.0000
 29  -4878.5947900607  -0.000887310053 0.00552936  0.00004046  0.0028750 0.0000
 30  -4878.5962386997  -0.001448638988 0.00520685  0.00004175  0.0023058 0.0000
 31  -4878.5978425780  -0.001603878301 0.00562680  0.00004361  0.0015734 0.0000
 32  -4878.5994796045  -0.001637026516 0.00566822  0.00004447  0.0013052 0.0000
 33  -4878.6010575295  -0.001577924966 0.00538768  0.00004735  0.0012358 0.0000
 34  -4878.6025915987  -0.001534069153 0.00356372  0.00003146  0.0012389 0.0000
 35  -4878.6035688133  -0.000977214621 0.00570605  0.00006579  0.0010510 0.0000
 36  -4878.6049509337  -0.001382120437 0.00231863  0.00002741  0.0025422 0.0000
 37  -4878.6056843460  -0.000733412248 0.00766890  0.00010858  0.0008832 0.0000
               *** Restarting incremental Fock matrix formation ***
                                   *** Resetting DIIS ***
 38  -4878.6389762199  -0.033291873891 0.00177402  0.00003300  0.0006322 0.0000
 39  -4878.6391532645  -0.000177044628 0.00089492  0.00000905  0.0008435 0.0000
 40  -4878.6392036206  -0.000050356140 0.00101823  0.00001413  0.0004552 0.0000
 41  -4878.6392627829  -0.000059162235 0.00074521  0.00000949  0.0002565 0.0000
 42  -4878.6392899559  -0.000027173010 0.00054343  0.00000561  0.0002053 0.0000
 43  -4878.6393034510  -0.000013495098 0.00043674  0.00000410  0.0000930 0.0000
 44  -4878.6393117452  -0.000008294232 0.00037919  0.00000322  0.0000448 0.0000
 45  -4878.6393179319  -0.000006186709 0.00026529  0.00000201  0.0000323 0.0000
 46  -4878.6393215480  -0.000003616088 0.00029309  0.00000225  0.0000262 0.0000
 47  -4878.6393253747  -0.000003826705 0.00024700  0.00000194  0.0000120 0.0000
 48  -4878.6393284918  -0.000003117055 0.00024693  0.00000195  0.0000102 0.0000
 49  -4878.6393314532  -0.000002961439 0.00028086  0.00000228  0.0000096 0.0000
 50  -4878.6393346982  -0.000003244960 0.00038308  0.00000313  0.0000088 0.0000
 51  -4878.6393388074  -0.000004109283 0.00049562  0.00000409  0.0000079 0.0000
 52  -4878.6393435476  -0.000004740114 0.00049039  0.00000413  0.0000069 0.0000
 53  -4878.6393476378  -0.000004090245 0.00097687  0.00000825  0.0000059 0.0000
 54  -4878.6393537059  -0.000006068142 0.00007723  0.00000070  0.0000068 0.0000
 55  -4878.6393541031  -0.000000397125 0.00077260  0.00000680  0.0000043 0.0000
 56  -4878.6393568540  -0.000002750975 0.00015654  0.00000145  0.0000071 0.0000
 57  -4878.6393571934  -0.000000339354 0.00038484  0.00000348  0.0000036 0.0000
               *** Restarting incremental Fock matrix formation ***
                                   *** Resetting DIIS ***
 58  -4878.6393578623  -0.000000668881 0.00002112  0.00000019  0.0000031 0.0000
 59  -4878.6393578579   0.000000004376 0.00000931  0.00000007  0.0000044 0.0000
 60  -4878.6393578948  -0.000000036927 0.00002855  0.00000026  0.0000018 0.0000
 61  -4878.6393579209  -0.000000026031 0.00002725  0.00000024  0.0000013 0.0000
 62  -4878.6393579573  -0.000000036433 0.00004143  0.00000036  0.0000013 0.0000
                            ***DIIS convergence achieved***

               *****************************************************
               *                     SUCCESS                       *
               *           SCF CONVERGED AFTER  63 CYCLES          *
               *****************************************************

Setting up the final grid:

General Integration Accuracy     IntAcc      ...  5.010
Radial Grid Type                 RadialGrid  ... Gauss-Chebyshev
Angular Grid (max. acc.)         AngularGrid ... Lebedev-434
Angular grid pruning method      GridPruning ... 3 (G Style)
Weight generation scheme         WeightScheme... Becke
Basis function cutoff            BFCut       ...    1.0000e-11
Integration weight cutoff        WCut        ...    1.0000e-14
Grids for H and He will be reduced by one unit

# of grid points (after initial pruning)     ... 698930 (   0.0 sec)
# of grid points (after weights+screening)   ... 604937 (   3.6 sec)
nearest neighbour list constructed           ...    0.0 sec
Grid point re-assignment to atoms done       ...    0.1 sec
Grid point division into batches done        ...    4.0 sec
Reduced shell lists constructed in    5.1 sec

Total number of grid points                  ...   604937
Total number of batches                      ...     9493
Average number of points per batch           ...       63
Average number of grid points per atom       ...     8520
Average number of shells per batch           ...    79.30 (20.39%)
Average number of basis functions per batch  ...   171.65 (19.75%)
Average number of large shells per batch     ...    49.86 (62.88%)
Average number of large basis fcns per batch ...   109.97 (64.06%)
Maximum spatial batch extension              ...  20.56, 17.42, 20.50 au
Average spatial batch extension              ...   0.30,  0.28,  0.31 au

Final grid set up in    9.0 sec
Final integration                            ... done (   2.6 sec)
Change in XC energy                          ...    -0.000054807
Integrated number of electrons               ...   424.999930542
Previous integrated no of electrons          ...   425.000052401
Old exchange energy                            =   -118.370234757 Eh
New exchange energy                            =   -118.367174664 Eh
Exchange energy change after final integration =      0.003060093 Eh
Total energy after final integration           =  -4878.636352698 Eh
Final COS-X integration done in                =    35.467 sec

----------------
TOTAL SCF ENERGY
----------------

Total Energy       :        -4878.63635270 Eh         -132754.44426 eV

Components:
Nuclear Repulsion  :         8019.10361259 Eh          218210.90293 eV
Electronic Energy  :       -12897.73996529 Eh         -350965.34719 eV
One Electron Energy:       -22663.86454368 Eh         -616715.10742 eV
Two Electron Energy:         9766.12457839 Eh          265749.76023 eV

Virial components:
Potential Energy   :        -9732.56251140 Eh         -264836.48996 eV
Kinetic Energy     :         4853.92615870 Eh          132082.04570 eV
Virial Ratio       :            2.00509076


DFT components:
N(Alpha)           :      212.999964742258 electrons
N(Beta)            :      211.999965799701 electrons
N(Total)           :      424.999930541959 electrons
E(XC)              :     -344.609683650854 Eh       
DFET-embed. en.    :        0.000000000000 Eh       

---------------
SCF CONVERGENCE
---------------

  Last Energy change         ...   -2.6464e-08  Tolerance :   1.0000e-08
  Last MAX-Density change    ...    0.0000e+00  Tolerance :   1.0000e-07
  Last RMS-Density change    ...    0.0000e+00  Tolerance :   5.0000e-09
  Last DIIS Error            ...    7.9568e-07  Tolerance :   5.0000e-07

             **** THE GBW FILE WAS UPDATED (xtbopt.gbw) ****
             **** DENSITY FILE WAS UPDATED (xtbopt.scfp) ****
             **** ENERGY FILE WAS UPDATED (xtbopt.en.tmp) ****
----------------------
UHF SPIN CONTAMINATION
----------------------

Warning: in a DFT calculation there is little theoretical justification to 
         calculate <S**2> as in Hartree-Fock theory. We will do it anyways
         but you should keep in mind that the values have only limited relevance

Expectation value of <S**2>     :     0.851790
Ideal value S*(S+1) for S=0.5   :     0.750000
Deviation                       :     0.101790

             **** THE GBW FILE WAS UPDATED (xtbopt.gbw) ****
             **** DENSITY FILE WAS UPDATED (xtbopt.scfp) ****
----------------
ORBITAL ENERGIES
----------------
                 SPIN UP ORBITALS
  NO   OCC          E(Eh)            E(eV) 
   0   1.0000    -101.621993     -2765.2750 
   1   1.0000     -89.159362     -2426.1496 
   2   1.0000     -88.998054     -2421.7602 
   3   1.0000     -88.997954     -2421.7574 
   4   1.0000     -88.996084     -2421.7066 
   5   1.0000     -88.967903     -2420.9397 
   6   1.0000     -88.965133     -2420.8644 
   7   1.0000     -19.235658      -523.4289 
   8   1.0000     -19.208333      -522.6853 
   9   1.0000     -19.208119      -522.6795 
  10   1.0000     -19.207533      -522.6635 
  11   1.0000     -14.486877      -394.2080 
  12   1.0000     -14.430912      -392.6851 
  13   1.0000     -14.426069      -392.5533 
  14   1.0000     -14.422247      -392.4493 
  15   1.0000     -14.402657      -391.9162 
  16   1.0000     -10.392154      -282.7849 
  17   1.0000     -10.381065      -282.4831 
  18   1.0000     -10.368159      -282.1319 
  19   1.0000     -10.366514      -282.0872 
  20   1.0000     -10.363197      -281.9969 
  21   1.0000     -10.355960      -281.8000 
  22   1.0000     -10.353537      -281.7341 
  23   1.0000     -10.349108      -281.6135 
  24   1.0000     -10.347753      -281.5767 
  25   1.0000     -10.345698      -281.5207 
  26   1.0000     -10.341248      -281.3997 
  27   1.0000     -10.340756      -281.3863 
  28   1.0000     -10.335032      -281.2305 
  29   1.0000     -10.333432      -281.1870 
  30   1.0000     -10.331864      -281.1443 
  31   1.0000     -10.330969      -281.1200 
  32   1.0000     -10.330499      -281.1072 
  33   1.0000     -10.326662      -281.0028 
  34   1.0000     -10.326338      -280.9939 
  35   1.0000     -10.324949      -280.9561 
  36   1.0000     -10.321274      -280.8561 
  37   1.0000     -10.317510      -280.7537 
  38   1.0000     -10.315544      -280.7002 
  39   1.0000     -10.315494      -280.6989 
  40   1.0000     -10.312729      -280.6236 
  41   1.0000     -10.309933      -280.5475 
  42   1.0000     -10.309278      -280.5297 
  43   1.0000     -10.309037      -280.5232 
  44   1.0000     -10.307418      -280.4791 
  45   1.0000     -10.304427      -280.3977 
  46   1.0000     -10.303865      -280.3824 
  47   1.0000     -10.302406      -280.3427 
  48   1.0000     -10.295276      -280.1487 
  49   1.0000     -10.292869      -280.0832 
  50   1.0000     -10.292491      -280.0729 
  51   1.0000     -10.281189      -279.7654 
  52   1.0000     -10.278674      -279.6970 
  53   1.0000     -10.261911      -279.2408 
  54   1.0000      -9.576740      -260.5964 
  55   1.0000      -8.224187      -223.7915 
  56   1.0000      -8.092904      -220.2191 
  57   1.0000      -8.092251      -220.2014 
  58   1.0000      -8.091849      -220.1904 
  59   1.0000      -8.063347      -219.4148 
  60   1.0000      -8.060123      -219.3271 
  61   1.0000      -7.347387      -199.9326 
  62   1.0000      -7.336769      -199.6436 
  63   1.0000      -7.336239      -199.6292 
  64   1.0000      -6.193432      -168.5319 
  65   1.0000      -6.192631      -168.5101 
  66   1.0000      -6.192462      -168.5055 
  67   1.0000      -6.062575      -164.9711 
  68   1.0000      -6.061798      -164.9499 
  69   1.0000      -6.061311      -164.9367 
  70   1.0000      -6.058028      -164.8473 
  71   1.0000      -6.057537      -164.8340 
  72   1.0000      -6.056659      -164.8101 
  73   1.0000      -6.054637      -164.7550 
  74   1.0000      -6.054046      -164.7390 
  75   1.0000      -6.053938      -164.7360 
  76   1.0000      -6.032863      -164.1625 
  77   1.0000      -6.029787      -164.0789 
  78   1.0000      -6.028614      -164.0469 
  79   1.0000      -6.025558      -163.9638 
  80   1.0000      -6.025335      -163.9577 
  81   1.0000      -6.022303      -163.8752 
  82   1.0000      -1.214269       -33.0419 
  83   1.0000      -1.149788       -31.2873 
  84   1.0000      -1.127537       -30.6818 
  85   1.0000      -1.119910       -30.4743 
  86   1.0000      -1.091913       -29.7125 
  87   1.0000      -1.042822       -28.3766 
  88   1.0000      -1.039443       -28.2847 
  89   1.0000      -1.038467       -28.2581 
  90   1.0000      -1.024469       -27.8772 
  91   1.0000      -1.012275       -27.5454 
  92   1.0000      -1.004382       -27.3306 
  93   1.0000      -1.003217       -27.2989 
  94   1.0000      -1.001615       -27.2553 
  95   1.0000      -0.992982       -27.0204 
  96   1.0000      -0.969625       -26.3848 
  97   1.0000      -0.959362       -26.1056 
  98   1.0000      -0.934321       -25.4242 
  99   1.0000      -0.928989       -25.2791 
 100   1.0000      -0.917613       -24.9695 
 101   1.0000      -0.911384       -24.8000 
 102   1.0000      -0.899245       -24.4697 
 103   1.0000      -0.897933       -24.4340 
 104   1.0000      -0.885482       -24.0952 
 105   1.0000      -0.882591       -24.0165 
 106   1.0000      -0.865699       -23.5569 
 107   1.0000      -0.858024       -23.3480 
 108   1.0000      -0.838344       -22.8125 
 109   1.0000      -0.832744       -22.6601 
 110   1.0000      -0.828717       -22.5505 
 111   1.0000      -0.822741       -22.3879 
 112   1.0000      -0.814241       -22.1566 
 113   1.0000      -0.801741       -21.8165 
 114   1.0000      -0.777399       -21.1541 
 115   1.0000      -0.764700       -20.8085 
 116   1.0000      -0.763700       -20.7813 
 117   1.0000      -0.761324       -20.7167 
 118   1.0000      -0.743301       -20.2262 
 119   1.0000      -0.728063       -19.8116 
 120   1.0000      -0.720032       -19.5931 
 121   1.0000      -0.713640       -19.4191 
 122   1.0000      -0.706565       -19.2266 
 123   1.0000      -0.699980       -19.0474 
 124   1.0000      -0.686614       -18.6837 
 125   1.0000      -0.681698       -18.5499 
 126   1.0000      -0.678220       -18.4553 
 127   1.0000      -0.667998       -18.1772 
 128   1.0000      -0.652330       -17.7508 
 129   1.0000      -0.647065       -17.6075 
 130   1.0000      -0.638227       -17.3671 
 131   1.0000      -0.635038       -17.2803 
 132   1.0000      -0.624391       -16.9905 
 133   1.0000      -0.618616       -16.8334 
 134   1.0000      -0.616378       -16.7725 
 135   1.0000      -0.605797       -16.4846 
 136   1.0000      -0.599354       -16.3092 
 137   1.0000      -0.592317       -16.1178 
 138   1.0000      -0.587405       -15.9841 
 139   1.0000      -0.585370       -15.9287 
 140   1.0000      -0.573754       -15.6127 
 141   1.0000      -0.570184       -15.5155 
 142   1.0000      -0.567472       -15.4417 
 143   1.0000      -0.566692       -15.4205 
 144   1.0000      -0.555627       -15.1194 
 145   1.0000      -0.554635       -15.0924 
 146   1.0000      -0.551781       -15.0147 
 147   1.0000      -0.546512       -14.8713 
 148   1.0000      -0.542427       -14.7602 
 149   1.0000      -0.539507       -14.6807 
 150   1.0000      -0.537468       -14.6252 
 151   1.0000      -0.535776       -14.5792 
 152   1.0000      -0.534778       -14.5521 
 153   1.0000      -0.529310       -14.4033 
 154   1.0000      -0.525070       -14.2879 
 155   1.0000      -0.518571       -14.1110 
 156   1.0000      -0.518476       -14.1085 
 157   1.0000      -0.516510       -14.0550 
 158   1.0000      -0.511919       -13.9300 
 159   1.0000      -0.510955       -13.9038 
 160   1.0000      -0.510739       -13.8979 
 161   1.0000      -0.505376       -13.7520 
 162   1.0000      -0.501876       -13.6567 
 163   1.0000      -0.501176       -13.6377 
 164   1.0000      -0.498053       -13.5527 
 165   1.0000      -0.490699       -13.3526 
 166   1.0000      -0.487157       -13.2562 
 167   1.0000      -0.486153       -13.2289 
 168   1.0000      -0.484245       -13.1770 
 169   1.0000      -0.477388       -12.9904 
 170   1.0000      -0.475114       -12.9285 
 171   1.0000      -0.465259       -12.6603 
 172   1.0000      -0.464027       -12.6268 
 173   1.0000      -0.462433       -12.5835 
 174   1.0000      -0.462118       -12.5749 
 175   1.0000      -0.455888       -12.4053 
 176   1.0000      -0.454008       -12.3542 
 177   1.0000      -0.451648       -12.2900 
 178   1.0000      -0.451386       -12.2828 
 179   1.0000      -0.449242       -12.2245 
 180   1.0000      -0.445451       -12.1213 
 181   1.0000      -0.444519       -12.0960 
 182   1.0000      -0.444366       -12.0918 
 183   1.0000      -0.442423       -12.0390 
 184   1.0000      -0.439429       -11.9575 
 185   1.0000      -0.438802       -11.9404 
 186   1.0000      -0.434660       -11.8277 
 187   1.0000      -0.431324       -11.7369 
 188   1.0000      -0.419010       -11.4018 
 189   1.0000      -0.417052       -11.3486 
 190   1.0000      -0.412231       -11.2174 
 191   1.0000      -0.411223       -11.1899 
 192   1.0000      -0.408001       -11.1023 
 193   1.0000      -0.407112       -11.0781 
 194   1.0000      -0.403630       -10.9833 
 195   1.0000      -0.403224       -10.9723 
 196   1.0000      -0.383023       -10.4226 
 197   1.0000      -0.376336       -10.2406 
 198   1.0000      -0.372911       -10.1474 
 199   1.0000      -0.362809        -9.8725 
 200   1.0000      -0.361814        -9.8455 
 201   1.0000      -0.358044        -9.7429 
 202   1.0000      -0.351127        -9.5547 
 203   1.0000      -0.345007        -9.3881 
 204   1.0000      -0.341216        -9.2849 
 205   1.0000      -0.328507        -8.9391 
 206   1.0000      -0.328273        -8.9328 
 207   1.0000      -0.324412        -8.8277 
 208   1.0000      -0.316578        -8.6145 
 209   1.0000      -0.305737        -8.3195 
 210   1.0000      -0.295261        -8.0344 
 211   1.0000      -0.265930        -7.2363 
 212   1.0000      -0.213764        -5.8168 
 213   0.0000      -0.124410        -3.3854 
 214   0.0000      -0.074957        -2.0397 
 215   0.0000      -0.061796        -1.6816 
 216   0.0000      -0.046162        -1.2561 
 217   0.0000      -0.043825        -1.1925 
 218   0.0000      -0.009339        -0.2541 
 219   0.0000      -0.004209        -0.1145 
 220   0.0000       0.011275         0.3068 
 221   0.0000       0.016484         0.4486 
 222   0.0000       0.022542         0.6134 
 223   0.0000       0.024424         0.6646 
 224   0.0000       0.030386         0.8268 
 225   0.0000       0.033792         0.9195 
 226   0.0000       0.046740         1.2719 
 227   0.0000       0.057299         1.5592 
 228   0.0000       0.060726         1.6524 
 229   0.0000       0.062820         1.7094 
 230   0.0000       0.068793         1.8720 
 231   0.0000       0.075807         2.0628 
 232   0.0000       0.081820         2.2264 
 233   0.0000       0.086348         2.3497 
 234   0.0000       0.086919         2.3652 
 235   0.0000       0.097302         2.6477 
 236   0.0000       0.100743         2.7414 
 237   0.0000       0.102378         2.7859 
 238   0.0000       0.104963         2.8562 
 239   0.0000       0.111757         3.0411 
 240   0.0000       0.115232         3.1356 
 241   0.0000       0.118480         3.2240 
 242   0.0000       0.123469         3.3598 
 243   0.0000       0.124052         3.3756 
 244   0.0000       0.126095         3.4312 
 245   0.0000       0.126266         3.4359 
 246   0.0000       0.133431         3.6308 
 247   0.0000       0.137153         3.7321 
 248   0.0000       0.141368         3.8468 
 249   0.0000       0.146098         3.9755 
 250   0.0000       0.148989         4.0542 
 251   0.0000       0.152886         4.1602 
 252   0.0000       0.155074         4.2198 
 253   0.0000       0.159987         4.3535 
 254   0.0000       0.161447         4.3932 
 255   0.0000       0.165898         4.5143 
 256   0.0000       0.172873         4.7041 
 257   0.0000       0.174306         4.7431 
 258   0.0000       0.180165         4.9025 
 259   0.0000       0.187482         5.1016 
 260   0.0000       0.188940         5.1413 
 261   0.0000       0.190476         5.1831 
 262   0.0000       0.195942         5.3319 
 263   0.0000       0.202002         5.4967 
 264   0.0000       0.204670         5.5694 
 265   0.0000       0.209183         5.6922 
 266   0.0000       0.210938         5.7399 
 267   0.0000       0.220100         5.9892 
 268   0.0000       0.225188         6.1277 
 269   0.0000       0.226374         6.1600 
 270   0.0000       0.232167         6.3176 
 271   0.0000       0.234535         6.3820 
 272   0.0000       0.238249         6.4831 
 273   0.0000       0.240747         6.5510 
 274   0.0000       0.244994         6.6666 
 275   0.0000       0.251449         6.8423 
 276   0.0000       0.254490         6.9250 
 277   0.0000       0.264875         7.2076 
 278   0.0000       0.271966         7.4006 
 279   0.0000       0.277885         7.5616 
 280   0.0000       0.281311         7.6549 
 281   0.0000       0.285636         7.7726 
 282   0.0000       0.293040         7.9740 
 283   0.0000       0.300310         8.1719 
 284   0.0000       0.304081         8.2745 
 285   0.0000       0.307231         8.3602 
 286   0.0000       0.314813         8.5665 
 287   0.0000       0.316118         8.6020 
 288   0.0000       0.317848         8.6491 
 289   0.0000       0.321542         8.7496 
 290   0.0000       0.324798         8.8382 
 291   0.0000       0.328494         8.9388 
 292   0.0000       0.335803         9.1377 
 293   0.0000       0.340228         9.2581 
 294   0.0000       0.342950         9.3322 
 295   0.0000       0.349677         9.5152 
 296   0.0000       0.353184         9.6106 
 297   0.0000       0.354644         9.6503 
 298   0.0000       0.362527         9.8649 
 299   0.0000       0.365108         9.9351 
 300   0.0000       0.366509         9.9732 
 301   0.0000       0.370487        10.0815 
 302   0.0000       0.373044        10.1510 
 303   0.0000       0.375196        10.2096 
 304   0.0000       0.379129        10.3166 
 305   0.0000       0.381341        10.3768 
 306   0.0000       0.382622        10.4117 
 307   0.0000       0.387377        10.5411 
 308   0.0000       0.393568        10.7095 
 309   0.0000       0.396174        10.7805 
 310   0.0000       0.398181        10.8351 
 311   0.0000       0.400918        10.9095 
 312   0.0000       0.401096        10.9144 
 313   0.0000       0.413665        11.2564 
 314   0.0000       0.414924        11.2906 
 315   0.0000       0.416501        11.3336 
 316   0.0000       0.419367        11.4116 
 317   0.0000       0.425908        11.5896 
 318   0.0000       0.429937        11.6992 
 319   0.0000       0.438256        11.9256 
 320   0.0000       0.440363        11.9829 
 321   0.0000       0.443870        12.0783 
 322   0.0000       0.447298        12.1716 
 323   0.0000       0.449080        12.2201 
 324   0.0000       0.450991        12.2721 
 325   0.0000       0.455669        12.3994 
 326   0.0000       0.461015        12.5448 
 327   0.0000       0.465975        12.6798 
 328   0.0000       0.468731        12.7548 
 329   0.0000       0.472562        12.8591 
 330   0.0000       0.475094        12.9280 
 331   0.0000       0.476265        12.9598 
 332   0.0000       0.481527        13.1030 
 333   0.0000       0.483363        13.1530 
 334   0.0000       0.485932        13.2229 
 335   0.0000       0.489903        13.3309 
 336   0.0000       0.490112        13.3366 
 337   0.0000       0.492769        13.4089 
 338   0.0000       0.495874        13.4934 
 339   0.0000       0.497884        13.5481 
 340   0.0000       0.501665        13.6510 
 341   0.0000       0.504276        13.7221 
 342   0.0000       0.505321        13.7505 
 343   0.0000       0.507883        13.8202 
 344   0.0000       0.509524        13.8649 
 345   0.0000       0.512921        13.9573 
 346   0.0000       0.513560        13.9747 
 347   0.0000       0.519250        14.1295 
 348   0.0000       0.519787        14.1441 
 349   0.0000       0.528480        14.3807 
 350   0.0000       0.532418        14.4878 
 351   0.0000       0.536147        14.5893 
 352   0.0000       0.539518        14.6810 
 353   0.0000       0.542464        14.7612 
 354   0.0000       0.544838        14.8258 
 355   0.0000       0.547046        14.8859 
 356   0.0000       0.550266        14.9735 
 357   0.0000       0.551480        15.0065 
 358   0.0000       0.556618        15.1463 
 359   0.0000       0.560579        15.2541 
 360   0.0000       0.562759        15.3135 
 361   0.0000       0.565467        15.3871 
 362   0.0000       0.568494        15.4695 
 363   0.0000       0.571037        15.5387 
 364   0.0000       0.575154        15.6507 
 365   0.0000       0.575707        15.6658 
 366   0.0000       0.578547        15.7431 
 367   0.0000       0.584947        15.9172 
 368   0.0000       0.586929        15.9712 
 369   0.0000       0.590876        16.0786 
 370   0.0000       0.592270        16.1165 
 371   0.0000       0.594691        16.1824 
 372   0.0000       0.600675        16.3452 
 373   0.0000       0.605455        16.4753 
 374   0.0000       0.607441        16.5293 
 375   0.0000       0.608764        16.5653 
 376   0.0000       0.615778        16.7562 
 377   0.0000       0.619999        16.8710 
 378   0.0000       0.627028        17.0623 
 379   0.0000       0.628290        17.0966 
 380   0.0000       0.630345        17.1526 
 381   0.0000       0.633076        17.2269 
 382   0.0000       0.635179        17.2841 
 383   0.0000       0.638842        17.3838 
 384   0.0000       0.642185        17.4747 
 385   0.0000       0.643169        17.5015 
 386   0.0000       0.648816        17.6552 
 387   0.0000       0.655347        17.8329 
 388   0.0000       0.656375        17.8609 
 389   0.0000       0.659389        17.9429 
 390   0.0000       0.661368        17.9967 
 391   0.0000       0.663807        18.0631 
 392   0.0000       0.666745        18.1431 
 393   0.0000       0.668488        18.1905 
 394   0.0000       0.670961        18.2578 
 395   0.0000       0.672687        18.3048 
 396   0.0000       0.674319        18.3491 
 397   0.0000       0.678858        18.4727 
 398   0.0000       0.682590        18.5742 
 399   0.0000       0.684581        18.6284 
 400   0.0000       0.685920        18.6648 
 401   0.0000       0.693575        18.8731 
 402   0.0000       0.695259        18.9190 
 403   0.0000       0.696654        18.9569 
 404   0.0000       0.698815        19.0157 
 405   0.0000       0.699441        19.0328 
 406   0.0000       0.700138        19.0517 
 407   0.0000       0.702694        19.1213 
 408   0.0000       0.706599        19.2275 
 409   0.0000       0.712613        19.3912 
 410   0.0000       0.715020        19.4567 
 411   0.0000       0.715502        19.4698 
 412   0.0000       0.716579        19.4991 
 413   0.0000       0.717209        19.5162 
 414   0.0000       0.719058        19.5666 
 415   0.0000       0.720149        19.5963 
 416   0.0000       0.722638        19.6640 
 417   0.0000       0.726846        19.7785 
 418   0.0000       0.728189        19.8150 
 419   0.0000       0.730825        19.8867 
 420   0.0000       0.734086        19.9755 
 421   0.0000       0.738473        20.0949 
 422   0.0000       0.738910        20.1068 
 423   0.0000       0.745075        20.2745 
[...]
  26   29899.0    334.5   0.000033775   0.00037  -0.01252  -0.00816  -0.01218
  27   30221.4    330.9   0.067125708   0.73122   0.55828   0.41753   0.49519
  28   30330.0    329.7   0.066573578   0.72261  -0.56795  -0.37986  -0.50572
  29   30542.4    327.4   0.001521203   0.01640   0.09345   0.00684   0.08727
  30   30895.8    323.7   0.045887986   0.48896   0.30368   0.52106   0.35389
  31   31387.1    318.6   0.051343081   0.53853   0.50439  -0.50881   0.15884
  32   31996.3    312.5   0.009139617   0.09404   0.17863   0.20234   0.14556
  33   32016.4    312.3   0.021603892   0.22214  -0.25968  -0.30159  -0.25250
  34   32131.3    311.2   0.094765384   0.97095   0.58206   0.58637   0.53695
  35   32135.6    311.2   0.002763563   0.02831  -0.04986  -0.14281  -0.07368
  36   32293.1    309.7   0.194988085   1.98781  -0.94359  -0.68430  -0.79321
  37   32469.7    308.0   0.189805837   1.92445   0.97811   0.58575   0.79035
  38   32665.2    306.1   0.024570122   0.24763  -0.07002  -0.45648  -0.18533
  39   32754.0    305.3   0.000006251   0.00006   0.00349   0.00339  -0.00626
  40   33190.1    301.3   0.147309056   1.46116  -0.81187  -0.52085  -0.72852
  41   33354.2    299.8   0.000027876   0.00028  -0.00557  -0.01526  -0.00338
  42   33521.2    298.3   0.017881429   0.17561  -0.27577   0.29161  -0.12052
  43   34324.4    291.3   0.006212995   0.05959   0.19736   0.00584   0.14354
  44   34420.8    290.5   0.010918285   0.10443   0.26271  -0.11302   0.15046
  45   34454.7    290.2   0.002391501   0.02285   0.11838  -0.05107   0.07892
  46   34647.5    288.6   0.013315515   0.12652  -0.25380  -0.16930  -0.18288
  47   34946.0    286.2   0.000215893   0.00203   0.03240   0.00881  -0.03010
  48   35136.1    284.6   0.000704486   0.00660   0.06033   0.03891  -0.03804
  49   35185.9    284.2   0.138980132   1.30035  -0.36163   1.07762   0.09110
  50   35283.8    283.4   0.025869222   0.24137  -0.01081  -0.47152  -0.13755
  51   35586.3    281.0   0.034074075   0.31522   0.38152  -0.39620   0.11267
  52   35678.9    280.3   0.059633508   0.55024   0.62227   0.03232   0.40246
  53   35697.4    280.1   0.003018565   0.02784  -0.02249  -0.01032  -0.16500
  54   36039.8    277.5   0.265912707   2.42903   1.30938  -0.57075   0.62354
  55   36138.5    276.7   0.179452852   1.63477  -1.08417   0.35701  -0.57610
  56   36153.6    276.6   0.032596408   0.29682  -0.43498   0.26996  -0.18636
  57   36379.1    274.9   0.000465267   0.00421   0.03482  -0.05315   0.01316
  58   36471.0    274.2   0.013200220   0.11915   0.22854  -0.24654   0.07837
  59   36704.0    272.4   0.010488689   0.09408   0.22487  -0.17074   0.11981
  60   36850.1    271.4   0.030170224   0.26954   0.15332  -0.49591  -0.01006
  61   36984.9    270.4   0.004982943   0.04435  -0.16061   0.11426  -0.07418
  62   37007.0    270.2   0.018933825   0.16843  -0.22929  -0.25730  -0.22284
  63   37228.0    268.6   0.001764825   0.01561   0.01752  -0.12256  -0.01670
  64   37329.5    267.9   0.000190222   0.00168  -0.03806   0.01157  -0.00974
  65   37603.7    265.9   0.000232948   0.00204   0.04057  -0.01371   0.01435
  66   37660.1    265.5   0.001094299   0.00957   0.06769   0.03658   0.06038
  67   37870.4    264.1   0.012424694   0.10801  -0.17178   0.27837  -0.03181
  68   37985.8    263.3   0.000653215   0.00566   0.05641  -0.03014   0.03964
  69   38164.1    262.0   0.053970309   0.46556  -0.39359   0.54323  -0.12468
  70   38375.8    260.6   0.025097809   0.21530   0.33949  -0.27494   0.15639
  71   38569.0    259.3   0.000043781   0.00037   0.01504  -0.01075   0.00565
  72   38595.0    259.1   0.086124229   0.73463   0.59819  -0.54862   0.27534
  73   38634.6    258.8   0.000353785   0.00301  -0.04660   0.02047   0.02059
  74   38758.3    258.0   0.048328987   0.41050   0.31364  -0.55398   0.07240
  75   38868.6    257.3   0.012551671   0.10631   0.09650  -0.31054  -0.02377
  76   39069.5    256.0   0.024618773   0.20745   0.01250   0.44194   0.10943
  77   39421.1    253.7   0.026329157   0.21988  -0.14398   0.44422   0.04263
  78   39548.4    252.9   0.040839592   0.33996  -0.30738   0.49037  -0.07084
  79   39669.3    252.1   0.011442824   0.09496  -0.09563   0.29225   0.02012
  80   39744.0    251.6   0.000436330   0.00361   0.04252   0.01798  -0.03851
  81   39789.2    251.3   0.004001686   0.03311  -0.03943  -0.15840  -0.08040
  82   40116.2    249.3   0.002676424   0.02196  -0.05635  -0.12115  -0.06412

-----------------------------------------------------------------------------
         ABSORPTION SPECTRUM VIA TRANSITION VELOCITY DIPOLE MOMENTS
-----------------------------------------------------------------------------
State   Energy  Wavelength   fosc         P2         PX        PY        PZ  
        (cm-1)    (nm)                  (au**2)     (au)      (au)      (au) 
-----------------------------------------------------------------------------
   0    6853.0   1459.2   0.004038164   0.00019   0.00379   0.01166   0.00623
   1   10204.9    979.9   0.003517500   0.00025  -0.01129  -0.00645  -0.00873
   2   14718.3    679.4   0.009898436   0.00100  -0.01943  -0.02023  -0.01445
   3   15297.1    653.7   1.017825195   0.10641  -0.27867   0.01701  -0.16872
   4   16182.3    618.0   0.036465431   0.00403  -0.04911  -0.01815  -0.03594
   5   17487.6    571.8   0.020880742   0.00250   0.03814   0.01648   0.02774
   6   20899.6    478.5   0.002375469   0.00034  -0.01235  -0.00855  -0.01067
   7   21382.1    467.7   0.000712571   0.00010   0.00498   0.00754   0.00475
   8   22238.8    449.7   0.553676870   0.08415   0.02899   0.27431   0.08981
   9   23221.4    430.6   0.002654266   0.00042  -0.01486   0.01271  -0.00623
  10   23775.3    420.6   0.014615556   0.00237  -0.00652  -0.04552  -0.01613
  11   24525.9    407.7   0.008158122   0.00137   0.02124  -0.02996   0.00431
  12   25008.4    399.9   0.003116785   0.00053   0.00979  -0.02090   0.00042
  13   25299.9    395.3   0.001492224   0.00026  -0.00126   0.01574   0.00295
  14   25722.1    388.8   0.581312013   0.10219   0.03513  -0.31143  -0.06299
  15   26337.9    379.7   0.014703247   0.00265   0.01988  -0.04745  -0.00061
  16   27053.2    369.6   0.272749194   0.05043  -0.00327   0.21794   0.05404
  17   27344.3    365.7   0.082327313   0.01539  -0.07806   0.09358  -0.02313
  18   27542.3    363.1   0.070128681   0.01320  -0.09794   0.02703  -0.05364
  19   27920.4    358.2   0.000123360   0.00002   0.00098  -0.00124  -0.00459
  20   28169.1    355.0   0.031534339   0.00607   0.02825   0.06322   0.03574
  21   28595.7    349.7   0.176648722   0.03452   0.05383   0.16253   0.07218
  22   28990.9    344.9   0.022069185   0.00437  -0.04304  -0.03580  -0.03520
  23   29040.1    344.4   0.015701071   0.00312   0.00831  -0.05481  -0.00659
  24   29557.6    338.3   0.000444116   0.00009   0.00680   0.00356   0.00554
  25   29714.2    336.5   0.000073198   0.00001   0.00209   0.00050  -0.00320
  26   29899.0    334.5   0.000032966   0.00001  -0.00123  -0.00064  -0.00219
  27   30221.4    330.9   0.062582459   0.01293   0.07387   0.05644   0.06545
  28   30330.0    329.7   0.062766117   0.01301  -0.07532  -0.05178  -0.06823
  29   30542.4    327.4   0.001321544   0.00028   0.01416   0.00069   0.00865
  30   30895.8    323.7   0.042591209   0.00899   0.04152   0.07018   0.04842
  31   31387.1    318.6   0.050628930   0.01086   0.06985  -0.07439   0.02117
  32   31996.3    312.5   0.008162491   0.00178   0.02325   0.02704   0.02265
  33   32016.4    312.3   0.019802216   0.00433  -0.03460  -0.04312  -0.03573
  34   32131.3    311.2   0.085564701   0.01879   0.08211   0.08211   0.07285
  35   32135.6    311.2   0.002519723   0.00055  -0.00870  -0.01792  -0.01251
  36   32293.1    309.7   0.174863299   0.03859  -0.13358  -0.09136  -0.11137
  37   32469.7    308.0   0.174302344   0.03868   0.14051   0.07917   0.11255
  38   32665.2    306.1   0.021907505   0.00489  -0.01086  -0.06375  -0.02663
  39   32754.0    305.3   0.000007613   0.00000  -0.00037  -0.00067   0.00106
  40   33190.1    301.3   0.136454037   0.03095  -0.11816  -0.07597  -0.10593
  41   33354.2    299.8   0.000027153   0.00001  -0.00068  -0.00214  -0.00107
  42   33521.2    298.3   0.016563177   0.00379  -0.04034   0.04312  -0.01756
  43   34324.4    291.3   0.005468842   0.00128   0.02877   0.00171   0.02126
  44   34420.8    290.5   0.009911596   0.00233   0.03906  -0.01795   0.02199
  45   34454.7    290.2   0.002167689   0.00051   0.01751  -0.00791   0.01189
  46   34647.5    288.6   0.010440434   0.00247  -0.03813  -0.01888  -0.02573
  47   34946.0    286.2   0.000269567   0.00006   0.00576   0.00131  -0.00544
  48   35136.1    284.6   0.000597476   0.00014   0.00910   0.00550  -0.00552
  49   35185.9    284.2   0.130576402   0.03140  -0.05455   0.16790   0.01527
  50   35283.8    283.4   0.023099951   0.00557  -0.00166  -0.07164  -0.02087
  51   35586.3    281.0   0.029082678   0.00707   0.05618  -0.06055   0.01583
  52   35678.9    280.3   0.053154879   0.01296   0.09553   0.00384   0.06182
  53   35697.4    280.1   0.002619196   0.00064  -0.00429  -0.00152  -0.02487
  54   36039.8    277.5   0.228500585   0.05628   0.19986  -0.08507   0.09541
  55   36138.5    276.7   0.151965444   0.03753  -0.16446   0.05248  -0.08793
  56   36153.6    276.6   0.028094758   0.00694  -0.06656   0.04071  -0.02922
  57   36379.1    274.9   0.000391097   0.00010   0.00687  -0.00707  -0.00021
  58   36471.0    274.2   0.011777384   0.00294   0.03656  -0.03767   0.01342
  59   36704.0    272.4   0.008337864   0.00209   0.03365  -0.02531   0.01786
  60   36850.1    271.4   0.026034534   0.00656   0.02452  -0.07716  -0.00115
  61   36984.9    270.4   0.004477453   0.00113  -0.02650   0.01616  -0.01299
  62   37007.0    270.2   0.015094055   0.00382  -0.03483  -0.03847  -0.03353
  63   37228.0    268.6   0.001481185   0.00038   0.00229  -0.01904  -0.00304
  64   37329.5    267.9   0.000149991   0.00004  -0.00613   0.00079   0.00023
  65   37603.7    265.9   0.000297360   0.00008   0.00820  -0.00260   0.00153
  66   37660.1    265.5   0.001276418   0.00033   0.01213   0.00626   0.01193
  67   37870.4    264.1   0.010273676   0.00266  -0.02531   0.04478  -0.00372
  68   37985.8    263.3   0.000447227   0.00012   0.00765  -0.00521   0.00553
  69   38164.1    262.0   0.044525257   0.01161  -0.06218   0.08577  -0.01975
  70   38375.8    260.6   0.020781514   0.00545   0.05418  -0.04344   0.02505
  71   38569.0    259.3   0.000035365   0.00001   0.00254  -0.00158   0.00061
  72   38595.0    259.1   0.070327892   0.01855   0.09477  -0.08767   0.04341
  73   38634.6    258.8   0.000316033   0.00008  -0.00777   0.00285   0.00388
  74   38758.3    258.0   0.038180098   0.01011   0.05122  -0.08557   0.01298
  75   38868.6    257.3   0.011362611   0.00302   0.01624  -0.05234  -0.00393
  76   39069.5    256.0   0.019333491   0.00516   0.00308   0.06947   0.01806
  77   39421.1    253.7   0.020714129   0.00558  -0.01916   0.07158   0.00952
  78   39548.4    252.9   0.033732885   0.00912  -0.04823   0.08183  -0.00979
  79   39669.3    252.1   0.008937779   0.00242  -0.01580   0.04655   0.00251
  80   39744.0    251.6   0.000486468   0.00013   0.00822   0.00347  -0.00725
  81   39789.2    251.3   0.003889896   0.00106  -0.00886  -0.02735  -0.01521
  82   40116.2    249.3   0.002968210   0.00081  -0.01157  -0.02275  -0.01275

-------------------------------------------------------------------
                             CD SPECTRUM
-------------------------------------------------------------------
State   Energy Wavelength       R         MX        MY        MZ   
        (cm-1)   (nm)       (1e40*cgs)   (au)      (au)      (au)  
-------------------------------------------------------------------
   0    6853.0   1459.2     -0.59235   0.11267   0.13461  -0.32568
   1   10204.9    979.9      0.14119  -0.01995  -0.12967   0.12337
   2   14718.3    679.4     14.54440   0.73899   0.09798  -0.74446
   3   15297.1    653.7     47.17788  -0.06356  -2.37860  -0.14679
   4   16182.3    618.0     -0.17079   0.00051  -0.50800   0.27544
   5   17487.6    571.8      1.97082  -0.00108   0.38744  -0.23518
   6   20899.6    478.5     -0.74795  -0.05182  -0.17157   0.19508
   7   21382.1    467.7     -0.04748   0.01767   0.07519  -0.13888
   8   22238.8    449.7    -28.12732   0.66784   1.53459  -4.89072
   9   23221.4    430.6      0.15654  -0.14452  -0.14941   0.04993
  10   23775.3    420.6     -0.93359  -0.06657  -0.25240   0.73870
  11   24525.9    407.7      0.06547   0.16193   0.13806   0.14886
  12   25008.4    399.9     -0.04108  -0.17588  -0.06736   0.55634
  13   25299.9    395.3      0.26213  -0.00250   0.03819  -0.21428
  14   25722.1    388.8     12.45741   0.05715  -0.82298   4.20125
  15   26337.9    379.7     -0.33696   0.03686   0.01108   0.58722
  16   27053.2    369.6     -9.27319   0.70415   1.05806  -4.15860
  17   27344.3    365.7      1.14671  -0.35511  -0.48960  -0.71472
  18   27542.3    363.1      0.08944  -0.81713  -1.11257   0.92248
  19   27920.4    358.2     -0.61538  -0.02081  -0.21283   0.03269
  20   28169.1    355.0     -2.32780   0.69758   0.78501  -1.92486
  21   28595.7    349.7    -15.42542   0.74009   1.34219  -3.48188
  22   28990.9    344.9     -5.65784  -0.57100  -0.73463   1.37735
  23   29040.1    344.4      2.48110   0.41057   0.05767   0.22302
  24   29557.6    338.3     -0.19758   0.06754   0.11323  -0.13607
  25   29714.2    336.5     -0.08335  -0.10356  -0.11446  -0.09349
  26   29899.0    334.5     -0.26652  -0.08393  -0.02427   0.00972
  27   30221.4    330.9     -3.62302   1.02443   1.35832  -2.26925
  28   30330.0    329.7      7.77602  -1.40626  -1.49756   2.76936
  29   30542.4    327.4     -0.31612   0.23465   0.42444  -0.26914
  30   30895.8    323.7      0.33802   0.84982   1.02371  -2.24056
  31   31387.1    318.6     -0.95908  -0.05117   0.27202   1.05945
  32   31996.3    312.5    -24.77134   0.48988   0.58033  -0.68594
  33   32016.4    312.3     39.85800  -0.33461  -0.41907   1.51432
  34   32131.3    311.2    -31.75355   1.06409   1.63617  -2.68937
  35   32135.6    311.2      2.51129  -0.27647  -0.19873   0.71685
  36   32293.1    309.7    -17.39821  -1.52814  -2.19092   3.61492
  37   32469.7    308.0    -12.29673   1.24775   2.07396  -3.01524
  38   32665.2    306.1      0.58681  -0.83146  -0.72591   2.11549
  39   32754.0    305.3     -0.00268   0.20504   0.22359   0.23375
  40   33190.1    301.3      7.01310  -2.12345  -2.36618   4.09890
  41   33354.2    299.8     -0.31516  -0.06323  -0.06547   0.00411
  42   33521.2    298.3     -3.85753  -0.00353  -0.22616  -0.67492
  43   34324.4    291.3     -0.52353   0.15728   0.35319  -0.21514
  44   34420.8    290.5     -1.28739   0.10430   0.32998   0.10207
  45   34454.7    290.2     -1.20228   0.05486   0.20359   0.11408
  46   34647.5    288.6     -4.63452  -0.42673  -0.58540   1.02663
  47   34946.0    286.2      0.10570  -0.11195  -0.26311  -0.18265
  48   35136.1    284.6      0.91537  -0.08262  -0.21032  -0.24408
  49   35185.9    284.2      3.07133  -0.69577  -0.14807  -1.15342
  50   35283.8    283.4      0.77227   0.10492  -0.23535   0.82234
  51   35586.3    281.0     -0.98606   0.43769   0.43603   0.08834
  52   35678.9    280.3     -7.89573   1.38782   1.42505  -2.17706
  53   35697.4    280.1      3.97962  -0.38429  -0.66227   0.19610
  54   36039.8    277.5      1.07472   1.78216   2.16401  -1.76888
  55   36138.5    276.7      3.57704  -1.19274  -1.75744   1.18188
  56   36153.6    276.6     -0.36431  -0.57875  -0.67119   0.37027
  57   36379.1    274.9      0.26802   0.02084   0.03065  -0.01775
  58   36471.0    274.2      0.43823   0.40105   0.35324  -0.08201
  59   36704.0    272.4      0.71644   0.61905   0.49641  -0.47981
  60   36850.1    271.4      4.88647   0.57440   0.21277   0.32653
  61   36984.9    270.4      0.82477  -0.46243  -0.37746   0.46698
  62   37007.0    270.2     -1.10830  -0.65126  -0.74176   1.50550
  63   37228.0    268.6     -0.30732  -0.23975  -0.13409   0.65422
  64   37329.5    267.9      0.14807  -0.06970  -0.33715  -0.06353
  65   37603.7    265.9     -0.35315   0.22120   0.36517  -0.17201
  66   37660.1    265.5      3.39731   0.26040   0.08028  -0.57923
  67   37870.4    264.1     -2.12534  -0.26048  -0.14858  -0.17704
  68   37985.8    263.3     -0.13564   0.17862   0.13160  -0.13961
  69   38164.1    262.0     -1.41341  -0.86278  -0.60786   0.02712
  70   38375.8    260.6     -0.82944   0.76074   0.65673  -0.47433
  71   38569.0    259.3      0.01543   0.02633   0.02332  -0.03735
  72   38595.0    259.1      0.52192   1.60206   1.24720  -1.00354
  73   38634.6    258.8     -0.78659   0.09544   0.16786   0.21121
  74   38758.3    258.0      5.64767   0.45956   0.36617   0.48005
  75   38868.6    257.3     -0.65355  -0.22888  -0.16274   1.08035
  76   39069.5    256.0      0.92347  -0.37471   0.12683  -0.50521
  77   39421.1    253.7     -5.44163  -0.27892   0.01152  -0.52048
  78   39548.4    252.9     -6.05475   0.10641  -0.07668  -1.35514
  79   39669.3    252.1      0.48986   0.04587   0.05938  -0.74763
  80   39744.0    251.6      1.91465  -0.26469  -0.34149  -0.24076
  81   39789.2    251.3     -3.47484   0.28939  -0.09835  -0.13149
  82   40116.2    249.3     -0.17951  -0.09312  -0.21594   0.47793

sTD-DFT done

Total run time:        2.803 sec

           *** ORCA-CIS/TD-DFT FINISHED WITHOUT ERROR ***

-------------------------   --------------------
FINAL SINGLE POINT ENERGY     -4878.636352697635
-------------------------   --------------------


                            ***************************************
                            *     ORCA property calculations      *
                            ***************************************

                                    ---------------------
                                    Active property flags
                                    ---------------------
   (+) Dipole Moment


------------------------------------------------------------------------------
                       ORCA ELECTRIC PROPERTIES CALCULATION
------------------------------------------------------------------------------

Dipole Moment Calculation                       ... on
Quadrupole Moment Calculation                   ... off
Polarizability Calculation                      ... off
GBWName                                         ... xtbopt.gbw
Electron density file                           ... xtbopt.scfp
The origin for moment calculation is the CENTER OF MASS  = (12.978871, -11.099726 -3.682866)

-------------
DIPOLE MOMENT
-------------
                                X             Y             Z
Electronic contribution:    -27.39259      42.65737      -4.51018
Nuclear contribution   :     26.15054     -41.89287       4.04175
                        -----------------------------------------
Total Dipole Moment    :     -1.24205       0.76450      -0.46843
                        -----------------------------------------
Magnitude (a.u.)       :      1.53186
Magnitude (Debye)      :      3.89367



--------------------
Rotational spectrum 
--------------------
 
Rotational constants in cm-1:     0.001178     0.000906     0.000514 
Rotational constants in MHz :    35.307617    27.155354    15.402614 

 Dipole components along the rotational axes: 
x,y,z [a.u.] :    -1.321628    -0.770808     0.075741 
x,y,z [Debye]:    -3.359311    -1.959239     0.192519 

 

Timings for individual modules:

Sum of individual times         ...     1171.704 sec (=  19.528 min)
GTO integral calculation        ...        2.038 sec (=   0.034 min)   0.2 %
SCF iterations                  ...     1166.146 sec (=  19.436 min)  99.5 %
CIS module                      ...        3.520 sec (=   0.059 min)   0.3 %
                             ****ORCA TERMINATED NORMALLY****
TOTAL RUN TIME: 0 days 0 hours 19 minutes 32 seconds 592 msec
