,SMILES,new name,old name,homo,lumo,bandgap,
0,C12=CC(C#N)=C(C#N)C=C1C(=O)C(C2=C(C#N)C#N)=C,0atl,10atl,-8.108638997,-4.389141986,3.719497011,
1,C1=c2c(nc3C(=O)C=CC(=O)c3n2)=C(S1),0ac,25a,-6.908970664,-3.337449165,3.571521499,
2,C1=CC=C(C2C1N=C(C(=N2)F)F),1ac,25u,-6.590298134,-2.097235869,4.493062265,
3,C12=CSC=C1C(=O)C(C2=C(C#N)C#N)=C,3atl,15atl,-7.356461891,-3.596746453,3.759715438,
4,C1=NN=C(C2C1=NSN=2),2ac,6a,-6.865432448,-3.393014813,3.472417635,
5,C1=C([N+](=O)[O-])C(C)=C(S1),3ac,8d,-7.16881218,-2.426983433,4.741828747,
6,C1=C(C(=O)O)C(C#N)=CC2=C1C(=C(C#N)C#N)C(C2=O)=C,6atl,11atl,-8.077291481,-4.367536146,3.709755335,
7,C1=NOC(C=O)=C1,7atl,30utl,-7.775435587,-2.579666514,5.195769073,
8,C1(F)=C(C(=O)O)C(F)=C(F)C(=C1F),8atl,6utl,-7.568901174,-2.346737058,5.222164116,
9,C1C2=NSN=C2C(C3C1=NSN=3),4ac,18a,-7.280242802,-2.082949891,5.197292911,
10,C1(F)=C(C#N)OC(C=O)=C1,10atl,31utl,-7.662317859,-3.050777223,4.611540636,
11,C(=O)(N1C=NC=C1)N2C=CN=C2,11atl,37utl,-7.173492538,-2.060935881,5.112556657,
12,C1=C(F)C(F)=CC2=C1C(=C(C#N)C#N)C(C2=O)=C,12atl,1atl,-7.569336557,-3.760722259,3.808614298,
13,C1=C([N+](=O)[O-])C(CO)=CC(=C1),13atl,40utl,-7.497825037,-2.543012778,4.954812259,
14,C1=NC=C(N1C(=O)N2C=CN=C2),14atl,36utl,-7.205656395,-2.045071643,5.160584752,
15,C1(=O)C2=C(F)SC=C2/C(=[N+](\[N+](=O)[O-])/C(=O)[O-])/C1=C,15atl,50utl,-7.480709075,-3.347381321,4.133327754,
16,C1=C2C(N=C(C(=N2)C#N)C#N)=C(C3C1=NSN=3),5ac,16a,-7.373496218,-4.332515094,3.040981124,
17,C1(=O)C2=C(C=C(C(=C2F)F)F)C(=C(C#N)C#N)C1=C,17atl,21atl,-7.678372576,-3.889840282,3.788532294,
18,C1(C(=O)C2=C(C1=C(C#N)C#N)C=CC3=C2C=CC=C3)=C,18atl,42utl,-6.919338202,-3.515139509,3.404198693,
19,C12=CSC(Cl)=C1C(=O)C(C2=C(C#N)C#N)=C,19atl,34atl,-7.289385827,-3.687414788,3.601971039,
20,C1=C(C)C(C)=CC2=C1C(=C(C#N)C#N)C(C2=O)=C,20atl,22atl,-7.171968701,-3.388987528,3.782981173,
21,C1=C(C#N)c2c(S1)sc3c2C(C#N)=C(S3),6ac,49u,-6.773702869,-1.774019037,4.999683832,
22,C1(C)(C)C(=C(C(=C(C#N)C#N)O1)C#N),22atl,19utl,-7.221248519,-3.265502263,3.955746256,
23,O1C(=NC(=C1)C=O),23atl,34utl,-7.331046458,-1.919844849,5.411201609,
24,C1(C(=O)C2=C(C1=C(C#N)C#N)C=CC(=C2)Cl)=C,24atl,29atl,-7.393306107,-3.67389073,3.719415377,
25,C1(C(=O)C2=C(/C/1=C/3\C(=O)C4=C(C3=O)C=CC=C4)C=CC=C2)=C,25atl,28atl,-6.878357856,-3.152411747,3.725946109,
26,C1=CN=C(C2C1=NSN=2),7ac,17a,-7.244949635,-2.948271936,4.296677699,
27,c1(=C(C#N)C#N)c2c(C=CC=C2)c(s1)=C,27atl,45utl,-6.631305691,-3.128601785,3.502703906,
28,C1(C(=O)C2=C(C1=O)C(=CC=C2F)F)=C,28atl,24atl,-7.132648249,-2.824705037,4.307943212,
29,C1=CC=C(C2=NC=CN=C12),8ac,7a,-6.823173167,-2.133290954,4.689882213,
30,S1C(C)(C)C(=C(C1=C(C#N)C#N)C#N),30atl,17utl,-7.123940606,-3.35149024,3.772450366,
31,C1=C2C(=CC=C1)OC(C)=C(C2=O),31atl,25utl,-6.650489718,-1.595947733,5.054541985,
32,C1=CC=C(c2c1nsn2),9ac,3a,-6.785594244,-2.500780709,4.284813535,
33,C(=C(C(=O)OC)C#N),33atl,44utl,-8.196695039,-2.4601269,5.736568139,
34,C1=CC(F)=C(c2c1nsn2),10ac,26u,-6.907174713,-2.652348124,4.254826589,
35,C1(=O)C2=C(C=C(C(=C2)Cl)Cl)C(=O)C1=C,35atl,43utl,-7.211860591,-2.957496596,4.254363995,
36,C1=C(C=C2C(=C1)NC(=O)C(=C2)C#N),36atl,39utl,-6.739688638,-2.620157055,4.119531583,
37,C1(=NC=C(S1)C#N),37atl,38utl,-7.648303996,-2.262191285,5.386112711,
38,C1(SC(=O)N(C1=O)C)=C,38atl,6atl,-7.020755034,-2.118896131,4.901858903,
39,C1=C(F)C(F)=C(C(=C1F)F),11ac,7u,-7.019993115,-1.134769179,5.885223936,
40,C1=NC=CC(=N1)C=C,12ac,32u,-6.974767793,-1.882157081,5.092610712,
41,C1=C2C(=CS1)C(=O)C(C2=C([N+](=O)[O-])[N+](=O)[O-])=C,41atl,48utl,-7.576166614,-3.77389257,3.802274044,
42,C1=C(F)C(F)=C(c2c1nn(n2)C),13ac,51u,-6.688367966,-1.760930361,4.927437605,
43,C1=CSC2=C1C(=O)C(C2=C(C#N)C#N)=C,43atl,35atl,-7.288977656,-3.607358893,3.681618763,
44,C1=C(F)C(F)=C(S1),14ac,6u,-6.953325222,-0.843144766,6.110180456,
45,C1=CC=CC2=CC3=C(C=C12)C(=O)C(C3=C(C#N)C#N)=C,45atl,41utl,-6.874221725,-3.577671272,3.296550453,
46,C1=CC(=CC2=C1C(=C(C#N)C#N)C(=C)C2=O)C(F)(F)(F),45atl,12atl,-7.727870086,-3.878166597,3.849703489,
47,C1=CN=C(C=N1),15ac,57u,-6.898684761,-1.577199089,5.321485672,
48,C1=C2C(=CC=C1)SC(=N2),47atl,22utl,-6.631332903,-1.226879718,5.404453185,
49,C1=CC=C(S1),16ac,2u,-6.546705495,-0.447600073,6.099105422,
50,C1=NC(=NC=N1),17ac,33u,-7.639297028,-1.746726018,5.89257101,
51,C1(=O)C2=C(C=CC=C2)C(=O)N1,50atl,4utl,-7.493607272,-2.435745499,5.057861773,
52,C1(=C(C#N)C#N)C2=C(C=C3C(=C2)SC=C3)C(=O)C1=C,51atl,32atl,-6.890902305,-3.517370843,3.373531462,
53,C1=C(C(=O)O)C(=NO1),18ac,46u,-8.132993187,-1.792413933,6.340579254,
54,C1=CC=C2C(=C1)C(=O)C(C2=O)=C,53atl,27atl,-6.94916188,-2.670906288,4.278255592,
55,C1=C(F)C=CC2=C1C=C1C(=C2)C(=O)C(C1=C(C#N)C#N)=C,54atl,52utl,-6.997598145,-3.672639006,3.324959139,
56,C1(C2=CC=CC=C2)(C3=CC=CC=C3)C(=C(C(=C(C#N)C#N)S1)C#N),55atl,21utl,-7.04208876,-3.315544,3.72654476,
57,C1=CC(=C(C#N)C#N)C=C(O1),19ac,40u,-6.609454949,-2.653382156,3.956072793,
58,C1=NN=C(C2C1=NON=2),20ac,5a,-7.303100365,-3.604175161,3.698925204,
59,c1(C#N)c(F)c(F)c(s1)C#C,58atl,28utl,-7.124947427,-2.66780419,4.457143237,
60,C1=C2C3=C(C=C1)C(=O)N(C)C(=O)C3=CC=C2,59atl,9utl,-6.697701471,-2.624075495,4.073625976,
61,C1=COC=C1C(=O)C2=CC=C(S2),21ac,22u,-6.718001164,-2.009805688,4.708195476,
62,C1=CC=CC2=C1C(=C(C#N)C#N)C(C2=C(C#N)C#N)=C,61atl,19atl,-7.421116142,-3.896371014,3.524745128,
63,C1=CC=C(C2C1=NC(=C(N=2)C)C),22ac,8a,-6.617645576,-1.80944826,4.808197316,
64,C1(F)=C(F)C(F)=C(F)C(=C1F),63atl,5utl,-7.3010323,-1.127830276,6.173202024,
65,C1=C2C(N=CC=N2)=C(c3c1nsn3),23ac,24a,-6.563685399,-3.353177346,3.210508053,
66,C1=CC=C2C(=C1)OC(=N2),24ac,45u,-6.802193189,-1.064863131,5.737330058,
67,C1=C(C2=CC(=CC=C2S1)C#N),25ac,20u,-6.651632596,-1.570096917,5.081535679,
68,C1=C(OC)C(OC)=C(C2C1=NON=2),26ac,13a,-6.823445281,-2.437078856,4.386366425,
69,C1(=C(C#N)C#N)C2=C(C=C3C(=C2)SC(=C3)Br)C(=O)C1=C,68atl,33atl,-6.919310991,-3.59315455,3.326156441,
70,C1(=C(C(=C(C#N)C#N)SC1=O)C#N),69atl,3utl,-8.094706768,-4.757965099,3.336741669,
71,C1=C(C(=O)O)C(=CS1),27ac,47u,-7.279263192,-1.584083569,5.695179623,
72,C1=C2C(N=C(C(=N2)F)F)=C(C3C1=NSN=3),28ac,15a,-6.867799839,-3.504064476,3.363735363,
73,C1=NC=C(N=N1),29ac,31u,-6.648421652,-2.29432793,4.354093722,
74,C1=NC2=C(S1)N=C(S2),30ac,12a,-6.827962371,-1.647867056,5.180095315,
75,C1=C2C(=O)N(C)C(=O)C2=C(S1),31ac,10a,-7.433932705,-1.914892377,5.519040328,
76,C1(=C(C#N)C#N)C2=C(C=C(C(=C2)Cl)Cl)C(=O)C1=C,75atl,3atl,-7.468899334,-3.775579676,3.693319658,
77,C1=CN=C(N=C1),32ac,21u,-7.005462236,-1.353194967,5.652267269,
78,C1=C(F)C(F)=CC2=C1C=C1C(=C2)C(=O)C(C1=C(C#N)C#N)=C,77atl,53utl,-7.098987766,-3.727034565,3.371953201,
79,C(\c1c(c(c(c(c1F)F)F)F)F)=C(/c2c(c(c(c(c2F)F)F)F)F),33ac,29u,-6.730246287,-2.474004706,4.256241581,
80,C1=CC(SC1=O)=C,79atl,27utl,-6.750409924,-2.5009984,4.249411524,
81,c1(=C(C#N)C#N)n(C)c(=O)c(s1)=C,80atl,20atl,-6.99827843,-3.002313747,3.995964683,
82,C1(=C(C#N)C#N)C2=C(C=C(C=C2)F)C(=O)C1=C,81atl,13atl,-7.437932778,-3.621345545,3.816587233,
83,C1=C2C(=O)c3c(c(sc3C(F)(F)F)C(F)(F)F)C(=O)C2=C(S1),34ac,18u,-7.61537822,-3.055892964,4.559485256,
84,C1(=C(C#N)C#N)C2=C(C=C(C(=C2)C(=O)OC)C#N)C(=O)C1=C,83atl,46utl,-7.803109566,-4.081217953,3.721891613,
85,C1(=C(C#N)C#N)C2=C(C=C(C(=C2)C(=O)OC)C(=O)OC)C(=O)C1=C,84atl,47utl,-7.482940409,-3.70219057,3.780749839,
86,c1(C)nnc(c2c1non2)(C),35ac,27a,-6.891419321,-3.221338185,3.670081136,
87,C1(=C(C#N)C#N)C2=C(C=CC(=C2)C)C(=O)C1=C,86atl,16atl,-7.356298623,-3.495737792,3.860560831,
88,C1(=O)C2=C(C=C(C(=C2)Br)Br)C(=C(C#N)C#N)C1=C,87atl,31atl,-7.418150101,-3.786110482,3.632039619,
89,C=C,36ac,59u,-7.506233355,0.157499497,7.663732852,
90,C1(=C(C#N)C#N)C2=C(C=C3C(=C2)C=CC=C3)C(=O)C1=C,89atl,51utl,-6.874221725,-3.577671272,3.296550453,
91,C1=CC(F)=C(C=C1F),37ac,5u,-6.809159304,-0.895009666,5.914149638,
92,C1=NN=C(c2c1nsn2),38ac,28a,-6.865432448,-3.393014813,3.472417635,
93,o1nc(C#N)c(c1C#N)C(=O)O,92atl,33utl,-8.89651744,-3.774654489,5.121862951,
94,C1=CC=C(c2c1non2),39ac,22a,-7.07430704,-2.64108261,4.43322443,
95,C1=CC=C(c2c1n[se]n2),40ac,23a,-6.640992944,-2.60845616,4.032536784,
96,C12=CSC(C)=C1C(=O)C(C2=C(C#N)C#N)=C,95atl,14atl,-7.159587521,-3.491003011,3.66858451,
97,C1(=O)N(C)C(=O)N(C)C(=O)C1=C,96atl,25atl,-7.438177681,-2.658116937,4.780060744,
98,C1=C(C#N)SC(=C1C#N),41ac,48u,-7.755135894,-2.59019732,5.164938574,
99,C1(=O)C2=C(C=CC(=C2)Br)C(=C(C#N)C#N)C1=C,98atl,30atl,-7.360108217,-3.692040724,3.668067493,
100,C1(C2=CC=CC=C2)(C3=CC=CC=C3)C(=C(C(=C(C#N)C#N)O1)C#N),99atl,20utl,-7.163397114,-3.22419538,3.939201734,
101,C1=CC=CC2=C1C(=C(C#N)C#N)C(C2=O)=C,100atl,2atl,-7.43385107,-3.566705084,3.867145986,
102,C1=C(F)C(F)=C(C2C1=NSN=2),42ac,2a,-7.121001777,-2.754989468,4.366012309,
103,C1(=O)C2=C(C=CS2)C(=C(C#N)C#N)C1=C,102atl,23atl,-7.414530987,-3.511955777,3.90257521,
104,c1sc(c2c1cc(C)c(C)c2)C=C,103,862,-5.233511264,-1.717854738,3.515656526,
105,C1=[S]c2cscc2[S]=C1C=C,104,280,-5.475719802,-1.360841366,4.114878436,
106,c1c2c(OCC)c3c(c(c2sc1)OCC)cc(s3),105,864,-5.026296567,-1.058985472,3.967311095,
107,c1sc(c2c1C(=O)CC2=O)C=C,106,556,-6.666000207,-2.482821195,4.183179012,
108,c1sc(c2c1CC[C@@H](C=O)C2)C=C,107,883,-5.893632254,-1.296105481,4.597526773,
109,c1sc(c2c1[C@H](C)CC[C@H]2C=C),108,787,-6.181936878,-0.410891914,5.771044964,
110,c(s1)cc(c(=C(CN)(CN))2)c1c(s3)c2cc3C=C,109,647,-5.066623839,-1.887762626,3.178861213,
111,c1cc(SC)sc1C=C,110,403,-5.32597555,-1.162524792,4.163450758,
112,c1scc2c1c(ccc2OC)C=C,111,950,-5.175061209,-1.546586281,3.628474928,
113,c1oc2c(C(=O)N)c(oc2c1),112,163,-6.155106453,-0.991093066,5.164013386,
114,c(s1)c2c(=O)n(C)c(=O)c2c1C=C,113,579,-6.711497643,-2.246653584,4.464844059,
115,c1[nH]c(cc1)C#CC=C,114,954,-5.474087119,-1.163014597,4.311072522,
116,c1sc(c2c1cc(C(=O)OC)s2),115,952,-5.914748289,-1.927572883,3.987175406,
117,c1sc(c2c1sc(=O)c(=O)s2),116,546,-6.858085374,-2.782636235,4.075449139,
118,c1sc(c(c1C#N)C(F)(F)F)C=C,117,453,-7.019394465,-2.355689604,4.663704861,
119,c1c(c2c(s1)c1c(n2CC)CCS1),118,926,-4.795462387,-0.274508452,4.520953935,
120,c1[nH]c2cc([nH]c2c1)C=C,119,367,-4.836606002,-0.607521383,4.229084619,
121,c1sc(c(c1OCC)ON(=O)=O)C=C,120,421,-6.094860446,-1.896579115,4.198281331,
122,c(s1)c2scnc2c1C=C,121,436,-5.812515115,-1.832605149,3.979909966,
123,c1oc2c(n1)cc1c(c2)oc(n1)C=C,122,870,-6.378185387,-1.919790427,4.458394961,
124,c1sc(CC)c2c1nc(s2),123,800,-5.957524586,-1.28821418,4.669310406,
125,c1oc(c(c1C(F)(F)F)OC)C=C,124,966,-5.760133199,-1.121109064,4.639024135,
126,c1c2n(CC)c3c(c2ccc1)cccc3C=C,125,686,-5.526006442,-1.158524719,4.367481723,
127,C1=CC=C(C1=S),126,205,-6.300088712,-3.524554649,2.775534064,
128,C1=C(Oc2c(csc2)O1),127,892,-5.4733252,-0.454947147,5.018378054,
129,c1oc(cc1C),128,472,-6.129500539,0.261964004,6.391464543,
130,N1c2cscc2N(CC(=O)C1)C=C,129,516,-5.383473207,-1.202988122,4.180485085,
131,c1cc2c(cc1)c1c(C2(CC)CC)cc(cc1)C=C,130,41,-5.742799546,-1.503184122,4.239615425,
132,c1sc(c(c1C#N)C(F)(F)F),131,428,-7.720359744,-1.958675496,5.761684248,
133,c1oc(c(c1F)F)C=C,132,806,-6.169365219,-1.27466291,4.894702309,
134,c1cc2c(C(=O)N(C2=O)CC)cc1,133,890,-7.39632657,-2.356614791,5.03971178,
135,c1c2cscc2c(N)c(c1),134,552,-5.017643346,-1.297738164,3.719905182,
136,c(s1)c2c(=O)c3cn(CC)cc3c(=O)c2c1C=C,135,56,-6.236087535,-2.240422177,3.995665358,
137,c1sc(c(c1SCC)SCC)C=CC=C,136,264,-5.484890039,-1.800169178,3.684720861,
138,c1cc(cnc1)C=C,137,295,-6.603931038,-1.428026276,5.175904762,
139,N1C(=O)C=C(C1=O),138,965,-7.62283414,-2.875372635,4.747461504,
140,c1sc(c2c1ocn2)C=C,139,170,-5.877822439,-1.735106756,4.142715683,
141,c(oc1c(F)s2)csc1c2,140,445,-5.446113815,-0.67506004,4.771053775,
142,c1sc(c2c1[C@H](S)CCC2)C=C,141,359,-5.82459697,-1.271941771,4.552655199,
143,c1sc(c2c1c(F)ccc2F)C=C,142,253,-5.563530942,-2.107385715,3.456145227,
144,c1sc2c(c1)sc1cc(sc21)C=C,143,559,-5.555095412,-1.701419062,3.853676351,
145,C(=C)C#CC=C,144,959,-6.209692491,-1.587974797,4.621717694,
146,c1sc2c(c1)C(=S)c1c2oc(c1),145,533,-5.774528021,-3.166969838,2.607558184,
147,c1c(OC)c(cc(c1)OC),146,15u,-5.505080887,-0.231215139,5.273865748,
148,c1oc2CCc2c1C=C,147,469,-5.829195694,-0.796558875,5.032636819,
149,c1sc2nc(sc2c1),148,288,-6.444200208,-1.290418302,5.153781906,
150,c1sc(c2c1cc(N(=O)=O)c(N(=O)=O)c2),149,582,-6.885840987,-3.039947092,3.845893895,
151,c1occc1S,150,89,-5.891428132,0.075892553,5.967320685,
152,C1=CC=C(C1=O)C=C,151,122,-6.164603226,-3.027212164,3.137391062,duplicate?
153,c1sc(c2c1cc(OC)cc2)C=C,152,349,-5.256559307,-1.794427576,3.462131731,
154,c1sc(c(c1C=C)OC)C=C,153,482,-5.827889548,-1.330473461,4.497416087,
155,c1sc(c2c1C[C@H](C(=O)O)[C@@H](O)C2)C=C,154,419,-6.069934818,-1.378447132,4.691487685,
156,c1sc(c2c1cc(S)c(O)c2)C=C,155,493,-5.275171894,-1.944335096,3.330836798,
157,c1sc(c2c1c(C(=O)O)ccc2O),156,958,-5.922666802,-2.132719515,3.789947287,
158,c1sc(c2c1C(=O)SC2=O)C=C,157,371,-6.931229577,-2.676511834,4.254717744,
159,N1[C@@H]2C[C@@H]3NSN[C@@H]3C[C@@H]2N(S1)C=C,158,804,-5.086107191,0.039755834,5.125863025,
160,c1sc(c(c1)C#N)C=C,159,47,-6.572093717,-2.102814203,4.469279515,
161,c1sc(c2c1[C@H](C#N)CC[C@H]2OC)C=C,160,568,-6.330946423,-1.509524374,4.821422049,
162,c1cccc2c1N(C)C(=O)C2C1C(=O)N(C)c2cc(ccc12)C=C,161,121,-6.003593461,-1.365684993,4.637908468,
163,C1SC[C@](C1)(C(=O)N)NC=C,162,796,-5.980246092,0.331353036,6.311599128,
164,c1cc2c(C(CN)CN)c3cC(ccc3c2cc1)C=C,163,187,-4.689855002,-2.575693652,2.11416135,
165,c1scc(C)c1C=CC=C,164,304,-5.651532561,-1.468326337,4.183206224,
166,c1oc(cc1C(=O)O)C=C,165,850,-6.468227861,-1.534041832,4.934186028,
167,c1sc(c2c1SCCCS2)C=C,166,754,-5.748432303,-1.433087594,4.31534471,
168,C1=CC(C#N)=C/C/1=C/1\C(=CC(=C1)C#N),167,315,-7.165165854,-4.300868253,2.864297602,
169,c1sc(cc1)C=C,168,324,-5.988953736,-1.268676405,4.720277331,duplicate?
170,c1sc(c2c1scn2)C=C,169,436,-5.812515115,-1.832605149,3.979909966,duplicate?
171,c1[nH]cnc1,170,167,-6.340035026,0.626242816,6.966277841,
172,c1c2c(ncc(CC)n2)c(s1),171,81,-6.285476199,-2.292423134,3.993053065,
173,c1scc2c1c(c(cc2)O)C=C,172,286,-5.380044572,-1.714126778,3.665917794,
174,C1=C2C(C(=O)N1)=C(OC2=O),173,289,-6.401940927,-2.784404975,3.617535951,
175,c1scc2c1nc(c(NC)n2)N(C)C=C,174,398,-5.638471096,-1.70492933,3.933541766,
176,c1c(C(=O)C)scc1C=C,175,24,-6.4371,-1.8596,4.5775,
177,c1sc(c2c1CC[C@@H](N)C2)C=C,176,679,-5.791535137,-1.117952543,4.673582594,
178,c(o1)c2c(=O)Nc(=O)c2c1C=C,177,447,-6.745702354,-2.229728102,4.515974252,
179,c1sc(c2c1c(C#N)ccc2),178,638,-6.158916047,-2.39903734,3.759878707,
180,Sc1cscc1SC=C,179,148,-6.028165342,-0.910601789,5.117563552,
181,c1sc(c(c1C#N)C#N)C=C,180,842,-7.112484613,-2.611912005,4.500572608,
182,c1sc(c2c1C[C@H](C(F)(F)F)CC2)C=C,181,75,-5.873196504,-1.218797936,4.654398567,
183,c1sc(c2c1cc(SCC)c(SCC)c2)C=C,182,874,-5.067657872,-1.801556959,3.266100913,
184,c1sc(c2c1CC[C@@H](C=O)C2),183,810,-6.235461673,-0.873975265,5.361486408,
185,c1sc(c2c1oc(=S)o2)C=C,184,793,-6.509262629,-2.029234617,4.480028012,
186,c1sc(c2c1sc(=O)s2)C=C,185,160,-6.238590982,-1.79627795,4.442313032,
187,c1sc(c2c1S(=O)(=O)CCC2),186,273,-6.99316269,-1.235696207,5.757466483,
188,c1sc(c2c1C[C@H](C#N)[C@@H](C#N)C2),187,123,-6.754328363,-1.016726191,5.737602172,
189,c1n(C)c(=O)c2c1c(=O)n(C)c2,188,4a,-5.684104589,-2.35462836,3.329476229,duplicate?
190,c1sc(c2c1[C@H](N)CC[C@H]2N)C=C,189,531,-5.672648596,-0.976290073,4.696358523,
191,c1sc(C(=O)O)cc1O,190,477,-6.591304955,-1.857122607,4.734182348,
192,c1sc(c2c1cc(C=O)cc2)C=C,191,611,-5.76761633,-2.434439352,3.333176978,
193,C1C2CC(=C)O[C@H](C1C=CC2C)CCC,192,68,-6.153963575,0.109253711,6.263217286,
194,c1occ(N(=O)=O)c1N,193,144,-6.134833971,-2.377241021,3.75759295,
195,c1sc(c2c1cc(C=C)cc2),194,285,-5.563286039,-1.720984047,3.842301992,
196,c1sc(c2c1[nH]c(N(=O)=O)c2),195,714,-6.06645176,-2.729519612,3.336932149,
197,c1sc(CC)c2c1nc(s2)C=C,196,685,-5.8430735,-1.86248325,3.980590251,
198,c1c2c(ncs2)c(c2c1ncs2)C=C,197,935,-6.095703999,-1.963328643,4.132375356,
199,c1sc2cc(C(=O)O)sc2c1,198,77,-6.596393484,-2.049779213,4.546614271,
200,c1sc2c(c1)C(=O)c1c2sc(c1),199,863,-5.905251515,-2.643613269,3.261638246,
201,c1sc(c2c1[C@H](C=C)CCC2),200,221,-6.175895951,-0.415789964,5.760105987,
202,c(s1)c2cc(OC)c(OC)cc2c1,201,891,-5.374629507,-1.332051721,4.042577786,duplicate?
203,c1cc(N(=O)=O)c(cc1),202,20,-7.794973361,-2.548400633,5.246572729,
204,c1sc2c(c1)sc1cc(sc21),203,61u,-5.762174053,-1.249220265,4.512953788,duplicate?
205,c1c2c(nccc2)c(s1),204,325,-6.035539627,-1.958348959,4.077190668,
206,c1sc(c2c1nc(OCC)c(OCC)n2),205,320,-5.940463047,-1.609281312,4.331181736,
207,c1c2ccccc2c(c1=O)C=C,206,602,-5.425705277,-3.556827351,1.868877925,
208,C1=C[C@@H]2[C@H](C1)[C@@H]1[C@@H](C=CC1)C2=C,207,212,-6.451057477,0.005387854,6.456445331,
209,c1sc(c(c1OC)C#N)C=C,208,738,-6.293830094,-2.008445119,4.285384975,
210,c1sc(c2c1CC[C@@H](O)C2),209,374,-6.39826739,-0.591112917,5.807154472,
211,c1c(CC)cc(s1)C=C,210,465,-5.853332193,-1.195586625,4.657745568,
212,c1sc(c2c1C=[S]C=C2)C=C,211,37,-4.203941299,-1.510340716,2.693600583,
213,c1cc(c(cc1)N(c1ccccc1)c1ccccc1)C=C,212,321,-5.229783304,-1.221138116,4.008645189,
214,c1sc(c(c1O)OC),213,452,-5.736105546,-0.061307251,5.674798295,
215,c1nc2c(s1)[C@H]1[C@H](C2(CC)CC)N(CS1),214,934,-6.07096885,-0.968915787,5.102053063,
216,c1sc(c2c1c(C)ccc2C)C=C,215,550,-5.272423545,-1.684030987,3.588392558,
217,c(s1)c(CCN)c(CCN)c1,216,570,-6.073363452,-0.144846203,5.928517249,
218,c1sc(c2c1[nH]nc2),217,916,-5.717248056,-1.228920572,4.488327484,
219,c1c(nc2cSc12),218,643,-6.024573439,-2.796241928,3.228331511,
220,c1sc(c(c1O)C(=O)O),219,228,-6.329803545,-1.836822914,4.492980631,
221,c1[nH]cc2c1S(=O)(=O)C(=C2)C=C,220,606,-6.083594933,-1.80982922,4.273765713,
222,c1csc2c1c(CC)c(CC)c1c(csc21)C=C,221,119,-5.697356533,-1.163586036,4.533770497,
223,c1occc1N,222,200,-5.427446805,0.524689927,5.952136732,
224,c1sc(c2c1CCC[C@H]2O)C=C,223,184,-5.929143111,-1.232675743,4.696467369,
225,c1sc(c2c1cc(C(=O)O)c(O)c2)C=C,224,755,-5.738962741,-2.326763901,3.41219884,
226,c(nc1c2)cs1nc2C=C,225,757,-5.777657331,-2.344859473,3.432797858,
227,c1sc(c(c1N(=O)=O)C#N),226,483,-7.981643463,-2.96446271,5.017180753,
228,c1n(CC)nc(c1CC)CCC=C,227,74,-6.176929984,0.416143712,6.593073695,
229,c1c(F)cccc1C=C,228,28,-6.480609041,-1.383807775,5.096801265,
230,C=Cc1oc(c(c1O)O)C=C,229,422,-5.239443346,-1.325820314,3.913623032,
231,c1c(OC)cc(c(c1)OCC)C=C,230,798,-5.420453479,-0.961242177,4.459211302,
232,c1sc(c2c1OCCCO2),231,145,-6.156766347,-0.317992246,5.838774102,
233,c1sc(c2c1c(C(F)(F)F)ccc2OC)C=C,232,358,-5.500291683,-2.10099104,3.399300643,
234,c1c2c(ccs1)nc1c2sc(c1)C=C,233,777,-5.631042388,-2.202407872,3.428634516,
235,c1sc(O)c(c1),234,259,-5.787371795,-0.082477708,5.704894087,
236,C=C,235,59u,-7.506233355,0.157499497,7.663732852,duplicate?
237,c1sc(c(c1C(F)(F)F)C(F)(F)F)C=C,236,501,-6.877595937,-2.190462074,4.687133863,
238,C1=CC=C(C1=O),237,48,-6.853949244,-2.961224555,3.892724689,duplicate?
239,C=C(C)CNC=C,238,505,-5.463991695,0.131594258,5.595585953,
240,c1sc(c2c1OSCS2)C=C,239,737,-5.753629678,-1.343698194,4.409931484,
241,N1CN[C@@H]2N[C@H]3[C@@H](N[C@H]12)NCN3C=C,240,520,-5.337213852,0.761565033,6.098778886,
242,C1=C(Oc2c(csc2)O1)C=C,241,78,-5.432045529,-0.922955758,4.509089771,
243,c1sc2c(c1)c1c(scc1)c(c2),242,595,-5.828624255,-1.220185717,4.608438538,
244,c1sc(c2c1CCC[C@H]2C=O)C=C,243,459,-5.906639296,-1.456380539,4.450258757,
245,c1sc(c2c1oc(=O)c(=O)s2),244,490,-6.940998464,-2.621762527,4.319235938,
246,c1sc(c(c1OC)OC),245,9u,-5.648974691,0.019809888,5.668784579,duplicate?
247,c1sc2c(c1)C(C)(C)c1c2sc(c1)C=C,246,930,-5.189537666,-1.609689483,3.579848183,
248,c1sc(c2c1oc(=O)c(=O)o2),247,987,-7.288215738,-2.5043454,4.783870337,
249,c1occc1C=CC=C,248,414,-5.72911222,-1.345466934,4.383645286,
250,c1c(cc2c(c1)nccn2),249,7a,-6.823173167,-2.133290954,4.689882213,duplicate?
251,c1sc(c2c1[C@H](S)CC[C@H]2O),250,732,-6.280931897,-0.86483224,5.416099658,
252,c1c(C)Nc(C)c1C=C,251,678,-5.171686997,0.056436413,5.22812341,
253,c1c(OCC)cc(CC)c(OCC)c1C=C,252,347,-5.712105104,-0.943255451,4.768849653,
254,c1sc(c2c1CC[C@@H](OC)C2),253,860,-6.143596037,-0.302318488,5.841277549,