,SMILES,new name,old name,homo,lumo,bandgap,
0,C1=C2C(OCCO2)=C([Si]1(C)C),0dc,34u,-5.557843762,-0.91925501,4.638588753,
1,C1=CC=C(S1)C2=CC=C(S2),1dc,15d,-5.666906994,-1.439319001,4.227587993,
2,C1=CC2=C(C=C1)C3=C(N2C)C=C(C=C3),2dc,12d,-5.565435739,-0.942901703,4.622534035,
3,C1=C(OC)C=C(S1),3dc,4u,-5.934503754,-0.26993694,5.664566814,
4,C1=C2C(C(=N1)OC)=C(N=C2OC),4dc,26a,-6.034342326,-2.817929402,3.216412924,
5,C1=Cc2c(C3=CC(=C(S3)C)Cl)c4c(c(c2S1)C5=CC(=C(S5)C)Cl)C=C(S4),5dc,17d,-5.427854976,-1.863843819,3.564011157,
6,C1=CC=C(C=C1)/C(/C2=CC=CC=C2)=C(\C3=CC=CC=C3)/C4=CC=C(C=C4),6dc,23u,-5.492726918,-1.573797666,3.918929252,
7,C1=C2C(C(=C(S2)C)F)=C(S1),7dc,20a,-5.677818759,-1.127530951,4.550287808,
8,C1=C2C(SCCS2)=C(S1),8dc,36u,-5.667668912,-0.578813371,5.088855541,
9,C1=C(OC)C(OC)=C(S1),9dc,9u,-5.648974691,0.019809888,5.668784579,
10,C1=C2C(N=C(C(=N2)C)C)=C(C3C1=NSN=3),10dc,14a,-6.329640276,-3.077634861,3.252005416,
11,C1=CC2C(S1)=C(C3=CC=C(C=C3)C)C4=C(C=2C5=CC=C(C=C5)C)SC(=C4),11dc,11d,-5.285621066,-1.346038373,3.939582693,
12,C=CC=C,12dc,60u,-6.485289399,-0.937677117,5.547612282,
13,C1=CC2=C(S1)C1=C([Si]2(C)C)C=C(S1),13dc,5d,-5.468481574,-1.426611284,4.04187029,
14,C1=CC2=C(S1)C3=C([Ge]2(C)C)C=C(S3),14dc,16d,-5.440208945,-1.365140765,4.07506818,
15,C1=Cc2c(S1)c1c(s2)C=C(S1),15dc,61u,-5.762174053,-1.249220265,4.512953788,
16,C1=C(OC)C=C(C(=C1)OC),16dc,15u,-5.505080887,-0.231215139,5.273865748,
17,C1=CC(SC)=C(S1),17dc,50u,-5.64209021,-0.439001275,5.203088935,
18,C1=CC=C2C(=C1)C(C)(C)C3=CC(=CC=C23),18dc,18d,-5.983266556,-1.058522878,4.924743678,
19,C1=CC2=C(S1)C=C1C(=C2)SC(=C1),19dc,62u,-5.605327629,-1.317330362,4.287997268,
20,C1=CC2=C(S1)C1=C(N2C)C=C(S1),20dc,3d,-5.269620772,-0.758109187,4.511511584,
21,C1=CC(C2=C(C=CC=C2OC)OC)=C(S1),21dc,11u,-5.285621066,-1.346038373,3.939582693,
22,C1=Cc2c(S1)c(OC)c3c(c2OC)SC(=C3),22dc,52u,-4.812551137,-0.996970725,3.815580412,
23,C1=CC(=C(C#N)C#N)C=C(S1),23dc,41u,-6.442377045,-2.894855987,3.547521058,
24,C1=C2C(OCCS2)=C(S1),24dc,35u,-5.692676175,-0.415898809,5.276777366,
25,C1=CC2=C(S1)C=C(S2),25dc,9d,-6.010940535,-0.92004414,5.090896395,
26,C1=CC(C)=C(S1),26dc,4d,-6.302428891,-0.399735246,5.902693645,
27,C1=c2c(nc(c(n2)C)C)=C(S1),27dc,37u,-6.154997607,-2.126705799,4.028291809,
28,C1=CC=C([Se]1),28dc,64u,-6.524310525,-0.634896036,5.889414489,
29,C1=CC(Cl)=C(S1)C2=C(Cl)C=C(S2),29dc,53u,-5.855971697,-1.640057388,4.215914309,
30,C1=Cc2c(C3=CC=C(S3)C)c4c(c(c2S1)C5=CC=C(S5)C)C=C(S4),30dc,6d,-5.197728293,-1.605362872,3.59236542,
31,C1=CC2=C(c3c(N=C2S1)sc(c3F)F),31dc,28u,-6.21143402,-1.747542359,4.463891661,
32,C1=C2C(N=S=N2)=C(C3=CSC=C13),32dc,39u,-5.359744879,-3.060056306,2.299688573,
33,C1=C2SC(C)=CC2=C(S1),33dc,10d,-5.545843542,-0.951554924,4.594288618,
34,C1=C2OCC(C)OC2=C(S1),34dc,7d,-5.853549884,-0.195813127,5.657736757,
35,C1=C(F)c2c(S1)c3c(s2)C(F)=C(S3),35dc,30u,-6.10397626,-1.610968418,4.493007843,
36,C1=CC=C(C=C1)/C(/C2=CC=CC=C2)=C(/C3=CC=CC=C3)\C4=CC=C(C=C4),36dc,19u,-5.492726918,-1.573797666,3.918929252,
37,C1=CC=C(c2c1nn(n2)C),37dc,21a,-6.344089522,-1.46367319,4.880416331,
38,C1=Cc2c(S1)c(SC)c3c(c2SC)SC(=C3),38dc,14d,-5.71849978,-1.64911878,4.069381,
39,C1=CC2=C(S1)C3=C([Si]2(C4=CC=CC=C4)C5=CC=CC=C5)C=C(S3),39dc,44u,-5.515829384,-1.52732062,3.988508764,
40,C1=C2C(=O)N(C)C(=C2C(=O)N1C),40dc,4a,-5.684104589,-2.35462836,3.329476229,
41,N1(C2=C(SC3C=CC=CC1=3)C=CC=C2)C,41dc,19d,-4.78294515,-0.73419038,4.04875477,
42,C1=CC=C([SiH2]1),42dc,55u,-6.49552088,-1.618451549,4.877069331,
43,C1=C(OC)C=C(C(=C1)OC),43dc,2d,-5.505080887,-0.231215139,5.273865748,
44,C1=NN=C(C=C1),44dc,58u,-6.327245675,-1.601281165,4.72596451,
45,C1=CC2=C(S1)C3=C([Si]2(C)C)C=C(S3),45dc,43u,-5.468481574,-1.426611284,4.04187029,
46,C1=CC(C2=CC(=CC(=C2)OC)OC)=C(S1),46dc,10u,-5.768187769,-0.928615726,4.839572043,
47,C=C1C=C/C(/S1)=C/2\C=CC(S2)=C,47dc,24u,-4.968417951,-2.284450198,2.683967753,
48,C1=CC2=C(S1)C3=C(C2=C(C#N)C#N)C=C(S3),48dc,38u,-6.220604257,-3.572337841,2.648266416,
49,C1=C(F)C(OC)=C(C(=C1OC)F),49dc,8u,-5.676512613,-0.342128744,5.334383868,
50,C1=CC=C(C2=C[Si]C=C12),50dc,56u,-5.502278114,-3.568256133,1.934021981,
51,C1=CC=C2C(=C1)N(C)C(=O)/C/2=C\3/C(=O)N(C)C4=C3C=CC(=C4),51dc,42u,-5.807834757,-2.855290633,2.952544123,
52,C1=C2C(SC(=N2)C)=C(S1),52dc,9a,-6.055757686,-1.188157917,4.867599769,
53,C1=CC2=C(S1)C1=C(CO2)C=C(S1),53dc,63u,-5.323635371,-1.339453218,3.984182153,
54,C1=CC2=C(S1)C3=C(C2(C)C)C=C(S3),54dc,1d,-5.368343677,-1.198307763,4.170035913,
55,C1=C2C(N=CS2)=C(C2=C1N=CS2),55dc,11a,-6.371627444,-1.751624067,4.620003377,
56,C1=CC(Cl)=C(S1)C2=C(Cl)C=C(S2),56dc,54u,-5.855971697,-1.640057388,4.215914309,
57,C1=C(OC)C(OC)=C(C2C1=NSN=2),57dc,1a,-6.389478112,-2.157509086,4.231969026,
58,C1=Cc2c(S1)c3c(s2)C=C(N3C),58dc,13d,-5.26447782,-0.698842791,4.565635029,
59,C(\C1=CC=C(C=C1)C(=O)O)=C(/C2=CC=C(C=C2)C(=O)O),59dc,27u,-6.525535037,-2.750417955,3.775117082,
60,C1=C2C(N(C1=O)C)=C(C(=O)N2C),60dc,19a,-6.432880271,-2.509379507,3.923500765,
61,C1=C(OC)C(OC)=C(C=C1),61dc,14u,-5.566524194,0.139676039,5.706200234,
62,C1=C2C(C(=O)N1C)=C(N(C2=O)C),62dc,17u,-5.655804748,-2.325920349,3.3298844,
63,c1c(OC)c(ccc1),63,989,-6.080247932,-0.221636731,5.858611201,
64,c(s1)c2ncsc2c1C=C,64,642,-5.868080763,-1.698153695,4.169927068,duplicate
65,c1sc(c2c1C[C@H](F)[C@@H](F)C2)C=C,65,193,-6.122398368,-1.460625515,4.661772853,
66,C1=C(c2cscc12)C=C,66,923,-5.368289254,-1.92515107,3.443138184,
67,c1sc(c(c1OC)C#N),67,329,-6.442948484,-1.486721234,4.95622725,
68,c1oc(c(c1C(F)(F)F)OC),68,866,-6.482459415,-0.324196441,6.158262974,
69,c1sc(c2c1CC[C@@H](O)C2)C=C,69,478,-5.946912146,-1.265247771,4.681664375,
70,C1=[S]C(=O)C2=C1C(=O)[S]=C2,70,261,-6.674354102,-3.242753545,3.431600557,
71,c1occ(C)c1C=C,71,609,-5.964735603,-0.748993374,5.215742229,
72,c1c(C)c(c2c1ccco2),72,6,-5.385323581,-1.79450921,3.590814371,6
73,c1c2c(sc(C(=O)OCC)c2F)c(s1)C=C,73,201,-5.765412207,-2.16937325,3.596038957,
74,c1sc(c2c1CC(=O)C(=O)C2)C=C,74,15,-6.293530769,-2.416071667,3.877459102,15
75,c1sc(c(c1)C=O)C=C,75,166,-6.568882774,-2.056609271,4.512273503,
76,C(=[N])/N=C(\C1=CSC=[S]1),76,772,-4.163450758,-3.478893944,0.684556814,
77,c1c(OC)cc(c(c1)OCC(CC)CC)C=C,77,217,-5.480345738,-0.992725749,4.487619989,
78,c1[nH]c(C=C)c(c1),78,308,-5.386221557,-0.539193595,4.847027962,
79,c1sc(c2c1cc[nH]2),79,832,-5.214898677,-0.616827676,4.598071001,
80,c1c2c(=O)sc(=O)c2c(c2c1c(=O)sc2=O)C=C,80,328,-7.418258947,-3.909323633,3.508935314,
81,Nc1cscc1N,81,761,-5.228667637,0.224385081,5.453052718,
82,c1sc(c(c1OC)C(F)(F)F),82,276,-6.411845871,-0.86994798,5.541897891,
83,c(s1)c2c(=O)c3cn(CC)cc3c(=O)c2c1,83,343,-6.604284786,-2.091820803,4.512463983,
84,N(CC)c1cscc1N(CC)C=C,84,102,-5.247008111,-0.31159757,4.935410541,
85,c1c2c(ncc(C)n2)c(s1)C=C,85,327,-5.831100491,-2.433432531,3.39766796,
86,c1sc(c(c1O)C(=O)O)C=C,86,532,-6.168820991,-2.338655277,3.830165714,
87,c(s1)c2ccs(=N)(=O)c2c1,87,420,-6.337722058,-1.896932863,4.440789195,duplicate
88,c1sc(c2c1sc(=S)o2)C=C,88,596,-6.365831419,-2.047711148,4.318120271,
89,c1sc(c2c1c(C(=O)C)ccc2)C=C,89,198,-5.552918502,-2.417024066,3.135894436,
90,c1sc(c2c1C[C@H](C(=O)C(F)(F)F)CC2)C=C,90,750,-5.881441553,-1.795869779,4.085571774,
91,c1c2[nH]cnc2c(c2c1[nH]cn2),91,424,-5.746119335,-0.835933749,4.910185586,
92,C1SC=C1C(=O)CC=C,92,297,-6.341558863,-1.828033636,4.513525227,
93,c1sc2c(c1CC)sc(c2CC)C=C,93,740,-5.569109276,-1.410774258,4.158335018,
94,c1sc(c2c1ccc(F)c2)C=C,94,411,-5.510686432,-1.984934482,3.52575195,
95,c1sc(c2c1[C@H](F)[C@H](F)[C@@H](F)[C@H]2F)C=C,95,651,-6.67549698,-1.848224484,4.827272496,
96,c1c(CC)c(ccc1)C=C,96,173,-6.258128757,-0.987310684,5.270818073,
97,c1sc(c2c1c(S)ccc2O),97,159,-5.391037972,-1.596628018,3.794409954,
98,c1[nH]c(/C=C/c2[nH]ccc2)c(c1)C=C,98,626,-4.777720564,-1.161164223,3.616556341,
99,C=NNc1ccc(cc1)C=C,99,294,-5.371581832,-1.044182479,4.327399353,
100,C(C(=O)1)C(=O)C1,100,648,-6.936018781,-1.797284771,5.13873401,
101,c1oc2c(n1)cc1c(c2)oc(n1),101,931,-6.81340428,-1.484027306,5.329376974,
102,c(s1)cc(c(CC)c(CC)2)c1c(s3)c2cc3C=C,102,997,-5.57822509,-1.594641587,3.983583503,
103,N1N[C@H]2[C@@H](C)[C@@H]3[C@@H](NSN3)[C@H](C)[C@H]2N1,103,335,-6.17823613,0.275488062,6.453724192,
104,c1sc(c2c1ocn2),104,215,-6.442431468,-1.287642741,5.154788727,
105,c1c2c(nccn2)c(c2c1nccn2),105,537,-6.74091315,-3.022395749,3.718517401,
106,c1sc(c2c1c(C)ccc2),106,55,-5.508727212,-1.527592734,3.981134478,
107,c1occ(N(=O)=O)c1NC=C,107,241,-5.77036468,-2.570659546,3.199705134,
108,c1sc(c2c1cc(C(F)(F)F)c(C#N)c2)C=C,108,762,-6.215842264,-2.884352393,3.331489871,
109,c1[nH]cc(c1C)C=C,109,389,-5.489597609,0.004163342,5.493760951,
110,c1oc(cc1C(F)(F)F),110,521,-7.061163941,-0.46523305,6.595930891,
111,c1sc(c2c1[nH]cn2)C=C,111,986,-5.382330329,-1.372025246,4.010305083,
112,C1=CC=C(C1=S)C=C,112,246,-6.038913839,-3.590623892,2.448289947,
113,c1sc(c2c1[C@H](OC)CCC2),113,911,-6.175977585,-0.371789154,5.804188431,
114,N1[C@H]2CSC[C@H]2N(S1)C=C,114,634,-5.042541764,-0.763524253,4.279017511,
115,c1sc(c2c1[C@H](C(F)(F)F)CC[C@H]2C(F)(F)F)C=C,115,527,-6.377722794,-1.334936128,5.042786666,
116,N1C(=O)C=C(C1=O)C=C,116,82,-7.252759303,-2.923074193,4.32968511,
117,NCc1cc(OCC)c(cc1OCC)CNC=C,117,608,-5.33166273,-0.237120009,5.094542721,
118,c1oc(cc1C(=O)OC)C=C,118,511,-6.155868372,-1.247097777,4.908770595,
119,c1c(C(F)(F)F)sc(C#N)c1,119,67,-7.671624153,-2.479936788,5.191687365,
120,c1scc2c1c(c(cc2)O),120,564,-5.399908883,-1.461605125,3.938303758,
121,c1scc2c1N(CCN2C(=O)O)C=C,121,106,-5.609436548,-1.069271376,4.540165172,
122,c1sc(c2c1[C@H](C)CC[C@H]2C=C)C=C,122,775,-5.706553982,-1.224403482,4.4821505,
123,C1SCN2[C@H]1NCC2,123,234,-5.786364974,0.917459058,6.703824032,
124,c1[nH]cnc1C=C,124,767,-5.828705889,-0.452552545,5.376153344,
125,c1sc(c2c1cc(OC)c(OC)c2)C=C,125,884,-6.195624205,-0.404633296,5.790990909,
126,c1sc(c2c1nc(N)c(N)n2)C=C,126,562,-5.291444303,-1.741583066,3.549861237,
127,c1ccc(cc1)C=C,127,95,-6.280278824,-1.142932595,5.137346229,
128,c1sc(c(c1C(=O)O)OC)C=C,128,476,-6.487847269,-1.871190893,4.616656376,
129,c1sc(c2c1[nH]nc2)C=C,129,809,-5.480672274,-1.755841832,3.724830442,
130,c1ccc(cc1),130,169,-6.967148605,-0.253963857,6.713184748,
131,c1sc(c2c1[C@H](OC)CCC2)C=C,131,345,-5.744568287,-1.071693189,4.672875098,
132,c1c2c(OCN2)c(s1),132,64,-5.381976581,-0.036626524,5.345350057,duplicate
133,c1oc(cc1C=O),133,322,-6.950576872,-1.608437759,5.342139113,
134,c1scc2c1C(=[S@@](OC)C(=C2)OC)C=C,134,216,-5.149509718,-1.58253252,3.566977198,
135,c1cc2c(cc1)c1c(C2(CC)CC)cc(cc1),135,380,-5.980817532,-1.078060653,4.902756879,
136,C=CC=C,136,60u,-6.485289399,-0.937677117,5.547612282,duplicate
137,c1sc(cc1)c1ccc(s1)c1sc(cc1)C=C,137,637,-5.285675489,-1.952308032,3.333367457,
138,C1=Cc2[nH]c(cc2C1),138,379,-5.036936218,-0.207051429,4.829884789,
139,c1sc(c2c1[C@H](N(=O)=O)CC[C@H]2N(=O)=O),139,378,-7.227888097,-2.063602597,5.1642855,
140,c1oc2CCc2c1,140,776,-5.988899313,0.282073217,6.27097253,
141,c1c(CC)sc(c1),141,94,-6.222563476,-0.347271696,5.87529178,
142,C1C[C@@H]2[C@@H](CC1)N(CC)[C@@H]1[C@@H](S2)CCCC1C=C,142,366,-5.303879906,0.301012341,5.604892247,
143,c1cCcc1C=C,143,305,-5.8540669,-0.979228902,4.874837998,
144,c1sc(nn1)C=C,144,607,-7.051177362,-1.911953548,5.139223814,
145,c1sccc1OC=C,145,614,-6.026124488,-0.618052189,5.408072299,
146,C#Cc1sc(cc1)C#C,146,181,-6.14522872,-1.838754922,4.306473798,
147,c1sc(c2c1CC[C@@H](N)C2),147,312,-6.234073892,-0.425422794,5.808651098,
148,c1c(OC)sc(OC)c1,148,156,-5.168231151,0.385775806,5.554006957,
149,c1c(C(=O)c2cscc2C(=O)c2ccccc2)ccc(c1),149,939,-6.815254654,-1.854401468,4.960853186,
150,c1sc2c(c1)n(C)c1c2sc(c1)C=C,150,85,-5.111304934,-1.374583116,3.736721818,
151,c1sc2c(c1)n(C)c1c2sc(c1),151,3d,-5.269620772,-0.758109187,4.511511584,duplicate
152,c1sc(c(c1OC)C(F)(F)F)C=C,152,337,-6.119024156,-1.59273679,4.526287366,
153,c1sc(c2c1cc(C)c(C)c2),153,249,-5.373649897,-1.439727172,3.933922725,
154,N(CC)c1ccc(c(c1)C=C)N(CC)C=C,154,206,-4.90474331,-0.956752298,3.947991012,
155,c1sc(c2c1C[C@H](N(=O)=O)[C@@H](N(=O)=O)C2),155,569,-6.756151526,-2.470984242,4.285167284,
156,C1=Cc2[nH]c(cc2C1)C=C,156,942,-4.869069184,-0.803443355,4.065625829,
157,c1sccc1SC=C,157,126,-5.817739701,-0.786953256,5.030786445,
158,c1c2C(=O)OCc2ccc1,158,195,-7.453443268,-1.570069706,5.883373562,
159,c1sc(c2c1c(C=C)ccc2),159,382,-5.491774519,-1.800278024,3.691496495,
160,c1sc(c2c1C(=O)NC2=O),160,154,-7.526560259,-1.986403897,5.540156362,
161,c1n(CC)c(cc1)C=C,161,210,-5.2966961,-0.553098613,4.743597487,
162,c1scc2c1[C@@H](CC[C@H]2N(=O)=O)NC=C,162,698,-5.545136045,-1.979900376,3.565235669,
163,c1sc(c2c1CCC[C@H]2N(=O)=O),163,771,-6.664558004,-1.725718828,4.938839176,
164,c1sc(c2c1c(C=C)ccc2C),164,214,-5.398439469,-1.740902781,3.657536688,
165,C1=C/C(/C(=C1)OC)=C\1/C=C(C=C1OC)C=C,165,551,-5.246735997,-2.686090241,2.560645756,
166,c1cc2c(s1)c1c([nH]2)cc(s1),166,157,-5.319526452,-0.762952814,4.556573638,
167,c1oc(c(c1C#N)C(F)(F)F)C=C,167,833,-7.01713592,-2.051792856,4.965343064,
168,c1sc(c2c1SCCCS2),168,31,-5.838474776,-0.765020879,5.073453897,
169,c1cc2c(cs1)c1c(ccs1)c2C=C,169,16,-5.075984556,-1.941532323,3.134452233,16
170,c1c2nsnc2c(c2c1nc(CC)c(CC)n2),170,712,-6.309231738,-3.099295123,3.209936615,
171,c1oc(cc1C)C=C,171,500,-6.367899484,0.226153821,6.594053305,
172,c(s1)c2NCOc2c1,172,64,-5.381976581,-0.036626524,5.345350057,
173,c1sc(c2c1OCCCC2)C=C,173,231,-5.819508441,-1.10472781,4.714780631,
174,c1nc2c(c(=O)c3c2ncc3)c1C=C,174,127,-6.91871234,-3.982631105,2.936081235,
175,c1sc(c2c1[C@H](C#N)CC[C@H]2OC),175,183,-6.817703679,-0.956697876,5.861005803,
176,c1scc(C#N)c1N,176,86,-6.03521309,-1.363181545,4.672031545,
177,c1sccc1/C=C(/Cc1ccc(CC)cc1)C=C,177,585,-5.777303583,-1.375535514,4.401768069,
178,c1cc2c(s1)cc(s2)C=C,178,138,-5.736214391,-1.529987336,4.206227055,
179,c1cc2c(C(=O)N(C2=O)CC)cc1C=C,179,360,-6.816043784,-2.442140174,4.37390361,
180,C1=C2OCCSC2=C([S@@]1NC),180,541,-3.792858905,0.645671744,4.438530649,
181,c1sc(c2c1c(C(=O)C)ccc2),181,992,-5.917496639,-2.246517527,3.670979112,
182,c1nc2cscc2nc1,182,703,-6.429560482,-2.420289432,4.00927105,
183,c1sc(c2c1OCC[C@@H](SC)O2)C=C,183,348,-5.554796087,-0.966929356,4.587866731,
184,c1cc2c(s1)c1c(C2(CC)CC)cc(s1)C=C,184,336,-5.189265552,-1.623104695,3.566160857,
185,c1oc(c(c1OC)C#N)C=C,185,58,-6.290347036,-1.832931686,4.45741535,
186,c1sc(c2c1c(C#N)ccc2)C=C,186,97,-5.900924905,-2.55169321,3.349231695,
187,C1=C(F)C=C/C/1=C\1/C(=CC(=C1)F)C=C,187,197,-5.929850607,-3.197881971,2.731968636,
188,c1oc(nc1)C=C,188,180,-6.396525861,-1.317901801,5.07862406,
189,c1c2n(CC)c3c(c2ccc1)cccc3,189,706,-5.559639714,-0.952235208,4.607404506,
190,c1scc(N(=O)=O)c1N,190,376,-6.031757244,-2.438385003,3.593372241,
191,c1c(F)c(F)c(c2c1nsn2)C=C,191,301,-6.556039,-2.826092817,3.729946183,
192,c1sc(c2c1cc(C#N)cc2),192,915,-6.198508612,-2.341702952,3.85680566,
193,c1csc2c1n(CC)c1c2scc1,193,486,-5.263960804,-0.75854457,4.505416234,
194,c1oc(cc1C=O)C=C,194,222,-6.386566494,-1.582695789,4.803870705,
195,c1sc(c2c1[nH]cn2),195,613,-5.800569317,-0.877784859,4.922784458,
196,c1ccc2c(c1)oc1c2ccc(c1)C=C,196,632,-5.958204871,-1.634669534,4.323535337,
197,c1sc(CC)c(c1CC),197,22,-6.050505889,-0.289474714,5.761031175,
198,c1cc2c(cc1)C(C(=O)N2CC)C1C(=O)Nc2cc(ccc12),198,719,-6.044328904,-0.864859451,5.179469453,
199,c1oc(c(c1O)C(=O)O)C=C,199,834,-6.139568752,-2.200285384,3.939283368,
200,c1ccc2c(c1)C(=O)c1c2ccc(c1),200,635,-6.461996453,-2.466603209,3.995393244,
201,c1sc(c2c1C(=O)OC2=O)C=C,201,667,-7.018306009,-2.641953375,4.376352634,
202,c1oc(nc1),202,844,-7.076973755,-0.265474273,6.811499482,
203,c1sc(c2c1C[C@H](F)[C@@H](F)C2),203,76,-6.631632228,-0.791334289,5.840297939,
204,c1sc(c(c1SCC)SCC)C=C,204,597,-5.66271644,-1.337847746,4.324868694,
205,c1sc(c2c1cc(C(C)(C)C)cc2)C=C,205,443,-5.27979783,-1.844278833,3.435518997,
206,c1sc(c(c1)C=O),206,655,-7.098634018,-1.712466884,5.386167134,
207,c1oc(c(c1)N(=O)=O),207,627,-7.454096341,-2.437078856,5.017017485,
208,c(s1)c2c(=O)n(C)c(=O)c2c1,208,601,-5.931102331,-2.59452393,3.336578401,duplicate
209,c1sc(c2c1cc(C=C)cc2)C=C,209,263,-5.354357025,-2.040799456,3.313557569,
210,c1sc(c2c1c(C(=O)C(F)(F)F)ccc2),210,885,-6.201637921,-2.770064575,3.431573346,
211,c1oc2c(C(=O)N)c(oc2c1)C=C,211,63,-5.758609361,-1.669663375,4.088945986,
212,c1c2c(ccs1)nc1c2sc(c1),212,702,-5.76054137,-2.113236163,3.647305207,
213,c1oc2c(c1)C(=S)c1c2oc(c1)C=C,213,674,-5.47999199,-3.204385492,2.275606498,
214,c1c(OCCC)c(cc(c1)OCCC),214,996,-5.464372655,-0.196792737,5.267579918,
215,c1[nH]cc2c1[nH]cc2C=C,215,209,-4.658997291,-0.157499497,4.501497794,
216,c1scc(N(O)O)c1N(O)O,216,107,-5.877577537,-0.491083866,5.386493671,
217,c1c2c(=O)oc(=O)c2c(c2c1c(=O)oc2=O),217,677,-8.750310668,-4.082007083,4.668303585,
218,c1[nH]c(=O)c2c1c(=O)[nH]c2C=C,218,730,-5.753303141,-2.735424482,3.017878659,
219,c1nnc(nn1),219,502,-6.788941245,-3.243869212,3.545072033,
220,C1=CC2=C(OC=CO2)/C/1=C/1\C2=C(OC=CO2)C=C1C=C,220,314,-4.812387869,-3.144248331,1.668139538,
221,c1[nH]cc2c1[nH]cc2,221,953,-4.62517354,0.496117972,5.121291512,
222,c1sc2c(c1)C(=O)c1c2sc(c1)C=C,222,484,-5.640267048,-2.705764072,2.934502976,
223,c1sc(c2c1CC[C@@H](N(=O)=O)C2),223,179,-6.446730866,-1.860986624,4.585744242,
224,c1sc(c2c1cc(C)cc2),224,773,-5.505461846,-1.477823111,4.027638735,
225,C1SCN2[C@H]1NCC2C=C,225,433,-5.874992455,0.223323837,6.098316292,
226,c1sc(c2c1CCS(=O)(=O)C2),226,372,-6.879500734,-1.030712843,5.848787891,
227,c1c2c(cccc2)cc2c1c(ccc2),227,711,-5.482577071,-1.925096647,3.557480424,
228,c1cc(cnc1),228,471,-6.957542987,-0.867879915,6.089663072,
229,c1c(OC)cc(c(c1)OCC(CC)CC),229,274,-5.469025802,-0.240902392,5.22812341,
230,c1sc(c2c1OSCCO2)C=C,230,309,-5.704866876,-1.178171339,4.526695537,
231,c1cCcc1,231,957,-6.017906649,-0.59312656,5.424780089,
232,c1sc(c2c1nc(CN)c(CN)n2)C=C,232,729,-5.862856177,-2.414656675,3.448199502,
233,c1sc(c2c1OCCS2)C=C,233,854,-5.592674335,-1.176647501,4.416026834,
234,c1scc2c1C=C(C2)C=C,234,756,-5.635096884,-1.423563609,4.211533275,
235,C1=C2C(C(=O)N1)=C(OC2=O)C=C,235,346,-6.110370936,-2.925142259,3.185228677,
236,c1sc(c2c1cc(S)cc2)C=C,236,117,-5.361704099,-1.932906314,3.428797785,
237,c1sc(c2c1C(=O)c1ccc(CC)cc1C2=O)C=C,237,658,-6.504881596,-2.757683395,3.747198201,
238,c1oc(c(c1C)C),238,282,-5.989416329,0.401830523,6.391246852,
239,c1c2c(=O)sc(=O)c2c(c2c1c(=O)sc2=O),239,544,-8.075359473,-4.020101182,4.055258291,
240,c1occc1SC=C,240,202,-5.837576801,-0.312305066,5.525271735,
241,c1c(OCC)cc(OCC)c(c1)C=C,241,365,-5.375690751,-0.676964837,4.698725914,
242,c1scc(C(=O)OC)c1C=C,242,402,-6.229012575,-1.320568516,4.908444059,
243,C1=C(Cc2c(C1)nsn2),243,979,-6.881405531,-1.492462836,5.388942695,
244,c1sc(c2c1ncs2),244,111,-6.212658532,-1.378419921,4.834238611,duplicate
245,C1=C(N(=O)=O)C=C/C/1=C\1/C=CC(N(=O)=O)=C1,245,109,-7.458613431,-4.592873626,2.865739805,
246,c1c(C)Nc(C)c1,246,242,-5.226599572,1.045842373,6.272441945,
247,c1ccc(=O)c1C=C,247,122,-6.164603226,-3.027212164,3.137391062,
248,c1cscc1C(=O)O,248,47u,-7.279263192,-1.584083569,5.695179623,duplicate
249,c(s1)c(O)c(NN)c1,249,383,-5.31280524,0.006068139,5.318873379,
250,c1sccc1N(CC),250,518,-5.230654068,-0.050041737,5.180612331,
251,C1C(=O)O[C@@H]2[C@H]1CC[C@@H]1[C@H]2OC(=O)C1,251,937,-7.621636839,-0.145472064,7.476164775,
252,C(=S)[CH]C1=[S]C=C(O1)C=C,252,441,-5.351173293,-2.060745401,3.290427892,
253,C1=C/C(/C(=C1)C#N)=C\1/C=C(C=C1C#N),253,99,-7.003856764,-4.176566646,2.827290118,
254,C1OCC1,254,306,-6.722110083,1.542477362,8.264587445,
255,c1c(F)sc(F)c1,255,407,-6.427465206,-0.51886669,5.908598516,
256,c1sc(C=O)c(c1)C=C,256,904,-6.560637724,-2.256912276,4.303725448,
257,c1c(nc2cSc12)C=C,257,577,-5.724894455,-2.876950896,2.847943559,
258,c1sc(c2c1OCCS2),258,498,-6.010015348,-1.282962382,4.727052966,
259,c1sc(c2c1oc(N(=O)=O)c2)C=C,259,468,-6.276959035,-3.018395675,3.25856336,
260,N1[C@H]2[C@H](N[C@@H]3[C@@H](CSC3)N2)N(S1)C=C,260,230,-5.421487512,-0.309094123,5.112393389,
261,c1sc(c2c1[C@H](F)CC[C@H]2F)C=C,261,524,-6.134507434,-1.467237882,4.667269552,
262,c1scc(OC)c1NC=C,262,143,-5.024310136,-0.255787019,4.768523117,
263,C1=[S]C(=C(O1)[N]C=O)C=C,263,812,-5.702417851,-3.068410201,2.63400765,