      -----------------------------------------------------------      
     |                   =====================                   |     
     |                           x T B                           |     
     |                   =====================                   |     
     |                         S. Grimme                         |     
     |          Mulliken Center for Theoretical Chemistry        |     
     |                    University of Bonn                     |     
     |                Version 6.2 RC2 (SAW190805)                |     
      -----------------------------------------------------------      

   This program is distributed in the hope that it will be useful,
   but WITHOUT ANY WARRANTY; without even the implied warranty of
   MERCHANTABILITY or FITNESS FOR A PARTICULAR PURPOSE.
   
   FOR NON-COMMERCIAL, ACADEMIA USE ONLY.
   
   Cite this work as:
   * S. Grimme, C. Bannwarth, P. Shushkov, J. Chem. Theory Comput., 2017,
     13, 1989-2009. DOI: 10.1021/acs.jctc.7b00118
   * C. Bannwarth, S. Ehlert and S. Grimme., J. Chem. Theory Comput., 2019,
     15, 1652-1671. DOI: 10.1021/acs.jctc.8b01176
   * P. Pracht, E. Caldeweyher, S. Ehlert, S. Grimme, ChemRxiv, 2019, preprint.
     DOI: 10.26434/chemrxiv.8326202.v1
   
   for DFT-D4:
   * E. Caldeweyher, C. Bannwarth and S. Grimme, J. Chem. Phys., 2017,
     147, 034112. DOI: 10.1063/1.4993215
   * E. Caldeweyher, S. Ehlert, A. Hansen, H. Neugebauer, S. Spicher,
     C. Bannwarth and S. Grimme, J. Chem. Phys., 2019, 150, 154122.
     DOI: 10.1063/1.5090222
   
   for sTDA-xTB:
   * S. Grimme and C. Bannwarth, J. Chem. Phys., 2016, 145, 054103.
     DOI: 10.1063/1.4959605
   
   in the mass-spec context:
   * V. Asgeirsson, C. Bauer and S. Grimme, Chem. Sci., 2017, 8, 4879.
     DOI: 10.1039/c7sc00601b
   
   for metadynamics refer to:
   * S. Grimme, J. Chem. Theory Comput., 2019, 155, 2847-2862
     DOI: 10.1021/acs.jctc.9b00143
   
   with help from (in alphabetical order)
   C. Bannwarth, F. Bohle, G. Brandenburg, E. Caldeweyher, M. Checinski,
   S. Dohm, S. Ehlert, S. Ehrlich, F. März, H. Neugebauer, J. Pisarek,
   P. Pracht, P. Shushkov, and S. Spicher.
   
 * started run on 2021/06/14 at 15:46:56.001     

           -------------------------------------------------
          |                Calculation Setup                |
           -------------------------------------------------

          program call               : /ihome/ghutchison/geoffh/xtb/xtb /ihome/ghutchison/blp62/GA/running_GA/sequence/generations/178/128_70_47_70_128_13031.xyz -opt
          hostname                   : smp-n20
          coordinate file            : /ihome/ghutchison/blp62/GA/running_GA/sequence/generations/178/128_70_47_70_128_13031.xyz
          omp threads                :                    12
          number of atoms            :                   130
          number of electrons        :                   368
          charge                     :                     0
          spin                       :                   0.0
          first test random number   :      0.05906156265188


########################################################################
# WARNING! Please study the warnings concerning your input carefully
#  - XTBPATH is not set, using XTBHOME instead
#  - the use of '-opt' is discouraged, please use '--opt' next time
########################################################################

           ------------------------------------------------- 
          |                 G F N 2 - x T B                 |
          | Geometry, Frequencies, Noncovalent interactions |
          |            JCTC 2019 parametrisation            |
           ------------------------------------------------- 
             KAB for C  - Si     :                1.0500
             KAB for H  - Pd     :                0.9500
             k(s)              :                1.8500
             k(p)              :                2.2300
             k(d)              :                2.2300
             k(f)              :                2.0000
             kEN (H0ij)        :               -2.0000
             D4 a1             :                0.5200
             D4 a2             :                5.0000
             D4 s6             :                1.0000
             D4 s8             :                2.7000
             D4 s9             :                5.0000
             alphaj            :                2.0000

  Z AO/shell   Hii/eV     exponent
  1     Wed Apr 25 08:07:45 CEST 2018   EN: 2.200 GM2: 0.406  GM3: 0.0800  RAES: 1.40
     1s    -10.707211    1.230000
  6     Wed Apr 25 08:07:45 CEST 2018   EN: 2.550 GM2: 0.538  GM3: 0.1500  RAES: 3.00
     2s    -13.970922    2.096432
     2p    -10.063292    1.800000
  7     Wed Apr 25 08:07:45 CEST 2018   EN: 3.040 GM2: 0.461  GM3:-0.0640  RAES: 1.90
     2s    -16.686243    2.339881
     2p    -12.523956    2.014332
  8     Wed Apr 25 08:07:45 CEST 2018   EN: 3.440 GM2: 0.452  GM3:-0.0517  RAES: 1.80
     2s    -20.229985    2.439742
     2p    -15.503117    2.137023
 16     Tue Apr 24 11:44:34 CEST 2018   EN: 2.580 GM2: 0.340  GM3:-0.0502  RAES: 3.10
     3s    -20.029654    1.981333
     3p    -11.377694    2.025643
     3d     -0.420282    1.702555

           ------------------------------------------------- 
          |        Self-Consistent Charge Iterations        |
           ------------------------------------------------- 

          ...................................................
          :                      SETUP                      :
          :.................................................:
          :  # basis functions                 364          :
          :  # atomic orbitals                 362          :
          :  # shells                          206          :
          :  # electrons                       368          :
          :  max. iterations                   250          :
          :  Hamiltonian                  GFN2-xTB          :
          :  restarted?                      false          :
          :  GBSA solvation                  false          :
          :  PC potential                    false          :
          :  electronic temp.          300.0000000     K    :
          :  accuracy                    1.0000000          :
          :  -> integral cutoff          0.2500000E+02      :
          :  -> integral neglect         0.1000000E-07      :
          :  -> SCF convergence          0.1000000E-05 Eh   :
          :  -> wf. convergence          0.1000000E-03 e    :
          :  Broyden damping             0.4000000          :
          ...................................................

 iter      E             dE          RMSdq      gap      omega  full diag
   1   -202.8527766 -0.202853E+03  0.412E+00    1.60       0.0  T
   2   -203.1293806 -0.276604E+00  0.243E+00    1.40       1.0  T
   3   -203.1135954  0.157852E-01  0.131E+00    1.39       1.0  T
   4   -203.1668273 -0.532318E-01  0.503E-01    1.21       1.0  T
   5   -203.1898743 -0.230470E-01  0.212E-01    1.25       1.0  T
   6   -203.1943006 -0.442633E-02  0.910E-02    1.26       1.0  T
   7   -203.1948770 -0.576360E-03  0.399E-02    1.26       1.0  T
   8   -203.1949809 -0.103900E-03  0.223E-02    1.26       1.0  T
   9   -203.1950164 -0.355514E-04  0.113E-02    1.27       1.0  T
  10   -203.1950291 -0.126424E-04  0.412E-03    1.27       2.1  T
  11   -203.1950299 -0.811347E-06  0.184E-03    1.26       4.8  T
  12   -203.1950301 -0.247088E-06  0.610E-04    1.26      14.4  T
  13   -203.1950301 -0.649257E-08  0.383E-04    1.26      22.9  T

   *** convergence criteria satisfied after 13 iterations ***

         #    Occupation            Energy/Eh            Energy/eV
      -------------------------------------------------------------
         1        2.0000           -0.7239466             -19.6996
       ...           ...                  ...                  ...
       178        2.0000           -0.3914240             -10.6512
       179        2.0000           -0.3843899             -10.4598
       180        2.0000           -0.3777197             -10.2783
       181        2.0000           -0.3749433             -10.2027
       182        2.0000           -0.3730864             -10.1522
       183        2.0000           -0.3689520             -10.0397
       184        2.0000           -0.3454299              -9.3996 (HOMO)
       185                         -0.2989655              -8.1353 (LUMO)
       186                         -0.2956303              -8.0445
       187                         -0.2943049              -8.0084
       188                         -0.2655503              -7.2260
       189                         -0.2646368              -7.2011
       ...                                ...                  ...
       362                          0.7880252              21.4433
      -------------------------------------------------------------
                  HL-Gap            0.0464644 Eh            1.2644 eV
             Fermi-level           -0.3222154 Eh           -8.7679 eV

 SCC (total)                   0 d,  0 h,  0 min,  0.218 sec
 SCC setup                      ...        0 min,  0.003 sec (  1.229%)
 Dispersion                     ...        0 min,  0.006 sec (  2.826%)
 integral evaluation            ...        0 min,  0.022 sec ( 10.296%)
 zeroth order Hamiltonian       ...        0 min,  0.001 sec (  0.556%)
 iterations                     ...        0 min,  0.162 sec ( 73.956%)
 molecular gradient             ...        0 min,  0.023 sec ( 10.651%)
 printout                       ...        0 min,  0.001 sec (  0.446%)

         :::::::::::::::::::::::::::::::::::::::::::::::::::::
         ::                     SUMMARY                     ::
         :::::::::::::::::::::::::::::::::::::::::::::::::::::
         :: total energy            -200.073943697834 Eh    ::
         :: gradient norm              0.132970224867 Eh/a0 ::
         :: HOMO-LUMO gap              1.264361462723 eV    ::
         ::.................................................::
         :: SCC energy              -203.195030134590 Eh    ::
         :: -> isotropic ES            0.140414347137 Eh    ::
         :: -> anisotropic ES          0.023831535905 Eh    ::
         :: -> anisotropic XC          0.094354830877 Eh    ::
         :: -> dispersion             -0.171367079140 Eh    ::
         :: repulsion energy           3.118317037173 Eh    ::
         :: add. restraining           0.000000000000 Eh    ::
         :::::::::::::::::::::::::::::::::::::::::::::::::::::

      ----------------------------------------------------------- 
     |                   =====================                   |
     |                        A N C O P T                        |
     |                   =====================                   |
     |               Approximate Normal Coordinate               |
     |                Rational Function Optimizer                |
      ----------------------------------------------------------- 

          ...................................................
          :                      SETUP                      :
          :.................................................:
          :   optimization level            normal          :
          :   max. optcycles                   390          :
          :   ANC micro-cycles                  20          :
          :   degrees of freedom               384          :
          :.................................................:
          :   RF solver                   davidson          :
          :   input Hessian                  false          :
          :   write xtbopt.log                true          :
          :   linear?                        false          :
          :   energy convergence         0.5000000E-05 Eh   :
          :   grad. convergence          0.1000000E-02 Eh/α :
          :   maximium RF displ.         2.0000000          :
          :   Hlow (freq-cutoff)         0.5000000E-02      :
          :   Hmax (freq-cutoff)         5.0000000          :
          :   S6 in model hess.         20.0000000          :
          ...................................................

generating ANC from model Hessian ...
Using Lindh-Hessian (1995)
 Shifting diagonal of input Hessian by   4.978678061066688E-003
 Lowest  eigenvalues of input Hessian
   -0.000000    0.000000    0.000000    0.000000    0.000000    0.000000
    0.005000    0.005007    0.005018    0.005025    0.005040    0.005069
    0.005093    0.005140    0.005180    0.005290    0.005355    0.005518
 Highest eigenvalues
    2.159882    2.187486    2.370963    2.375724    2.399995    2.403119
 

........................................................................
.............................. CYCLE    1 ..............................
........................................................................
   1   -203.1950301 -0.203195E+03  0.172E-04    1.26       0.0  T
   2   -203.1950301  0.417202E-09  0.143E-04    1.26      61.5  T
   3   -203.1950301 -0.196823E-08  0.808E-05    1.26     108.6  T
     SCC iter.                  ...        0 min,  0.040 sec
     gradient                   ...        0 min,  0.023 sec
 * total energy  :  -200.0739436 Eh     change        0.6507412E-07 Eh
   gradient norm :     0.1329705 Eh/α   predicted     0.0000000E+00 (-100.00%)
   displ. norm   :     0.4453351 α      lambda       -0.3075739E-01
   maximum displ.:     0.0893002 α      in ANC's #81, #89, #58, ...

........................................................................
.............................. CYCLE    2 ..............................
........................................................................
   1   -203.2738059 -0.203274E+03  0.274E-01    1.20       0.0  T
   2   -203.2740788 -0.272903E-03  0.136E-01    1.21       1.0  T
   3   -203.2738660  0.212850E-03  0.547E-02    1.20       1.0  T
   4   -203.2741285 -0.262583E-03  0.239E-02    1.21       1.0  T
   5   -203.2741589 -0.303116E-04  0.126E-02    1.20       1.0  T
   6   -203.2741646 -0.576953E-05  0.632E-03    1.20       1.4  T
   7   -203.2741699 -0.531518E-05  0.137E-03    1.20       6.4  T
   8   -203.2741701 -0.156175E-06  0.712E-04    1.20      12.3  T
     SCC iter.                  ...        0 min,  0.097 sec
     gradient                   ...        0 min,  0.022 sec
 * total energy  :  -200.0964196 Eh     change       -0.2247595E-01 Eh
   gradient norm :     0.0666996 Eh/α   predicted    -0.1842868E-01 ( -18.01%)
   displ. norm   :     0.4743461 α      lambda       -0.1448725E-01
   maximum displ.:     0.1175945 α      in ANC's #61, #37, #81, ...

........................................................................
.............................. CYCLE    3 ..............................
........................................................................
   1   -203.3195804 -0.203320E+03  0.239E-01    1.13       0.0  T
   2   -203.3197876 -0.207253E-03  0.124E-01    1.14       1.0  T
   3   -203.3194874  0.300249E-03  0.609E-02    1.14       1.0  T
   4   -203.3197628 -0.275469E-03  0.307E-02    1.14       1.0  T
   5   -203.3198354 -0.725838E-04  0.179E-02    1.14       1.0  T
   6   -203.3198623 -0.268475E-04  0.830E-03    1.14       1.1  T
   7   -203.3198687 -0.647322E-05  0.324E-03    1.14       2.7  T
   8   -203.3198702 -0.147873E-05  0.763E-04    1.14      11.5  T
   9   -203.3198702 -0.259393E-07  0.433E-04    1.14      20.2  T
     SCC iter.                  ...        0 min,  0.109 sec
     gradient                   ...        0 min,  0.022 sec
 * total energy  :  -200.1060223 Eh     change       -0.9602739E-02 Eh
   gradient norm :     0.0303081 Eh/α   predicted    -0.8873476E-02 (  -7.59%)
   displ. norm   :     0.4750368 α      lambda       -0.4869923E-02
   maximum displ.:     0.1607874 α      in ANC's #37, #61, #44, ...

........................................................................
.............................. CYCLE    4 ..............................
........................................................................
   1   -203.3267351 -0.203327E+03  0.193E-01    1.10       0.0  T
   2   -203.3267859 -0.508010E-04  0.996E-02    1.10       1.0  T
   3   -203.3264859  0.299970E-03  0.493E-02    1.11       1.0  T
   4   -203.3267731 -0.287208E-03  0.225E-02    1.11       1.0  T
   5   -203.3268121 -0.389948E-04  0.128E-02    1.11       1.0  T
   6   -203.3268232 -0.110877E-04  0.540E-03    1.11       1.6  T
   7   -203.3268276 -0.442507E-05  0.125E-03    1.11       7.0  T
   8   -203.3268278 -0.164882E-06  0.547E-04    1.11      16.0  T
     SCC iter.                  ...        0 min,  0.097 sec
     gradient                   ...        0 min,  0.022 sec
 * total energy  :  -200.1097406 Eh     change       -0.3718287E-02 Eh
   gradient norm :     0.0244705 Eh/α   predicted    -0.2984465E-02 ( -19.74%)
   displ. norm   :     0.5865531 α      lambda       -0.3844924E-02
   maximum displ.:     0.1938751 α      in ANC's #37, #44, #61, ...

........................................................................
.............................. CYCLE    5 ..............................
........................................................................
   1   -203.3259322 -0.203326E+03  0.195E-01    1.07       0.0  T
   2   -203.3259732 -0.409750E-04  0.105E-01    1.08       1.0  T
   3   -203.3256270  0.346172E-03  0.508E-02    1.08       1.0  T
   4   -203.3259578 -0.330834E-03  0.219E-02    1.08       1.0  T
   5   -203.3259921 -0.342310E-04  0.132E-02    1.08       1.0  T
   6   -203.3260074 -0.153735E-04  0.527E-03    1.08       1.7  T
   7   -203.3260116 -0.417582E-05  0.146E-03    1.08       6.0  T
   8   -203.3260119 -0.252075E-06  0.555E-04    1.08      15.8  T
     SCC iter.                  ...        0 min,  0.099 sec
     gradient                   ...        0 min,  0.024 sec
 * total energy  :  -200.1127654 Eh     change       -0.3024743E-02 Eh
   gradient norm :     0.0199480 Eh/α   predicted    -0.2583877E-02 ( -14.58%)
   displ. norm   :     0.6114195 α      lambda       -0.3086994E-02
   maximum displ.:     0.1849237 α      in ANC's #37, #39, #44, ...

........................................................................
.............................. CYCLE    6 ..............................
........................................................................
   1   -203.3243541 -0.203324E+03  0.197E-01    1.05       0.0  T
   2   -203.3244158 -0.617329E-04  0.107E-01    1.06       1.0  T
   3   -203.3242197  0.196124E-03  0.414E-02    1.06       1.0  T
   4   -203.3243892 -0.169521E-03  0.216E-02    1.06       1.0  T
   5   -203.3244225 -0.332266E-04  0.134E-02    1.06       1.0  T
   6   -203.3244417 -0.192012E-04  0.504E-03    1.06       1.7  T
   7   -203.3244446 -0.288892E-05  0.200E-03    1.06       4.4  T
   8   -203.3244452 -0.631059E-06  0.486E-04    1.06      18.0  T
     SCC iter.                  ...        0 min,  0.099 sec
     gradient                   ...        0 min,  0.022 sec
 * total energy  :  -200.1152488 Eh     change       -0.2483473E-02 Eh
   gradient norm :     0.0197316 Eh/α   predicted    -0.2120538E-02 ( -14.61%)
   displ. norm   :     0.6149506 α      lambda       -0.2745697E-02
   maximum displ.:     0.1800481 α      in ANC's #18, #39, #37, ...

........................................................................
.............................. CYCLE    7 ..............................
........................................................................
   1   -203.3265191 -0.203327E+03  0.194E-01    1.04       0.0  T
   2   -203.3265824 -0.633729E-04  0.105E-01    1.04       1.0  T
   3   -203.3264783  0.104123E-03  0.334E-02    1.04       1.0  T
   4   -203.3265891 -0.110769E-03  0.146E-02    1.04       1.0  T
   5   -203.3266004 -0.113241E-04  0.743E-03    1.04       1.2  T
   6   -203.3266034 -0.298479E-05  0.470E-03    1.04       1.9  T
   7   -203.3266063 -0.288510E-05  0.176E-03    1.04       5.0  T
   8   -203.3266067 -0.442214E-06  0.518E-04    1.04      16.9  T
     SCC iter.                  ...        0 min,  0.098 sec
     gradient                   ...        0 min,  0.022 sec
 * total energy  :  -200.1175264 Eh     change       -0.2277586E-02 Eh
   gradient norm :     0.0224341 Eh/α   predicted    -0.1892012E-02 ( -16.93%)
   displ. norm   :     0.6570605 α      lambda       -0.2707678E-02
   maximum displ.:     0.2162131 α      in ANC's #18, #11, #39, ...

........................................................................
.............................. CYCLE    8 ..............................
........................................................................
   1   -203.3301676 -0.203330E+03  0.209E-01    1.02       0.0  T
   2   -203.3302183 -0.507152E-04  0.112E-01    1.02       1.0  T
   3   -203.3300309  0.187417E-03  0.403E-02    1.02       1.0  T
   4   -203.3302077 -0.176776E-03  0.195E-02    1.02       1.0  T
   5   -203.3302113 -0.358299E-05  0.164E-02    1.02       1.0  T
   6   -203.3302473 -0.360739E-04  0.361E-03    1.02       2.4  T
   7   -203.3302489 -0.152027E-05  0.151E-03    1.02       5.8  T
   8   -203.3302492 -0.316799E-06  0.496E-04    1.02      17.7  T
     SCC iter.                  ...        0 min,  0.099 sec
     gradient                   ...        0 min,  0.022 sec
 * total energy  :  -200.1198501 Eh     change       -0.2323686E-02 Eh
   gradient norm :     0.0229488 Eh/α   predicted    -0.1938332E-02 ( -16.58%)
   displ. norm   :     0.7003348 α      lambda       -0.2821339E-02
   maximum displ.:     0.2496548 α      in ANC's #18, #11, #27, ...

........................................................................
.............................. CYCLE    9 ..............................
........................................................................
   1   -203.3360076 -0.203336E+03  0.227E-01    0.99       0.0  T
   2   -203.3360622 -0.546774E-04  0.120E-01    1.00       1.0  T
   3   -203.3357564  0.305845E-03  0.484E-02    1.00       1.0  T
   4   -203.3360346 -0.278216E-03  0.238E-02    1.00       1.0  T
   5   -203.3360630 -0.283698E-04  0.168E-02    1.00       1.0  T
   6   -203.3360980 -0.349722E-04  0.401E-03    1.00       2.2  T
   7   -203.3361001 -0.214820E-05  0.151E-03    1.00       5.8  T
   8   -203.3361004 -0.303737E-06  0.499E-04    1.00      17.6  T
     SCC iter.                  ...        0 min,  0.099 sec
     gradient                   ...        0 min,  0.022 sec
 * total energy  :  -200.1222373 Eh     change       -0.2387209E-02 Eh
   gradient norm :     0.0176708 Eh/α   predicted    -0.2102597E-02 ( -11.92%)
   displ. norm   :     0.7938055 α      lambda       -0.2778469E-02
   maximum displ.:     0.2940669 α      in ANC's #18, #11, #44, ...

........................................................................
.............................. CYCLE   10 ..............................
........................................................................
   1   -203.3309817 -0.203331E+03  0.253E-01    0.97       0.0  T
   2   -203.3310689 -0.872287E-04  0.133E-01    0.97       1.0  T
   3   -203.3307387  0.330255E-03  0.559E-02    0.98       1.0  T
   4   -203.3310838 -0.345074E-03  0.213E-02    0.97       1.0  T
   5   -203.3310759  0.784361E-05  0.179E-02    0.97       1.0  T
   6   -203.3311147 -0.387625E-04  0.751E-03    0.97       1.2  T
   7   -203.3311224 -0.767860E-05  0.226E-03    0.97       3.9  T
   8   -203.3311232 -0.796963E-06  0.531E-04    0.97      16.5  T
   9   -203.3311232 -0.476032E-08  0.318E-04    0.97      27.6  T
     SCC iter.                  ...        0 min,  0.109 sec
     gradient                   ...        0 min,  0.022 sec
 * total energy  :  -200.1242384 Eh     change       -0.2001067E-02 Eh
   gradient norm :     0.0199294 Eh/α   predicted    -0.2264630E-02 (  13.17%)
   displ. norm   :     0.6364446 α      lambda       -0.2658939E-02
   maximum displ.:     0.2507543 α      in ANC's #18, #11, #13, ...

........................................................................
.............................. CYCLE   11 ..............................
........................................................................
   1   -203.3435814 -0.203344E+03  0.201E-01    0.95       0.0  T
   2   -203.3436681 -0.866281E-04  0.104E-01    0.95       1.0  T
   3   -203.3435726  0.955023E-04  0.319E-02    0.96       1.0  T
   4   -203.3435731 -0.548059E-06  0.278E-02    0.96       1.0  T
   5   -203.3436732 -0.100048E-03  0.116E-02    0.96       1.0  T
   6   -203.3436819 -0.875410E-05  0.670E-03    0.96       1.3  T
   7   -203.3436885 -0.654316E-05  0.105E-03    0.96       8.4  T
   8   -203.3436886 -0.128007E-06  0.429E-04    0.96      20.5  T
   9   -203.3436886 -0.409995E-08  0.252E-04    0.96      34.8  T
     SCC iter.                  ...        0 min,  0.109 sec
     gradient                   ...        0 min,  0.022 sec
 * total energy  :  -200.1259881 Eh     change       -0.1749715E-02 Eh
   gradient norm :     0.0176723 Eh/α   predicted    -0.1867987E-02 (   6.76%)
   displ. norm   :     0.7254385 α      lambda       -0.2437176E-02
   maximum displ.:     0.2878090 α      in ANC's #18, #11, #13, ...

........................................................................
.............................. CYCLE   12 ..............................
........................................................................
   1   -203.3277722 -0.203328E+03  0.227E-01    0.92       0.0  T
   2   -203.3278281 -0.559186E-04  0.121E-01    0.92       1.0  T
   3   -203.3275989  0.229195E-03  0.444E-02    0.93       1.0  T
   4   -203.3278168 -0.217889E-03  0.216E-02    0.93       1.0  T
   5   -203.3278128  0.406796E-05  0.183E-02    0.93       1.0  T
   6   -203.3278570 -0.442484E-04  0.540E-03    0.92       1.6  T
   7   -203.3278620 -0.493865E-05  0.135E-03    0.93       6.5  T
   8   -203.3278622 -0.229479E-06  0.565E-04    0.93      15.5  T
   9   -203.3278622 -0.581116E-08  0.326E-04    0.93      26.9  T
     SCC iter.                  ...        0 min,  0.109 sec
     gradient                   ...        0 min,  0.022 sec
 * total energy  :  -200.1264431 Eh     change       -0.4550396E-03 Eh
   gradient norm :     0.0360186 Eh/α   predicted    -0.1859889E-02 ( 308.73%)
   displ. norm   :     0.3492119 α      lambda       -0.2713576E-02
   maximum displ.:     0.1492025 α      in ANC's #18, #11, #13, ...

........................................................................
.............................. CYCLE   13 ..............................
........................................................................
   1   -203.3297928 -0.203330E+03  0.999E-02    0.92       0.0  T
   2   -203.3298038 -0.109842E-04  0.538E-02    0.92       1.0  T
   3   -203.3296515  0.152256E-03  0.359E-02    0.93       1.0  T
   4   -203.3298217 -0.170195E-03  0.786E-03    0.93       1.1  T
   5   -203.3298220 -0.289066E-06  0.438E-03    0.93       2.0  T
   6   -203.3298240 -0.194579E-05  0.173E-03    0.93       5.1  T
     SCC iter.                  ...        0 min,  0.075 sec
     gradient                   ...        0 min,  0.022 sec
 * total energy  :  -200.1281045 Eh     change       -0.1661341E-02 Eh
   gradient norm :     0.0189661 Eh/α   predicted    -0.1522257E-02 (  -8.37%)
   displ. norm   :     0.4215119 α      lambda       -0.1546456E-02
   maximum displ.:     0.1881576 α      in ANC's #18, #11, #13, ...

........................................................................
.............................. CYCLE   14 ..............................
........................................................................
   1   -203.3514471 -0.203351E+03  0.104E-01    0.93       0.0  T
   2   -203.3514536 -0.652469E-05  0.568E-02    0.93       1.0  T
   3   -203.3511743  0.279308E-03  0.408E-02    0.93       1.0  T
   4   -203.3514445 -0.270174E-03  0.149E-02    0.93       1.0  T
   5   -203.3514669 -0.223761E-04  0.760E-03    0.93       1.2  T
   6   -203.3514724 -0.556978E-05  0.332E-03    0.93       2.6  T
   7   -203.3514740 -0.155108E-05  0.767E-04    0.93      11.4  T
   8   -203.3514740 -0.639454E-07  0.310E-04    0.93      28.3  T
     SCC iter.                  ...        0 min,  0.097 sec
     gradient                   ...        0 min,  0.022 sec
 * total energy  :  -200.1289609 Eh     change       -0.8564388E-03 Eh
   gradient norm :     0.0218768 Eh/α   predicted    -0.9106200E-03 (   6.33%)
   displ. norm   :     0.6521542 α      lambda       -0.1936752E-02
   maximum displ.:     0.2792509 α      in ANC's #11, #18, #13, ...

........................................................................
.............................. CYCLE   15 ..............................
........................................................................
   1   -203.3491740 -0.203349E+03  0.193E-01    0.91       0.0  T
   2   -203.3492135 -0.394862E-04  0.103E-01    0.92       1.0  T
   3   -203.3485748  0.638658E-03  0.631E-02    0.92       1.0  T
   4   -203.3491819 -0.607048E-03  0.245E-02    0.92       1.0  T
   5   -203.3492352 -0.533451E-04  0.140E-02    0.92       1.0  T
   6   -203.3492568 -0.216312E-04  0.468E-03    0.92       1.9  T
   7   -203.3492596 -0.278635E-05  0.148E-03    0.92       5.9  T
   8   -203.3492599 -0.287234E-06  0.548E-04    0.92      16.0  T
     SCC iter.                  ...        0 min,  0.098 sec
     gradient                   ...        0 min,  0.022 sec
 * total energy  :  -200.1299832 Eh     change       -0.1022277E-02 Eh
   gradient norm :     0.0220054 Eh/α   predicted    -0.1380237E-02 (  35.02%)
   displ. norm   :     0.5748953 α      lambda       -0.2084416E-02
   maximum displ.:     0.2604612 α      in ANC's #18, #11, #13, ...

........................................................................
.............................. CYCLE   16 ..............................
........................................................................
   1   -203.3407418 -0.203341E+03  0.174E-01    0.91       0.0  T
   2   -203.3407673 -0.255953E-04  0.934E-02    0.91       1.0  T
   3   -203.3403012  0.466109E-03  0.580E-02    0.91       1.0  T
   4   -203.3407605 -0.459312E-03  0.206E-02    0.91       1.0  T
   5   -203.3407788 -0.182212E-04  0.164E-02    0.91       1.0  T
   6   -203.3408116 -0.327816E-04  0.481E-03    0.91       1.8  T
   7   -203.3408148 -0.328999E-05  0.152E-03    0.91       5.8  T
   8   -203.3408152 -0.343395E-06  0.511E-04    0.91      17.2  T
     SCC iter.                  ...        0 min,  0.098 sec
     gradient                   ...        0 min,  0.022 sec
 * total energy  :  -200.1306235 Eh     change       -0.6403196E-03 Eh
   gradient norm :     0.0320553 Eh/α   predicted    -0.1386672E-02 ( 116.56%)
   displ. norm   :     0.4304355 α      lambda       -0.1984171E-02
   maximum displ.:     0.1804686 α      in ANC's #11, #18, #13, ...

........................................................................
.............................. CYCLE   17 ..............................
........................................................................
   1   -203.3322500 -0.203332E+03  0.118E-01    0.90       0.0  T
   2   -203.3322596 -0.959189E-05  0.631E-02    0.90       1.0  T
   3   -203.3316798  0.579830E-03  0.590E-02    0.90       1.0  T
   4   -203.3322549 -0.575167E-03  0.177E-02    0.90       1.0  T
   5   -203.3322892 -0.342289E-04  0.915E-03    0.90       1.0  T
   6   -203.3322976 -0.845300E-05  0.396E-03    0.90       2.2  T
   7   -203.3322994 -0.180868E-05  0.111E-03    0.90       7.9  T
   8   -203.3322995 -0.124544E-06  0.427E-04    0.90      20.6  T
     SCC iter.                  ...        0 min,  0.098 sec
     gradient                   ...        0 min,  0.022 sec
 * total energy  :  -200.1314071 Eh     change       -0.7836375E-03 Eh
   gradient norm :     0.0196483 Eh/α   predicted    -0.1175895E-02 (  50.06%)
   displ. norm   :     0.3360181 α      lambda       -0.1514726E-02
   maximum displ.:     0.1472425 α      in ANC's #11, #18, #13, ...

........................................................................
.............................. CYCLE   18 ..............................
........................................................................
   1   -203.3520870 -0.203352E+03  0.767E-02    0.91       0.0  T
   2   -203.3520859  0.111447E-05  0.433E-02    0.91       1.0  T
   3   -203.3517418  0.344032E-03  0.480E-02    0.90       1.0  T
   4   -203.3520859 -0.344116E-03  0.125E-02    0.90       1.0  T
   5   -203.3521060 -0.200748E-04  0.630E-03    0.90       1.4  T
   6   -203.3521104 -0.443192E-05  0.250E-03    0.90       3.5  T
   7   -203.3521111 -0.685911E-06  0.808E-04    0.90      10.9  T
   8   -203.3521112 -0.830127E-07  0.291E-04    0.90      30.1  T
     SCC iter.                  ...        0 min,  0.102 sec
     gradient                   ...        0 min,  0.023 sec
 * total energy  :  -200.1318914 Eh     change       -0.4842703E-03 Eh
   gradient norm :     0.0213287 Eh/α   predicted    -0.8428805E-03 (  74.05%)
   displ. norm   :     0.4526864 α      lambda       -0.1760058E-02
   maximum displ.:     0.2104455 α      in ANC's #11, #18, #14, ...

........................................................................
.............................. CYCLE   19 ..............................
........................................................................
   1   -203.3652986 -0.203365E+03  0.123E-01    0.90       0.0  T
   2   -203.3653082 -0.956503E-05  0.658E-02    0.91       1.0  T
   3   -203.3646482  0.659998E-03  0.648E-02    0.91       1.0  T
   4   -203.3653162 -0.667995E-03  0.161E-02    0.91       1.0  T
   5   -203.3653442 -0.279799E-04  0.848E-03    0.91       1.0  T
   6   -203.3653502 -0.607871E-05  0.338E-03    0.91       2.6  T
   7   -203.3653517 -0.147730E-05  0.132E-03    0.91       6.6  T
   8   -203.3653519 -0.223385E-06  0.492E-04    0.91      17.8  T
     SCC iter.                  ...        0 min,  0.098 sec
     gradient                   ...        0 min,  0.022 sec
 * total energy  :  -200.1318887 Eh     change        0.2708006E-05 Eh
   gradient norm :     0.0295651 Eh/α   predicted    -0.1060374E-02 (*******%)
   displ. norm   :     0.3623166 α      lambda       -0.2181471E-02
   maximum displ.:     0.1353758 α      in ANC's #11, #18, #38, ...

........................................................................
.............................. CYCLE   20 ..............................
........................................................................
   1   -203.3424963 -0.203342E+03  0.121E-01    0.90       0.0  T
   2   -203.3424856  0.107622E-04  0.649E-02    0.90       1.0  T
   3   -203.3416950  0.790544E-03  0.687E-02    0.90       1.0  T
   4   -203.3425055 -0.810416E-03  0.165E-02    0.90       1.0  T
   5   -203.3425285 -0.230995E-04  0.987E-03    0.90       1.0  T
   6   -203.3425368 -0.826827E-05  0.394E-03    0.90       2.2  T
   7   -203.3425390 -0.220651E-05  0.832E-04    0.90      10.5  T
   8   -203.3425391 -0.682816E-07  0.415E-04    0.90      21.1  T
     SCC iter.                  ...        0 min,  0.098 sec
     gradient                   ...        0 min,  0.022 sec
 * total energy  :  -200.1328474 Eh     change       -0.9587095E-03 Eh
   gradient norm :     0.0179392 Eh/α   predicted    -0.1233923E-02 (  28.71%)
   displ. norm   :     0.3415773 α      lambda       -0.1200030E-02
   maximum displ.:     0.1541341 α      in ANC's #11, #18, #9, ...
 * RMSD in coord.:     0.7661262 α      energy gain  -0.5890372E-01 Eh

generating ANC from model Hessian ...
Using Lindh-Hessian (1995)
 Shifting diagonal of input Hessian by   4.981854893967674E-003
 Lowest  eigenvalues of input Hessian
   -0.000000   -0.000000   -0.000000   -0.000000   -0.000000   -0.000000
    0.005000    0.005009    0.005016    0.005025    0.005030    0.005077
    0.005090    0.005161    0.005189    0.005271    0.005399    0.005486
 Highest eigenvalues
    2.128077    2.132104    2.387822    2.401800    2.424757    2.431245
 

........................................................................
.............................. CYCLE   21 ..............................
........................................................................
   1   -203.3396758 -0.203340E+03  0.868E-02    0.89       0.0  T
   2   -203.3396924 -0.166003E-04  0.462E-02    0.89       1.0  T
   3   -203.3394867  0.205656E-03  0.367E-02    0.89       1.0  T
   4   -203.3396669 -0.180197E-03  0.181E-02    0.89       1.0  T
   5   -203.3397089 -0.420128E-04  0.826E-03    0.89       1.1  T
   6   -203.3397157 -0.677246E-05  0.360E-03    0.89       2.4  T
   7   -203.3397172 -0.144778E-05  0.122E-03    0.89       7.2  T
   8   -203.3397173 -0.170774E-06  0.435E-04    0.89      20.2  T
   9   -203.3397173 -0.931112E-08  0.244E-04    0.89      36.0  T
     SCC iter.                  ...        0 min,  0.109 sec
     gradient                   ...        0 min,  0.023 sec
 * total energy  :  -200.1327744 Eh     change        0.7299601E-04 Eh
   gradient norm :     0.0242077 Eh/α   predicted     0.0000000E+00 (-100.00%)
   displ. norm   :     0.2089722 α      lambda       -0.1308302E-02
   maximum displ.:     0.0795038 α      in ANC's #12, #6, #9, ...

........................................................................
.............................. CYCLE   22 ..............................
........................................................................
   1   -203.3478324 -0.203348E+03  0.758E-02    0.89       0.0  T
   2   -203.3478411 -0.875191E-05  0.380E-02    0.89       1.0  T
   3   -203.3478029  0.382447E-04  0.176E-02    0.89       1.0  T
   4   -203.3478457 -0.428189E-04  0.603E-03    0.89       1.5  T
   5   -203.3478425  0.317346E-05  0.556E-03    0.89       1.6  T
   6   -203.3478465 -0.396720E-05  0.261E-03    0.89       3.4  T
     SCC iter.                  ...        0 min,  0.076 sec
     gradient                   ...        0 min,  0.022 sec
 * total energy  :  -200.1336462 Eh     change       -0.8717974E-03 Eh
   gradient norm :     0.0075937 Eh/α   predicted    -0.6827179E-03 ( -21.69%)
   displ. norm   :     0.1876917 α      lambda       -0.4183634E-03
   maximum displ.:     0.0676061 α      in ANC's #6, #12, #43, ...

........................................................................
.............................. CYCLE   23 ..............................
........................................................................
   1   -203.3516493 -0.203352E+03  0.440E-02    0.89       0.0  T
   2   -203.3516509 -0.160075E-05  0.245E-02    0.89       1.0  T
   3   -203.3516240  0.268988E-04  0.139E-02    0.89       1.0  T
   4   -203.3516523 -0.283021E-04  0.379E-03    0.89       2.3  T
   5   -203.3516513  0.105308E-05  0.403E-03    0.89       2.2  T
   6   -203.3516536 -0.230526E-05  0.140E-03    0.89       6.2  T
   7   -203.3516539 -0.280752E-06  0.428E-04    0.89      20.5  T
     SCC iter.                  ...        0 min,  0.085 sec
     gradient                   ...        0 min,  0.022 sec
 * total energy  :  -200.1339547 Eh     change       -0.3084368E-03 Eh
   gradient norm :     0.0041589 Eh/α   predicted    -0.2169994E-03 ( -29.65%)
   displ. norm   :     0.3379558 α      lambda       -0.4435863E-03
   maximum displ.:     0.1264808 α      in ANC's #6, #12, #9, ...

........................................................................
.............................. CYCLE   24 ..............................
........................................................................
   1   -203.3525618 -0.203353E+03  0.770E-02    0.89       0.0  T
   2   -203.3525657 -0.394720E-05  0.425E-02    0.89       1.0  T
   3   -203.3525310  0.347164E-04  0.157E-02    0.89       1.0  T
   4   -203.3525631 -0.321083E-04  0.701E-03    0.89       1.3  T
   5   -203.3525614  0.170932E-05  0.680E-03    0.89       1.3  T
   6   -203.3525689 -0.749736E-05  0.153E-03    0.89       5.7  T
   7   -203.3525692 -0.337280E-06  0.379E-04    0.89      23.1  T
   8   -203.3525693 -0.133610E-07  0.195E-04    0.89      45.0  T
     SCC iter.                  ...        0 min,  0.097 sec
     gradient                   ...        0 min,  0.022 sec
 * total energy  :  -200.1343244 Eh     change       -0.3697637E-03 Eh
   gradient norm :     0.0098721 Eh/α   predicted    -0.2471391E-03 ( -33.16%)
   displ. norm   :     0.5641677 α      lambda       -0.6578541E-03
   maximum displ.:     0.2172115 α      in ANC's #6, #12, #9, ...

........................................................................
.............................. CYCLE   25 ..............................
........................................................................
   1   -203.3498666 -0.203350E+03  0.123E-01    0.89       0.0  T
   2   -203.3498757 -0.907604E-05  0.681E-02    0.89       1.0  T
   3   -203.3498316  0.441513E-04  0.189E-02    0.89       1.0  T
   4   -203.3498678 -0.362656E-04  0.104E-02    0.89       1.0  T
   5   -203.3498657  0.212151E-05  0.936E-03    0.89       1.0  T
   6   -203.3498807 -0.149845E-04  0.212E-03    0.89       4.1  T
   7   -203.3498814 -0.706521E-06  0.462E-04    0.89      19.0  T
   8   -203.3498814 -0.123837E-07  0.252E-04    0.89      34.8  T
     SCC iter.                  ...        0 min,  0.097 sec
     gradient                   ...        0 min,  0.022 sec
 * total energy  :  -200.1348747 Eh     change       -0.5503088E-03 Eh
   gradient norm :     0.0117376 Eh/α   predicted    -0.4336452E-03 ( -21.20%)
   displ. norm   :     0.6186206 α      lambda       -0.6695568E-03
   maximum displ.:     0.2539716 α      in ANC's #6, #12, #9, ...

........................................................................
.............................. CYCLE   26 ..............................
........................................................................
   1   -203.3464571 -0.203346E+03  0.127E-01    0.88       0.0  T
   2   -203.3464663 -0.921895E-05  0.705E-02    0.89       1.0  T
   3   -203.3464362  0.301565E-04  0.171E-02    0.89       1.0  T
   4   -203.3464595 -0.233689E-04  0.100E-02    0.89       1.0  T
   5   -203.3464595  0.219175E-07  0.793E-03    0.89       1.1  T
   6   -203.3464704 -0.109062E-04  0.222E-03    0.89       4.0  T
   7   -203.3464713 -0.852773E-06  0.468E-04    0.89      18.7  T
   8   -203.3464713 -0.102983E-07  0.261E-04    0.89      33.7  T
     SCC iter.                  ...        0 min,  0.098 sec
     gradient                   ...        0 min,  0.022 sec
 * total energy  :  -200.1354215 Eh     change       -0.5468096E-03 Eh
   gradient norm :     0.0093200 Eh/α   predicted    -0.4628964E-03 ( -15.35%)
   displ. norm   :     0.5732456 α      lambda       -0.6057087E-03
   maximum displ.:     0.2549907 α      in ANC's #6, #12, #9, ...

........................................................................
.............................. CYCLE   27 ..............................
........................................................................
   1   -203.3466728 -0.203347E+03  0.111E-01    0.88       0.0  T
   2   -203.3466805 -0.772307E-05  0.614E-02    0.88       1.0  T
   3   -203.3466609  0.195967E-04  0.143E-02    0.88       1.0  T
   4   -203.3466767 -0.157836E-04  0.829E-03    0.88       1.1  T
   5   -203.3466814 -0.468545E-05  0.413E-03    0.88       2.1  T
   6   -203.3466833 -0.197724E-05  0.227E-03    0.88       3.9  T
   7   -203.3466842 -0.875201E-06  0.576E-04    0.88      15.2  T
     SCC iter.                  ...        0 min,  0.086 sec
     gradient                   ...        0 min,  0.022 sec
 * total energy  :  -200.1359137 Eh     change       -0.4921617E-03 Eh
   gradient norm :     0.0065271 Eh/α   predicted    -0.4023783E-03 ( -18.24%)
   displ. norm   :     0.6032015 α      lambda       -0.5402962E-03
   maximum displ.:     0.2786359 α      in ANC's #6, #12, #9, ...

........................................................................
.............................. CYCLE   28 ..............................
........................................................................
   1   -203.3476407 -0.203348E+03  0.114E-01    0.87       0.0  T
   2   -203.3476488 -0.815982E-05  0.630E-02    0.87       1.0  T
   3   -203.3476252  0.236071E-04  0.147E-02    0.87       1.0  T
   4   -203.3476331 -0.787444E-05  0.115E-02    0.87       1.0  T
   5   -203.3476404 -0.725011E-05  0.818E-03    0.87       1.1  T
   6   -203.3476522 -0.118005E-04  0.174E-03    0.87       5.0  T
   7   -203.3476527 -0.489566E-06  0.458E-04    0.87      19.2  T
   8   -203.3476527 -0.157029E-07  0.247E-04    0.87      35.5  T
     SCC iter.                  ...        0 min,  0.098 sec
     gradient                   ...        0 min,  0.022 sec
 * total energy  :  -200.1363797 Eh     change       -0.4659574E-03 Eh
   gradient norm :     0.0074090 Eh/α   predicted    -0.3684433E-03 ( -20.93%)
   displ. norm   :     0.6424933 α      lambda       -0.5895995E-03
   maximum displ.:     0.3096035 α      in ANC's #6, #12, #9, ...

........................................................................
.............................. CYCLE   29 ..............................
........................................................................
   1   -203.3510372 -0.203351E+03  0.120E-01    0.86       0.0  T
   2   -203.3510465 -0.929419E-05  0.661E-02    0.87       1.0  T
   3   -203.3510034  0.431372E-04  0.184E-02    0.87       1.0  T
   4   -203.3510285 -0.251231E-04  0.127E-02    0.87       1.0  T
   5   -203.3510344 -0.588366E-05  0.959E-03    0.87       1.0  T
   6   -203.3510513 -0.169007E-04  0.169E-03    0.87       5.2  T
   7   -203.3510517 -0.430471E-06  0.467E-04    0.87      18.8  T
   8   -203.3510517 -0.144128E-07  0.256E-04    0.87      34.3  T
     SCC iter.                  ...        0 min,  0.097 sec
     gradient                   ...        0 min,  0.022 sec
 * total energy  :  -200.1368893 Eh     change       -0.5096437E-03 Eh
   gradient norm :     0.0077543 Eh/α   predicted    -0.4165023E-03 ( -18.28%)
   displ. norm   :     0.7389927 α      lambda       -0.6212975E-03
   maximum displ.:     0.3576843 α      in ANC's #6, #12, #9, ...

........................................................................
.............................. CYCLE   30 ..............................
........................................................................
   1   -203.3493566 -0.203349E+03  0.139E-01    0.86       0.0  T
   2   -203.3493684 -0.118091E-04  0.765E-02    0.86       1.0  T
   3   -203.3493320  0.363934E-04  0.186E-02    0.86       1.0  T
   4   -203.3493536 -0.216074E-04  0.126E-02    0.86       1.0  T
   5   -203.3493530  0.620361E-06  0.103E-02    0.86       1.0  T
   6   -203.3493740 -0.210785E-04  0.161E-03    0.86       5.4  T
   7   -203.3493744 -0.379616E-06  0.522E-04    0.86      16.8  T
   8   -203.3493744 -0.150064E-07  0.302E-04    0.86      29.0  T
     SCC iter.                  ...        0 min,  0.098 sec
     gradient                   ...        0 min,  0.022 sec
 * total energy  :  -200.1374104 Eh     change       -0.5210842E-03 Eh
   gradient norm :     0.0078603 Eh/α   predicted    -0.4803322E-03 (  -7.82%)
   displ. norm   :     0.6743044 α      lambda       -0.7089448E-03
   maximum displ.:     0.3448814 α      in ANC's #6, #12, #4, ...

........................................................................
.............................. CYCLE   31 ..............................
........................................................................
   1   -203.3560136 -0.203356E+03  0.129E-01    0.86       0.0  T
   2   -203.3560244 -0.108180E-04  0.718E-02    0.86       1.0  T
   3   -203.3559556  0.688214E-04  0.229E-02    0.86       1.0  T
   4   -203.3560257 -0.701290E-04  0.894E-03    0.86       1.0  T
   5   -203.3560224  0.332875E-05  0.733E-03    0.86       1.2  T
   6   -203.3560314 -0.896784E-05  0.300E-03    0.86       2.9  T
   7   -203.3560330 -0.159669E-05  0.593E-04    0.86      14.8  T
   8   -203.3560330 -0.222908E-07  0.334E-04    0.86      26.2  T
     SCC iter.                  ...        0 min,  0.098 sec
     gradient                   ...        0 min,  0.022 sec
 * total energy  :  -200.1378768 Eh     change       -0.4664455E-03 Eh
   gradient norm :     0.0077894 Eh/α   predicted    -0.5156489E-03 (  10.55%)
   displ. norm   :     0.7084194 α      lambda       -0.4990720E-03
   maximum displ.:     0.3570105 α      in ANC's #6, #12, #4, ...

........................................................................
.............................. CYCLE   32 ..............................
........................................................................
   1   -203.3477365 -0.203348E+03  0.132E-01    0.85       0.0  T
   2   -203.3477473 -0.107907E-04  0.731E-02    0.85       1.0  T
   3   -203.3477351  0.122509E-04  0.137E-02    0.85       1.0  T
   4   -203.3477364 -0.134042E-05  0.105E-02    0.86       1.0  T
   5   -203.3477462 -0.974482E-05  0.557E-03    0.85       1.6  T
   6   -203.3477510 -0.485278E-05  0.194E-03    0.85       4.5  T
   7   -203.3477517 -0.671707E-06  0.596E-04    0.85      14.7  T
   8   -203.3477517 -0.321938E-07  0.300E-04    0.85      29.2  T
     SCC iter.                  ...        0 min,  0.098 sec
     gradient                   ...        0 min,  0.022 sec
 * total energy  :  -200.1382397 Eh     change       -0.3628272E-03 Eh
   gradient norm :     0.0074853 Eh/α   predicted    -0.3747698E-03 (   3.29%)
   displ. norm   :     0.5016732 α      lambda       -0.2976580E-03
   maximum displ.:     0.2749302 α      in ANC's #6, #4, #9, ...

........................................................................
.............................. CYCLE   33 ..............................
........................................................................
   1   -203.3471779 -0.203347E+03  0.862E-02    0.86       0.0  T
   2   -203.3471826 -0.466358E-05  0.481E-02    0.86       1.0  T
   3   -203.3471749  0.774836E-05  0.915E-03    0.86       1.0  T
   4   -203.3471699  0.494196E-05  0.939E-03    0.86       1.0  T
   5   -203.3471804 -0.104938E-04  0.482E-03    0.86       1.8  T
   6   -203.3471844 -0.395240E-05  0.124E-03    0.86       7.1  T
   7   -203.3471846 -0.239357E-06  0.380E-04    0.86      23.1  T
   8   -203.3471846 -0.737620E-08  0.205E-04    0.86      42.7  T
     SCC iter.                  ...        0 min,  0.098 sec
     gradient                   ...        0 min,  0.022 sec
 * total energy  :  -200.1384802 Eh     change       -0.2405212E-03 Eh
   gradient norm :     0.0059177 Eh/α   predicted    -0.1862865E-03 ( -22.55%)
   displ. norm   :     0.5038802 α      lambda       -0.3413912E-03
   maximum displ.:     0.2884963 α      in ANC's #6, #4, #10, ...

........................................................................
.............................. CYCLE   34 ..............................
........................................................................
   1   -203.3495168 -0.203350E+03  0.842E-02    0.86       0.0  T
   2   -203.3495212 -0.446656E-05  0.475E-02    0.86       1.0  T
   3   -203.3494906  0.305790E-04  0.145E-02    0.86       1.0  T
   4   -203.3495115 -0.208757E-04  0.865E-03    0.86       1.0  T
   5   -203.3495196 -0.805558E-05  0.507E-03    0.86       1.7  T
   6   -203.3495236 -0.404702E-05  0.139E-03    0.86       6.3  T
   7   -203.3495239 -0.273812E-06  0.438E-04    0.86      20.0  T
   8   -203.3495239 -0.138649E-07  0.221E-04    0.86      39.7  T
     SCC iter.                  ...        0 min,  0.097 sec
     gradient                   ...        0 min,  0.022 sec
 * total energy  :  -200.1387352 Eh     change       -0.2550008E-03 Eh
   gradient norm :     0.0048947 Eh/α   predicted    -0.2140381E-03 ( -16.06%)
   displ. norm   :     0.5161390 α      lambda       -0.3024951E-03
   maximum displ.:     0.3123064 α      in ANC's #6, #4, #10, ...

........................................................................
.............................. CYCLE   35 ..............................
........................................................................
   1   -203.3551484 -0.203355E+03  0.779E-02    0.86       0.0  T
   2   -203.3551521 -0.369568E-05  0.444E-02    0.86       1.0  T
   3   -203.3551361  0.159717E-04  0.110E-02    0.86       1.0  T
   4   -203.3551515 -0.154387E-04  0.496E-03    0.86       1.8  T
   5   -203.3551515  0.249960E-08  0.405E-03    0.86       2.2  T
   6   -203.3551537 -0.217921E-05  0.194E-03    0.86       4.5  T
   7   -203.3551544 -0.687993E-06  0.406E-04    0.86      21.6  T
     SCC iter.                  ...        0 min,  0.086 sec
     gradient                   ...        0 min,  0.022 sec
 * total energy  :  -200.1389600 Eh     change       -0.2248318E-03 Eh
   gradient norm :     0.0054533 Eh/α   predicted    -0.1915426E-03 ( -14.81%)
   displ. norm   :     0.5965614 α      lambda       -0.2827522E-03
   maximum displ.:     0.3511681 α      in ANC's #6, #4, #10, ...

........................................................................
.............................. CYCLE   36 ..............................
........................................................................
   1   -203.3527530 -0.203353E+03  0.953E-02    0.86       0.0  T
   2   -203.3527564 -0.339442E-05  0.542E-02    0.86       1.0  T
   3   -203.3526864  0.699879E-04  0.204E-02    0.86       1.0  T
   4   -203.3527522 -0.657630E-04  0.757E-03    0.86       1.2  T
   5   -203.3527556 -0.342856E-05  0.529E-03    0.86       1.7  T
   6   -203.3527600 -0.443669E-05  0.112E-03    0.86       7.8  T
   7   -203.3527602 -0.163972E-06  0.408E-04    0.86      21.5  T
   8   -203.3527602 -0.522883E-08  0.220E-04    0.86      39.8  T
     SCC iter.                  ...        0 min,  0.103 sec
     gradient                   ...        0 min,  0.022 sec
 * total energy  :  -200.1391899 Eh     change       -0.2298871E-03 Eh
   gradient norm :     0.0059064 Eh/α   predicted    -0.1916927E-03 ( -16.61%)
   displ. norm   :     0.5385824 α      lambda       -0.2870566E-03
   maximum displ.:     0.3347165 α      in ANC's #6, #4, #10, ...

........................................................................
.............................. CYCLE   37 ..............................
........................................................................
   1   -203.3536924 -0.203354E+03  0.831E-02    0.86       0.0  T
   2   -203.3536959 -0.351610E-05  0.475E-02    0.86       1.0  T
   3   -203.3536759  0.199888E-04  0.118E-02    0.86       1.0  T
   4   -203.3536912 -0.152618E-04  0.688E-03    0.86       1.3  T
   5   -203.3536938 -0.258029E-05  0.493E-03    0.86       1.8  T
   6   -203.3536980 -0.418511E-05  0.133E-03    0.86       6.6  T
   7   -203.3536982 -0.251812E-06  0.402E-04    0.86      21.8  T
   8   -203.3536982 -0.847396E-08  0.221E-04    0.86      39.7  T
     SCC iter.                  ...        0 min,  0.098 sec
     gradient                   ...        0 min,  0.022 sec
 * total energy  :  -200.1394298 Eh     change       -0.2398762E-03 Eh
   gradient norm :     0.0050302 Eh/α   predicted    -0.1851631E-03 ( -22.81%)
   displ. norm   :     0.5966308 α      lambda       -0.3125476E-03
   maximum displ.:     0.3751705 α      in ANC's #6, #4, #10, ...

........................................................................
.............................. CYCLE   38 ..............................
........................................................................
   1   -203.3552075 -0.203355E+03  0.917E-02    0.86       0.0  T
   2   -203.3552125 -0.497062E-05  0.525E-02    0.86       1.0  T
   3   -203.3551781  0.344129E-04  0.150E-02    0.86       1.0  T
   4   -203.3552029 -0.248575E-04  0.869E-03    0.86       1.0  T
   5   -203.3552121 -0.917336E-05  0.460E-03    0.86       1.9  T
   6   -203.3552151 -0.303658E-05  0.158E-03    0.86       5.6  T
   7   -203.3552155 -0.347315E-06  0.459E-04    0.86      19.1  T
   8   -203.3552155 -0.132525E-07  0.249E-04    0.86      35.3  T
     SCC iter.                  ...        0 min,  0.097 sec
     gradient                   ...        0 min,  0.022 sec
 * total energy  :  -200.1396731 Eh     change       -0.2433124E-03 Eh
   gradient norm :     0.0056912 Eh/α   predicted    -0.2119062E-03 ( -12.91%)
   displ. norm   :     0.5966993 α      lambda       -0.3056635E-03
   maximum displ.:     0.3836872 α      in ANC's #6, #4, #10, ...

........................................................................
.............................. CYCLE   39 ..............................
........................................................................
   1   -203.3548692 -0.203355E+03  0.940E-02    0.86       0.0  T
   2   -203.3548697 -0.532724E-06  0.537E-02    0.86       1.0  T
   3   -203.3545681  0.301601E-03  0.405E-02    0.86       1.0  T
   4   -203.3548695 -0.301409E-03  0.889E-03    0.86       1.0  T
   5   -203.3548767 -0.717495E-05  0.534E-03    0.86       1.6  T
   6   -203.3548805 -0.384292E-05  0.166E-03    0.86       5.3  T
   7   -203.3548808 -0.307284E-06  0.541E-04    0.86      16.2  T
   8   -203.3548809 -0.267353E-07  0.256E-04    0.86      34.3  T
     SCC iter.                  ...        0 min,  0.097 sec
     gradient                   ...        0 min,  0.022 sec
 * total energy  :  -200.1399017 Eh     change       -0.2286223E-03 Eh
   gradient norm :     0.0056248 Eh/α   predicted    -0.2072525E-03 (  -9.35%)
   displ. norm   :     0.6003218 α      lambda       -0.2619678E-03
   maximum displ.:     0.3869125 α      in ANC's #6, #4, #10, ...

........................................................................
.............................. CYCLE   40 ..............................
........................................................................
   1   -203.3538414 -0.203354E+03  0.936E-02    0.85       0.0  T
   2   -203.3538456 -0.429074E-05  0.530E-02    0.86       1.0  T
   3   -203.3537398  0.105812E-03  0.247E-02    0.86       1.0  T
   4   -203.3538402 -0.100368E-03  0.869E-03    0.86       1.0  T
   5   -203.3538462 -0.595460E-05  0.583E-03    0.86       1.5  T
   6   -203.3538510 -0.485164E-05  0.151E-03    0.86       5.8  T
   7   -203.3538513 -0.307902E-06  0.461E-04    0.86      19.0  T
   8   -203.3538513 -0.149135E-07  0.239E-04    0.86      36.8  T
     SCC iter.                  ...        0 min,  0.097 sec
     gradient                   ...        0 min,  0.022 sec
 * total energy  :  -200.1401180 Eh     change       -0.2162715E-03 Eh
   gradient norm :     0.0061905 Eh/α   predicted    -0.1781920E-03 ( -17.61%)
   displ. norm   :     0.6059817 α      lambda       -0.3043577E-03
   maximum displ.:     0.3885231 α      in ANC's #6, #4, #10, ...

........................................................................
.............................. CYCLE   41 ..............................
........................................................................
   1   -203.3542773 -0.203354E+03  0.988E-02    0.86       0.0  T
   2   -203.3542841 -0.681841E-05  0.556E-02    0.85       1.0  T
   3   -203.3542600  0.241509E-04  0.143E-02    0.85       1.0  T
   4   -203.3542851 -0.250717E-04  0.605E-03    0.85       1.4  T
   5   -203.3542847  0.328383E-06  0.445E-03    0.85       2.0  T
   6   -203.3542871 -0.240027E-05  0.252E-03    0.85       3.5  T
   7   -203.3542883 -0.116770E-05  0.472E-04    0.85      18.6  T
     SCC iter.                  ...        0 min,  0.086 sec
     gradient                   ...        0 min,  0.022 sec
 * total energy  :  -200.1403676 Eh     change       -0.2496494E-03 Eh
   gradient norm :     0.0056928 Eh/α   predicted    -0.2080647E-03 ( -16.66%)
   displ. norm   :     0.6172344 α      lambda       -0.3419964E-03
   maximum displ.:     0.3837989 α      in ANC's #6, #4, #10, ...

........................................................................
.............................. CYCLE   42 ..............................
........................................................................
   1   -203.3556383 -0.203356E+03  0.106E-01    0.86       0.0  T
   2   -203.3556444 -0.609944E-05  0.596E-02    0.86       1.0  T
   3   -203.3555075  0.136904E-03  0.288E-02    0.86       1.0  T
   4   -203.3556350 -0.127528E-03  0.107E-02    0.86       1.0  T
   5   -203.3556450 -0.996558E-05  0.696E-03    0.86       1.3  T
   6   -203.3556520 -0.695976E-05  0.187E-03    0.86       4.7  T
   7   -203.3556525 -0.528613E-06  0.512E-04    0.86      17.1  T
   8   -203.3556525 -0.207667E-07  0.262E-04    0.86      33.4  T
     SCC iter.                  ...        0 min,  0.098 sec
     gradient                   ...        0 min,  0.022 sec
 * total energy  :  -200.1405923 Eh     change       -0.2247146E-03 Eh
   gradient norm :     0.0092294 Eh/α   predicted    -0.2361513E-03 (   5.09%)
   displ. norm   :     0.5655597 α      lambda       -0.3373566E-03
   maximum displ.:     0.3533167 α      in ANC's #6, #4, #10, ...
 * RMSD in coord.:     0.9416094 α      energy gain  -0.7744927E-02 Eh

generating ANC from model Hessian ...
Using Lindh-Hessian (1995)
 Shifting diagonal of input Hessian by   4.982625308211940E-003
 Lowest  eigenvalues of input Hessian
   -0.000000    0.000000    0.000000    0.000000    0.000000    0.000000
    0.005000    0.005015    0.005019    0.005031    0.005044    0.005079
    0.005103    0.005157    0.005199    0.005275    0.005365    0.005559
 Highest eigenvalues
    2.129159    2.139709    2.392098    2.400131    2.427822    2.429610
 

........................................................................
.............................. CYCLE   43 ..............................
........................................................................
   1   -203.3518450 -0.203352E+03  0.997E-02    0.86       0.0  T
   2   -203.3518525 -0.748712E-05  0.561E-02    0.86       1.0  T
   3   -203.3518214  0.310667E-04  0.155E-02    0.86       1.0  T
   4   -203.3518487 -0.272988E-04  0.781E-03    0.86       1.1  T
   5   -203.3518466  0.205096E-05  0.750E-03    0.86       1.2  T
   6   -203.3518563 -0.966695E-05  0.196E-03    0.86       4.5  T
   7   -203.3518569 -0.571967E-06  0.494E-04    0.86      17.8  T
   8   -203.3518569 -0.194612E-07  0.267E-04    0.86      32.8  T
     SCC iter.                  ...        0 min,  0.098 sec
     gradient                   ...        0 min,  0.023 sec
 * total energy  :  -200.1408142 Eh     change       -0.2218463E-03 Eh
   gradient norm :     0.0076992 Eh/α   predicted     0.0000000E+00 (-100.00%)
   displ. norm   :     0.1348862 α      lambda       -0.2522721E-03
   maximum displ.:     0.0433503 α      in ANC's #9, #15, #38, ...

........................................................................
.............................. CYCLE   44 ..............................
........................................................................
   1   -203.3544741 -0.203354E+03  0.331E-02    0.85       0.0  T
   2   -203.3544748 -0.689049E-06  0.187E-02    0.86       1.0  T
   3   -203.3544708  0.402050E-05  0.544E-03    0.86       1.6  T
   4   -203.3544744 -0.361710E-05  0.260E-03    0.86       3.4  T
   5   -203.3544742  0.238848E-06  0.249E-03    0.86       3.5  T
   6   -203.3544752 -0.100174E-05  0.828E-04    0.86      10.6  T
     SCC iter.                  ...        0 min,  0.074 sec
     gradient                   ...        0 min,  0.022 sec
 * total energy  :  -200.1410255 Eh     change       -0.2112971E-03 Eh
   gradient norm :     0.0037078 Eh/α   predicted    -0.1284730E-03 ( -39.20%)
   displ. norm   :     0.2583623 α      lambda       -0.3552189E-03
   maximum displ.:     0.1013359 α      in ANC's #38, #24, #41, ...

........................................................................
.............................. CYCLE   45 ..............................
........................................................................
   1   -203.3566164 -0.203357E+03  0.697E-02    0.85       0.0  T
   2   -203.3566187 -0.224170E-05  0.398E-02    0.85       1.0  T
   3   -203.3566030  0.156824E-04  0.104E-02    0.85       1.0  T
   4   -203.3566146 -0.116049E-04  0.593E-03    0.85       1.5  T
   5   -203.3566163 -0.170708E-05  0.469E-03    0.85       1.9  T
   6   -203.3566200 -0.364877E-05  0.126E-03    0.85       6.9  T
   7   -203.3566202 -0.269888E-06  0.318E-04    0.85      27.5  T
   8   -203.3566202 -0.887164E-08  0.149E-04    0.85      58.8  T
     SCC iter.                  ...        0 min,  0.098 sec
     gradient                   ...        0 min,  0.023 sec
 * total energy  :  -200.1413189 Eh     change       -0.2934114E-03 Eh
   gradient norm :     0.0046675 Eh/α   predicted    -0.1894659E-03 ( -35.43%)
   displ. norm   :     0.5386032 α      lambda       -0.5684323E-03
   maximum displ.:     0.2106880 α      in ANC's #38, #24, #41, ...

........................................................................
.............................. CYCLE   46 ..............................
........................................................................
   1   -203.3552698 -0.203355E+03  0.149E-01    0.84       0.0  T
   2   -203.3552762 -0.639347E-05  0.848E-02    0.85       1.0  T
   3   -203.3550467  0.229497E-03  0.356E-02    0.85       1.0  T
   4   -203.3552599 -0.213202E-03  0.133E-02    0.85       1.0  T
   5   -203.3552795 -0.195842E-04  0.642E-03    0.85       1.4  T
   6   -203.3552847 -0.516739E-05  0.195E-03    0.85       4.5  T
   7   -203.3552854 -0.667963E-06  0.539E-04    0.85      16.3  T
   8   -203.3552854 -0.244842E-07  0.271E-04    0.85      32.4  T
     SCC iter.                  ...        0 min,  0.098 sec
     gradient                   ...        0 min,  0.022 sec
 * total energy  :  -200.1417140 Eh     change       -0.3951170E-03 Eh
   gradient norm :     0.0135877 Eh/α   predicted    -0.3666945E-03 (  -7.19%)
   displ. norm   :     0.3717945 α      lambda       -0.4466257E-03
   maximum displ.:     0.1238454 α      in ANC's #24, #38, #9, ...

........................................................................
.............................. CYCLE   47 ..............................
........................................................................
   1   -203.3542659 -0.203354E+03  0.110E-01    0.84       0.0  T
   2   -203.3542726 -0.673002E-05  0.612E-02    0.84       1.0  T
   3   -203.3542629  0.963885E-05  0.110E-02    0.84       1.0  T
   4   -203.3542470  0.159522E-04  0.124E-02    0.84       1.0  T
   5   -203.3542672 -0.201803E-04  0.667E-03    0.84       1.3  T
   6   -203.3542749 -0.774778E-05  0.947E-04    0.84       9.3  T
   7   -203.3542751 -0.127526E-06  0.337E-04    0.84      26.0  T
   8   -203.3542751 -0.937007E-08  0.181E-04    0.84      48.4  T
     SCC iter.                  ...        0 min,  0.098 sec
     gradient                   ...        0 min,  0.022 sec
 * total energy  :  -200.1421056 Eh     change       -0.3915920E-03 Eh
   gradient norm :     0.0145089 Eh/α   predicted    -0.2541976E-03 ( -35.09%)
   displ. norm   :     0.5644267 α      lambda       -0.1227538E-02
   maximum displ.:     0.1959393 α      in ANC's #24, #9, #11, ...

........................................................................
.............................. CYCLE   48 ..............................
........................................................................
   1   -203.3554746 -0.203355E+03  0.177E-01    0.84       0.0  T
   2   -203.3554852 -0.106895E-04  0.963E-02    0.84       1.0  T
   3   -203.3548992  0.586058E-03  0.581E-02    0.84       1.0  T
   4   -203.3554864 -0.587242E-03  0.155E-02    0.84       1.0  T
   5   -203.3554926 -0.615255E-05  0.100E-02    0.84       1.0  T
   6   -203.3555079 -0.153512E-04  0.276E-03    0.84       3.2  T
   7   -203.3555093 -0.137463E-05  0.646E-04    0.84      13.6  T
   8   -203.3555094 -0.469273E-07  0.320E-04    0.84      27.4  T
     SCC iter.                  ...        0 min,  0.097 sec
     gradient                   ...        0 min,  0.022 sec
 * total energy  :  -200.1429467 Eh     change       -0.8410592E-03 Eh
   gradient norm :     0.0120937 Eh/α   predicted    -0.8093780E-03 (  -3.77%)
   displ. norm   :     0.7277697 α      lambda       -0.1127909E-02
   maximum displ.:     0.2537154 α      in ANC's #24, #38, #9, ...

........................................................................
.............................. CYCLE   49 ..............................
........................................................................
   1   -203.3467500 -0.203347E+03  0.209E-01    0.83       0.0  T
   2   -203.3467631 -0.131456E-04  0.115E-01    0.83       1.0  T
   3   -203.3459990  0.764130E-03  0.649E-02    0.83       1.0  T
   4   -203.3467535 -0.754470E-03  0.192E-02    0.83       1.0  T
   5   -203.3467712 -0.176816E-04  0.118E-02    0.83       1.0  T
   6   -203.3467927 -0.215106E-04  0.269E-03    0.83       3.3  T
   7   -203.3467939 -0.121981E-05  0.548E-04    0.83      16.0  T
   8   -203.3467939 -0.180050E-07  0.314E-04    0.83      28.0  T
     SCC iter.                  ...        0 min,  0.098 sec
     gradient                   ...        0 min,  0.022 sec
 * total energy  :  -200.1437316 Eh     change       -0.7849131E-03 Eh
   gradient norm :     0.0145558 Eh/α   predicted    -0.8626538E-03 (   9.90%)
   displ. norm   :     0.3844847 α      lambda       -0.9993225E-03
   maximum displ.:     0.1442102 α      in ANC's #9, #24, #19, ...

........................................................................
.............................. CYCLE   50 ..............................
........................................................................
   1   -203.3534574 -0.203353E+03  0.104E-01    0.83       0.0  T
   2   -203.3534645 -0.717383E-05  0.571E-02    0.83       1.0  T
   3   -203.3532727  0.191829E-03  0.330E-02    0.83       1.0  T
   4   -203.3534538 -0.181097E-03  0.122E-02    0.83       1.0  T
   5   -203.3534672 -0.133752E-04  0.702E-03    0.83       1.2  T
   6   -203.3534734 -0.623280E-05  0.240E-03    0.83       3.6  T
   7   -203.3534744 -0.102314E-05  0.565E-04    0.83      15.5  T
   8   -203.3534745 -0.414104E-07  0.236E-04    0.83      37.1  T
     SCC iter.                  ...        0 min,  0.098 sec
     gradient                   ...        0 min,  0.022 sec
 * total energy  :  -200.1443273 Eh     change       -0.5957019E-03 Eh
   gradient norm :     0.0151080 Eh/α   predicted    -0.5735366E-03 (  -3.72%)
   displ. norm   :     0.5242921 α      lambda       -0.8969012E-03
   maximum displ.:     0.2031436 α      in ANC's #9, #24, #11, ...

........................................................................
.............................. CYCLE   51 ..............................
........................................................................
   1   -203.3527045 -0.203353E+03  0.144E-01    0.83       0.0  T
   2   -203.3527157 -0.111313E-04  0.789E-02    0.83       1.0  T
   3   -203.3525078  0.207832E-03  0.365E-02    0.83       1.0  T
   4   -203.3527003 -0.192454E-03  0.142E-02    0.83       1.0  T
   5   -203.3527145 -0.142610E-04  0.860E-03    0.83       1.0  T
   6   -203.3527259 -0.113189E-04  0.266E-03    0.83       3.3  T
   7   -203.3527271 -0.118342E-05  0.635E-04    0.83      13.8  T
   8   -203.3527271 -0.375433E-07  0.354E-04    0.83      24.8  T
     SCC iter.                  ...        0 min,  0.098 sec
     gradient                   ...        0 min,  0.022 sec
 * total energy  :  -200.1449759 Eh     change       -0.6486356E-03 Eh
   gradient norm :     0.0107951 Eh/α   predicted    -0.5717225E-03 ( -11.86%)
   displ. norm   :     0.5337817 α      lambda       -0.7174399E-03
   maximum displ.:     0.2335007 α      in ANC's #9, #24, #11, ...

........................................................................
.............................. CYCLE   52 ..............................
........................................................................
   1   -203.3543732 -0.203354E+03  0.137E-01    0.82       0.0  T
   2   -203.3543839 -0.107021E-04  0.751E-02    0.82       1.0  T
   3   -203.3542171  0.166805E-03  0.314E-02    0.82       1.0  T
   4   -203.3543712 -0.154061E-03  0.132E-02    0.82       1.0  T
   5   -203.3543869 -0.156766E-04  0.618E-03    0.82       1.4  T
   6   -203.3543923 -0.539354E-05  0.206E-03    0.82       4.2  T
   7   -203.3543930 -0.720431E-06  0.551E-04    0.82      15.9  T
   8   -203.3543930 -0.206632E-07  0.306E-04    0.82      28.7  T
     SCC iter.                  ...        0 min,  0.098 sec
     gradient                   ...        0 min,  0.022 sec
 * total energy  :  -200.1455225 Eh     change       -0.5465618E-03 Eh
   gradient norm :     0.0098722 Eh/α   predicted    -0.4609294E-03 ( -15.67%)
   displ. norm   :     0.5971155 α      lambda       -0.7797907E-03
   maximum displ.:     0.2769640 α      in ANC's #9, #24, #11, ...

........................................................................
.............................. CYCLE   53 ..............................
........................................................................
   1   -203.3580167 -0.203358E+03  0.142E-01    0.81       0.0  T
   2   -203.3580277 -0.109912E-04  0.791E-02    0.81       1.0  T
   3   -203.3578122  0.215440E-03  0.347E-02    0.81       1.0  T
   4   -203.3580022 -0.190010E-03  0.159E-02    0.81       1.0  T
   5   -203.3580338 -0.315318E-04  0.661E-03    0.81       1.3  T
   6   -203.3580381 -0.432261E-05  0.214E-03    0.81       4.1  T
   7   -203.3580388 -0.674512E-06  0.684E-04    0.81      12.8  T
   8   -203.3580388 -0.486160E-07  0.320E-04    0.81      27.4  T
     SCC iter.                  ...        0 min,  0.097 sec
     gradient                   ...        0 min,  0.022 sec
 * total energy  :  -200.1460105 Eh     change       -0.4880665E-03 Eh
   gradient norm :     0.0131789 Eh/α   predicted    -0.5289153E-03 (   8.37%)
   displ. norm   :     0.5591219 α      lambda       -0.7650311E-03
   maximum displ.:     0.2718477 α      in ANC's #9, #11, #24, ...

........................................................................
.............................. CYCLE   54 ..............................
........................................................................
   1   -203.3594970 -0.203359E+03  0.131E-01    0.80       0.0  T
   2   -203.3595111 -0.141770E-04  0.726E-02    0.81       1.0  T
   3   -203.3594441  0.670582E-04  0.214E-02    0.81       1.0  T
   4   -203.3594715 -0.274239E-04  0.167E-02    0.81       1.0  T
   5   -203.3595115 -0.399898E-04  0.688E-03    0.81       1.3  T
   6   -203.3595172 -0.568806E-05  0.226E-03    0.81       3.9  T
   7   -203.3595180 -0.787716E-06  0.778E-04    0.81      11.3  T
   8   -203.3595180 -0.413723E-07  0.414E-04    0.81      21.2  T
     SCC iter.                  ...        0 min,  0.098 sec
     gradient                   ...        0 min,  0.022 sec
 * total energy  :  -200.1464675 Eh     change       -0.4570021E-03 Eh
   gradient norm :     0.0097144 Eh/α   predicted    -0.5021031E-03 (   9.87%)
   displ. norm   :     0.4263145 α      lambda       -0.5172126E-03
   maximum displ.:     0.2293100 α      in ANC's #9, #10, #11, ...

........................................................................
.............................. CYCLE   55 ..............................
........................................................................
   1   -203.3655211 -0.203366E+03  0.103E-01    0.81       0.0  T
   2   -203.3655224 -0.127213E-05  0.561E-02    0.81       1.0  T
   3   -203.3652051  0.317303E-03  0.427E-02    0.81       1.0  T
   4   -203.3655258 -0.320739E-03  0.969E-03    0.81       1.0  T
   5   -203.3655284 -0.259731E-05  0.697E-03    0.81       1.3  T
   6   -203.3655355 -0.709643E-05  0.190E-03    0.81       4.6  T
   7   -203.3655361 -0.588837E-06  0.506E-04    0.81      17.3  T
   8   -203.3655361 -0.739436E-08  0.323E-04    0.81      27.2  T
     SCC iter.                  ...        0 min,  0.097 sec
     gradient                   ...        0 min,  0.022 sec
 * total energy  :  -200.1467514 Eh     change       -0.2838863E-03 Eh
   gradient norm :     0.0121989 Eh/α   predicted    -0.3056092E-03 (   7.65%)
   displ. norm   :     0.6015355 α      lambda       -0.8647343E-03
   maximum displ.:     0.2952067 α      in ANC's #9, #11, #24, ...

........................................................................
.............................. CYCLE   56 ..............................
........................................................................
   1   -203.3514715 -0.203351E+03  0.162E-01    0.80       0.0  T
   2   -203.3514905 -0.189755E-04  0.866E-02    0.80       1.0  T
   3   -203.3511890  0.301478E-03  0.418E-02    0.80       1.0  T
   4   -203.3514530 -0.264003E-03  0.200E-02    0.80       1.0  T
   5   -203.3514973 -0.442878E-04  0.948E-03    0.80       1.0  T
   6   -203.3515074 -0.101118E-04  0.304E-03    0.80       2.9  T
   7   -203.3515090 -0.159119E-05  0.797E-04    0.80      11.0  T
   8   -203.3515090 -0.589160E-07  0.394E-04    0.80      22.3  T
     SCC iter.                  ...        0 min,  0.098 sec
     gradient                   ...        0 min,  0.022 sec
 * total energy  :  -200.1470973 Eh     change       -0.3458380E-03 Eh
   gradient norm :     0.0124549 Eh/α   predicted    -0.5888229E-03 (  70.26%)
   displ. norm   :     0.3191049 α      lambda       -0.5945546E-03
   maximum displ.:     0.1698465 α      in ANC's #9, #10, #11, ...

........................................................................
.............................. CYCLE   57 ..............................
........................................................................
   1   -203.3581119 -0.203358E+03  0.650E-02    0.80       0.0  T
   2   -203.3581147 -0.273436E-05  0.371E-02    0.80       1.0  T
   3   -203.3580735  0.411451E-04  0.156E-02    0.80       1.0  T
   4   -203.3581096 -0.360433E-04  0.715E-03    0.80       1.2  T
   5   -203.3581155 -0.591067E-05  0.432E-03    0.80       2.0  T
   6   -203.3581178 -0.228089E-05  0.147E-03    0.80       6.0  T
   7   -203.3581180 -0.279723E-06  0.511E-04    0.80      17.2  T
     SCC iter.                  ...        0 min,  0.086 sec
     gradient                   ...        0 min,  0.022 sec
 * total energy  :  -200.1475131 Eh     change       -0.4157818E-03 Eh
   gradient norm :     0.0070697 Eh/α   predicted    -0.3275489E-03 ( -21.22%)
   displ. norm   :     0.4883356 α      lambda       -0.5246100E-03
   maximum displ.:     0.2754539 α      in ANC's #9, #10, #11, ...

........................................................................
.............................. CYCLE   58 ..............................
........................................................................
   1   -203.3626953 -0.203363E+03  0.105E-01    0.80       0.0  T
   2   -203.3627034 -0.814383E-05  0.585E-02    0.80       1.0  T
   3   -203.3626724  0.310134E-04  0.159E-02    0.81       1.0  T
   4   -203.3626945 -0.220831E-04  0.991E-03    0.80       1.0  T
   5   -203.3626981 -0.355761E-05  0.784E-03    0.80       1.1  T
   6   -203.3627076 -0.951395E-05  0.243E-03    0.80       3.6  T
   7   -203.3627086 -0.100189E-05  0.608E-04    0.80      14.4  T
   8   -203.3627086 -0.569514E-08  0.347E-04    0.80      25.3  T
     SCC iter.                  ...        0 min,  0.098 sec
     gradient                   ...        0 min,  0.022 sec
 * total energy  :  -200.1479177 Eh     change       -0.4046542E-03 Eh
[...]
   117   1 H      0.925     0.038     2.475     2.460
   118   1 H      0.925     0.038     2.480     2.463
   119   1 H      0.926     0.033     2.545     2.495
   120   1 H      0.926     0.045     2.380     2.413
   121   1 H      0.926     0.035     2.511     2.478
   122   1 H      0.925     0.082     1.959     2.189
   123   1 H      0.926     0.048     2.350     2.397
   124   1 H      0.924     0.051     2.309     2.376
   125   1 H      0.924     0.052     2.297     2.370
   126   1 H      0.925     0.085     1.931     2.173
   127   1 H      0.925     0.088     1.894     2.152
   128   1 H      0.924     0.056     2.242     2.342
   129   1 H      0.924     0.056     2.241     2.341
   130   1 H      0.926     0.061     2.190     2.314

 Mol. C6AA /au·bohr⁶  :     227148.037322
 Mol. C8AA /au·bohr⁸  :    5801242.652588
 Mol. α(0) /au        :        754.669569


Wiberg/Mayer (AO) data.
largest (>0.10) Wiberg bond orders for each atom
          total WBO             WBO to atom ...
     1  C   3.947        C    7 1.514    N    2 1.233    H   75 0.965
     2  N   3.584        C    1 1.233    C    4 1.055    C    3 1.003    O    5 0.113
     3  C   3.964        N    2 1.003    H   76 0.975    H   77 0.975    H   78 0.973
     4  C   3.944        O    5 1.642    C    6 1.110    N    2 1.055
     5  O   1.986        C    4 1.642    N    2 0.113
     6  C   3.955        C   12 1.404    C    7 1.143    C    4 1.110
     7  C   3.970        C    1 1.514    C    6 1.143    C    8 1.074
     8  C   3.949        O    9 1.687    C    7 1.074    N   10 1.064
     9  O   2.021        C    8 1.687    N   10 0.119
    10  N   3.576        C   12 1.199    C    8 1.064    C   11 0.998    O    9 0.119
    11  C   3.956        N   10 0.998    H   80 0.977    H   79 0.971    H   81 0.961
    12  C   3.959        C    6 1.404    N   10 1.199    C   13 1.101
    13  C   3.962        C   18 1.359    C   14 1.334    C   12 1.101
    14  C   3.985        C   15 1.476    C   13 1.334    H   82 0.960
    15  C   3.976        C   14 1.476    C   16 1.302    C   21 0.990
    16  C   3.968        C   17 1.374    C   15 1.302    C   19 1.104
    17  C   3.971        C   18 1.466    C   16 1.374    H   83 0.965
    18  C   3.979        C   17 1.466    C   13 1.359    H   84 0.963
    19  C   3.955        C   29 1.366    C   20 1.301    C   16 1.104
    20  C   3.978        C   26 1.479    C   19 1.301    C   21 0.990
    21  C   3.989        C   15 0.990    C   20 0.990    C   22 0.961    C   24 0.955
    22  C   3.995        C   23 1.020    H   86 0.975    H   85 0.975    C   21 0.961
    23  C   3.997        C   22 1.020    H   88 0.987    H   87 0.987    H   89 0.987
    24  C   3.994        C   25 1.020    H   90 0.975    H   91 0.974    C   21 0.955
    25  C   3.996        C   24 1.020    H   92 0.987    H   94 0.986    H   93 0.986
    26  C   3.958        C   20 1.479    C   27 1.326    H   95 0.966
    27  C   3.964        C   28 1.335    C   26 1.326    C   30 1.158
    28  C   3.967        C   29 1.484    C   27 1.335    H   96 0.965
    29  C   3.976        C   28 1.484    C   19 1.366    H   97 0.968
    30  C   3.871        C   31 1.613    C   27 1.158    H   98 0.963
    31  C   3.977        C   30 1.613    C   32 1.269    H   99 0.947
    32  C   3.890        C   33 1.484    C   31 1.269    H  100 0.957
    33  C   3.934        C   32 1.484    C   34 1.229    S   37 1.065
    34  C   3.928        C   35 1.586    C   33 1.229    H  101 0.964
    35  C   3.946        C   34 1.586    C   36 1.245    H  102 0.963
    36  C   3.933        C   38 1.400    C   35 1.245    S   37 1.085
    37  S   2.465        C   36 1.085    C   33 1.065
    38  C   3.916        C   36 1.400    C   39 1.236    S   42 1.083
    39  C   3.968        C   40 1.606    C   38 1.236    H  103 0.963
    40  C   3.916        C   39 1.606    C   41 1.201    H  104 0.964
    41  C   3.947        C   43 1.548    C   40 1.201    S   42 1.058
    42  S   2.473        C   38 1.083    C   41 1.058
    43  C   3.870        C   41 1.548    C   44 1.163    H  105 0.955
    44  C   3.964        C   49 1.331    C   45 1.319    C   43 1.163
    45  C   3.963        C   46 1.480    C   44 1.319    H  106 0.949
    46  C   3.975        C   45 1.480    C   47 1.298    C   52 0.989
    47  C   3.953        C   48 1.362    C   46 1.298    C   50 1.107
    48  C   3.971        C   49 1.484    C   47 1.362    H  107 0.968
    49  C   3.952        C   48 1.484    C   44 1.331    H  108 0.969
    50  C   3.962        C   60 1.369    C   51 1.293    C   47 1.107
    51  C   3.976        C   57 1.490    C   50 1.293    C   52 0.989
    52  C   3.989        C   51 0.989    C   46 0.989    C   55 0.962    C   53 0.956
    53  C   3.995        C   54 1.020    H  110 0.975    H  109 0.975    C   52 0.956
    54  C   3.996        C   53 1.020    H  112 0.986    H  111 0.986    H  113 0.986
    55  C   3.995        C   56 1.020    H  114 0.975    H  115 0.974    C   52 0.962
    56  C   3.996        C   55 1.020    H  116 0.987    H  117 0.986    H  118 0.986
    57  C   3.970        C   51 1.490    C   58 1.322    H  119 0.961
    58  C   3.962        C   59 1.341    C   57 1.322    C   61 1.154
    59  C   3.968        C   60 1.477    C   58 1.341    H  120 0.968
    60  C   3.971        C   59 1.477    C   50 1.369    H  121 0.968
    61  C   3.945        C   62 1.653    C   58 1.154    H  122 0.952
    62  C   3.973        C   61 1.653    C   63 1.194    H  123 0.954
    63  C   3.957        C   69 1.378    C   62 1.194    N   64 1.158
    64  N   3.557        C   63 1.158    C   66 1.086    C   65 1.003    O   67 0.126
    65  C   3.966        N   64 1.003    H  124 0.975    H  125 0.973    H  126 0.969
    66  C   3.949        O   67 1.658    N   64 1.086    C   68 1.078
    67  O   1.998        C   66 1.658    N   64 0.126
    68  C   3.969        C   74 1.497    C   69 1.154    C   66 1.078
    69  C   3.937        C   63 1.378    C   68 1.154    C   70 1.112
    70  C   3.941        O   71 1.641    C   69 1.112    N   72 1.053
    71  O   1.991        C   70 1.641    N   72 0.110
    72  N   3.589        C   74 1.243    C   70 1.053    C   73 1.002    O   71 0.110
    73  C   3.963        N   72 1.002    H  129 0.975    H  128 0.975    H  127 0.974
    74  C   3.919        C   68 1.497    N   72 1.243    H  130 0.964
    75  H   0.996        C    1 0.965
    76  H   0.995        C    3 0.975
    77  H   0.995        C    3 0.975
    78  H   0.992        C    3 0.973
    79  H   0.992        C   11 0.971
    80  H   0.996        C   11 0.977
    81  H   0.990        C   11 0.961
    82  H   0.996        C   14 0.960
    83  H   0.998        C   17 0.965
    84  H   0.997        C   18 0.963
    85  H   0.998        C   22 0.975
    86  H   0.998        C   22 0.975
    87  H   0.999        C   23 0.987
    88  H   0.998        C   23 0.987
    89  H   0.999        C   23 0.987
    90  H   0.998        C   24 0.975
    91  H   0.997        C   24 0.974
    92  H   0.999        C   25 0.987
    93  H   0.998        C   25 0.986
    94  H   0.999        C   25 0.986
    95  H   0.999        C   26 0.966
    96  H   0.998        C   28 0.965
    97  H   0.998        C   29 0.968
    98  H   0.998        C   30 0.963
    99  H   0.997        C   31 0.947
   100  H   0.998        C   32 0.957
   101  H   0.998        C   34 0.964
   102  H   0.998        C   35 0.963
   103  H   0.998        C   39 0.963
   104  H   0.998        C   40 0.964
   105  H   0.997        C   43 0.955
   106  H   0.997        C   45 0.949
   107  H   0.998        C   48 0.968
   108  H   0.998        C   49 0.969
   109  H   0.998        C   53 0.975
   110  H   0.998        C   53 0.975
   111  H   0.999        C   54 0.986
   112  H   0.998        C   54 0.986
   113  H   0.999        C   54 0.986
   114  H   0.998        C   55 0.975
   115  H   0.998        C   55 0.974
   116  H   0.999        C   56 0.987
   117  H   0.998        C   56 0.986
   118  H   0.999        C   56 0.986
   119  H   0.998        C   57 0.961
   120  H   0.997        C   59 0.968
   121  H   0.998        C   60 0.968
   122  H   0.993        C   61 0.952
   123  H   0.997        C   62 0.954
   124  H   0.996        C   65 0.975
   125  H   0.995        C   65 0.973
   126  H   0.992        C   65 0.969
   127  H   0.992        C   73 0.974
   128  H   0.994        C   73 0.975
   129  H   0.994        C   73 0.975
   130  H   0.996        C   74 0.964

molecular dipole:
                 x           y           z       tot (Debye)
 q only:       -0.229      -1.876      -1.558
   full:       -0.386      -2.316      -1.585       7.201
molecular quadrupole (traceless):
                xx          xy          yy          xz          yz          zz
 q only:      -28.435      -4.670      28.937       0.341      20.005      -0.502
  q+dip:      -54.544       0.927      59.183      10.922      44.401      -4.639
   full:      -45.162       5.303      52.459       3.695      39.758      -7.297

           -------------------------------------------------
          |                Geometry Summary                 |
           -------------------------------------------------

      molecular mass/u    :     1009.2908000
   center of mass at/Å    :        0.5937742      -5.6526222      -2.0643021
  moments of inertia/u·Å² :        0.1770807E+05   0.3482189E+05   0.5088274E+05
rotational constants/cm⁻¹ :        0.9519745E-03   0.4841102E-03   0.3313036E-03

 * 131 selected distances

     #   Z        #   Z                                     value/Å
     1   6 C      2   7 N                                 1.3618905
     2   7 N      3   6 C                                 1.4357627
     2   7 N      4   6 C                                 1.4147193
     4   6 C      5   8 O                                 1.2175587
     4   6 C      6   6 C                                 1.4404255
     1   6 C      7   6 C                                 1.3629091
     6   6 C      7   6 C                                 1.4373634
     7   6 C      8   6 C                                 1.4458806
     8   6 C      9   8 O                                 1.2110230
     8   6 C     10   7 N                                 1.4138684
    10   7 N     11   6 C                                 1.4401130
     6   6 C     12   6 C                                 1.3833769
    10   7 N     12   6 C                                 1.3734230
    13   6 C     14   6 C                                 1.4044299
    14   6 C     15   6 C                                 1.3717483
    15   6 C     16   6 C                                 1.4052037
    16   6 C     17   6 C                                 1.3867525
    13   6 C     18   6 C                                 1.3995589
    17   6 C     18   6 C                                 1.3815212
    19   6 C     20   6 C                                 1.4065314
    21   6 C     22   6 C                                 1.5386258
    22   6 C     23   6 C                                 1.5241624
    21   6 C     24   6 C                                 1.5412750
    24   6 C     25   6 C                                 1.5236882
    20   6 C     26   6 C                                 1.3728908
    26   6 C     27   6 C                                 1.4062525
    27   6 C     28   6 C                                 1.4043398
    19   6 C     29   6 C                                 1.3878777
    28   6 C     29   6 C                                 1.3780217
    30   6 C     31   6 C                                 1.3561004
    31   6 C     32   6 C                                 1.4100212
    32   6 C     33   6 C                                 1.3699904
    33   6 C     34   6 C                                 1.4188483
    34   6 C     35   6 C                                 1.3617561
    35   6 C     36   6 C                                 1.4138852
    33   6 C     37  16 S                                 1.7599958
    36   6 C     37  16 S                                 1.7515718
    36   6 C     38   6 C                                 1.3771032
    38   6 C     39   6 C                                 1.4150127
    39   6 C     40   6 C                                 1.3591258
    40   6 C     41   6 C                                 1.4264580
    38   6 C     42  16 S                                 1.7500796
    41   6 C     42  16 S                                 1.7624955 (max)
    41   6 C     43   6 C                                 1.3628413
    44   6 C     45   6 C                                 1.4040330
    45   6 C     46   6 C                                 1.3692320
    46   6 C     47   6 C                                 1.4062348
    47   6 C     48   6 C                                 1.3904464
    44   6 C     49   6 C                                 1.4051257
    48   6 C     49   6 C                                 1.3800842
    50   6 C     51   6 C                                 1.4084935
    52   6 C     53   6 C                                 1.5412720
    53   6 C     54   6 C                                 1.5236382
    52   6 C     55   6 C                                 1.5396320
    55   6 C     56   6 C                                 1.5234557
    51   6 C     57   6 C                                 1.3695620
    57   6 C     58   6 C                                 1.4053758
    58   6 C     59   6 C                                 1.4034008
    50   6 C     60   6 C                                 1.3893758
    59   6 C     60   6 C                                 1.3807308
    61   6 C     62   6 C                                 1.3531341
    62   6 C     63   6 C                                 1.4193866
    63   6 C     64   7 N                                 1.3812557
    64   7 N     65   6 C                                 1.4355928
    64   7 N     66   6 C                                 1.4039220
    66   6 C     67   8 O                                 1.2148955
    66   6 C     68   6 C                                 1.4459165
    63   6 C     69   6 C                                 1.3844304
    68   6 C     69   6 C                                 1.4362927
    69   6 C     70   6 C                                 1.4375292
    70   6 C     71   8 O                                 1.2176903
    70   6 C     72   7 N                                 1.4149642
    72   7 N     73   6 C                                 1.4360401
    68   6 C     74   6 C                                 1.3656971
    72   7 N     74   6 C                                 1.3602838
     1   6 C     75   1 H                                 1.0743445 (min)
     3   6 C     76   1 H                                 1.0919924
     3   6 C     77   1 H                                 1.0918742
     3   6 C     78   1 H                                 1.0902939
    11   6 C     79   1 H                                 1.0911159
    11   6 C     80   1 H                                 1.0897244
    11   6 C     81   1 H                                 1.0921970
    14   6 C     82   1 H                                 1.0771832
    17   6 C     83   1 H                                 1.0791693
    18   6 C     84   1 H                                 1.0777115
    22   6 C     85   1 H                                 1.0915416
    22   6 C     86   1 H                                 1.0920413
    23   6 C     87   1 H                                 1.0878170
    23   6 C     88   1 H                                 1.0876072
    23   6 C     89   1 H                                 1.0880606
    24   6 C     90   1 H                                 1.0923505
    24   6 C     91   1 H                                 1.0912628
    25   6 C     92   1 H                                 1.0883472
    25   6 C     93   1 H                                 1.0872395
    25   6 C     94   1 H                                 1.0873890
    26   6 C     95   1 H                                 1.0809175
    28   6 C     96   1 H                                 1.0790085
    29   6 C     97   1 H                                 1.0802751
    30   6 C     98   1 H                                 1.0831303
    31   6 C     99   1 H                                 1.0824782
    32   6 C    100   1 H                                 1.0816017
    34   6 C    101   1 H                                 1.0762611
    35   6 C    102   1 H                                 1.0758648
    39   6 C    103   1 H                                 1.0759325
    40   6 C    104   1 H                                 1.0761746
    43   6 C    105   1 H                                 1.0825356
    45   6 C    106   1 H                                 1.0778430
    48   6 C    107   1 H                                 1.0800468
    49   6 C    108   1 H                                 1.0808113
    53   6 C    109   1 H                                 1.0919692
    53   6 C    110   1 H                                 1.0922267
    54   6 C    111   1 H                                 1.0877146
    54   6 C    112   1 H                                 1.0876545
    54   6 C    113   1 H                                 1.0878619
    55   6 C    114   1 H                                 1.0922725
    55   6 C    115   1 H                                 1.0916471
    56   6 C    116   1 H                                 1.0881179
    56   6 C    117   1 H                                 1.0875216
    56   6 C    118   1 H                                 1.0872222
    57   6 C    119   1 H                                 1.0790432
    59   6 C    120   1 H                                 1.0802149
    60   6 C    121   1 H                                 1.0798478
    61   6 C    122   1 H                                 1.0820921
    62   6 C    123   1 H                                 1.0799946
    65   6 C    124   1 H                                 1.0920453
    65   6 C    125   1 H                                 1.0927972
    65   6 C    126   1 H                                 1.0899333
    73   6 C    127   1 H                                 1.0901431
    73   6 C    128   1 H                                 1.0918410
    73   6 C    129   1 H                                 1.0918318
    74   6 C    130   1 H                                 1.0743829

 * 5 distinct bonds (by element types)

   Z      Z             #   av. dist./Å        max./Å        min./Å
   1 H    6 C          56     1.0853664     1.0927972     1.0743445
   6 C    6 C          55     1.4155719     1.5412750     1.3531341
   6 C    7 N          12     1.4059863     1.4401130     1.3602838
   6 C    8 O           4     1.2152919     1.2176903     1.2110230
   6 C   16 S           4     1.7560357     1.7624955     1.7500796


optimized geometry written to: xtbopt.xyz


           -------------------------------------------------
          | TOTAL ENERGY             -200.160844377475 Eh   |
          | GRADIENT NORM               0.000506472160 Eh/α |
          | HOMO-LUMO GAP               0.756917508285 eV   |
           -------------------------------------------------

------------------------------------------------------------------------
 * finished run on 2021/06/14 at 15:47:19.851     
------------------------------------------------------------------------
 total:
 * wall-time:     0 d,  0 h,  0 min, 23.850 sec
 *  cpu-time:     0 d,  0 h,  4 min, 46.003 sec
 * ratio c/w:    11.992 speedup
 SCF:
 * wall-time:     0 d,  0 h,  0 min,  0.219 sec
 *  cpu-time:     0 d,  0 h,  0 min,  2.608 sec
 * ratio c/w:    11.887 speedup
 ANC optimizer:
 * wall-time:     0 d,  0 h,  0 min, 23.584 sec
 *  cpu-time:     0 d,  0 h,  4 min, 42.945 sec
 * ratio c/w:    11.997 speedup

