      -----------------------------------------------------------      
     |                   =====================                   |     
     |                           x T B                           |     
     |                   =====================                   |     
     |                         S. Grimme                         |     
     |          Mulliken Center for Theoretical Chemistry        |     
     |                    University of Bonn                     |     
     |                Version 6.2 RC2 (SAW190805)                |     
      -----------------------------------------------------------      

   This program is distributed in the hope that it will be useful,
   but WITHOUT ANY WARRANTY; without even the implied warranty of
   MERCHANTABILITY or FITNESS FOR A PARTICULAR PURPOSE.
   
   FOR NON-COMMERCIAL, ACADEMIA USE ONLY.
   
   Cite this work as:
   * S. Grimme, C. Bannwarth, P. Shushkov, J. Chem. Theory Comput., 2017,
     13, 1989-2009. DOI: 10.1021/acs.jctc.7b00118
   * C. Bannwarth, S. Ehlert and S. Grimme., J. Chem. Theory Comput., 2019,
     15, 1652-1671. DOI: 10.1021/acs.jctc.8b01176
   * P. Pracht, E. Caldeweyher, S. Ehlert, S. Grimme, ChemRxiv, 2019, preprint.
     DOI: 10.26434/chemrxiv.8326202.v1
   
   for DFT-D4:
   * E. Caldeweyher, C. Bannwarth and S. Grimme, J. Chem. Phys., 2017,
     147, 034112. DOI: 10.1063/1.4993215
   * E. Caldeweyher, S. Ehlert, A. Hansen, H. Neugebauer, S. Spicher,
     C. Bannwarth and S. Grimme, J. Chem. Phys., 2019, 150, 154122.
     DOI: 10.1063/1.5090222
   
   for sTDA-xTB:
   * S. Grimme and C. Bannwarth, J. Chem. Phys., 2016, 145, 054103.
     DOI: 10.1063/1.4959605
   
   in the mass-spec context:
   * V. Asgeirsson, C. Bauer and S. Grimme, Chem. Sci., 2017, 8, 4879.
     DOI: 10.1039/c7sc00601b
   
   for metadynamics refer to:
   * S. Grimme, J. Chem. Theory Comput., 2019, 155, 2847-2862
     DOI: 10.1021/acs.jctc.9b00143
   
   with help from (in alphabetical order)
   C. Bannwarth, F. Bohle, G. Brandenburg, E. Caldeweyher, M. Checinski,
   S. Dohm, S. Ehlert, S. Ehrlich, F. März, H. Neugebauer, J. Pisarek,
   P. Pracht, P. Shushkov, and S. Spicher.
   
 * started run on 2021/06/02 at 12:10:36.715     

           -------------------------------------------------
          |                Calculation Setup                |
           -------------------------------------------------

          program call               : /ihome/ghutchison/geoffh/xtb/xtb /ihome/ghutchison/blp62/GA/running_GA/sequence/generations/5/12_682_682_181_103_10035.xyz -opt
          hostname                   : smp-n149
          coordinate file            : /ihome/ghutchison/blp62/GA/running_GA/sequence/generations/5/12_682_682_181_103_10035.xyz
          omp threads                :                    12
          number of atoms            :                    95
          number of electrons        :                   310
          charge                     :                     0
          spin                       :                   0.0
          first test random number   :      0.22550538329778


########################################################################
# WARNING! Please study the warnings concerning your input carefully
#  - XTBPATH is not set, using XTBHOME instead
#  - the use of '-opt' is discouraged, please use '--opt' next time
########################################################################

           ------------------------------------------------- 
          |                 G F N 2 - x T B                 |
          | Geometry, Frequencies, Noncovalent interactions |
          |            JCTC 2019 parametrisation            |
           ------------------------------------------------- 
             KAB for C  - Si     :                1.0500
             KAB for H  - Pd     :                0.9500
             k(s)              :                1.8500
             k(p)              :                2.2300
             k(d)              :                2.2300
             k(f)              :                2.0000
             kEN (H0ij)        :               -2.0000
             D4 a1             :                0.5200
             D4 a2             :                5.0000
             D4 s6             :                1.0000
             D4 s8             :                2.7000
             D4 s9             :                5.0000
             alphaj            :                2.0000

  Z AO/shell   Hii/eV     exponent
  1     Wed Apr 25 08:07:45 CEST 2018   EN: 2.200 GM2: 0.406  GM3: 0.0800  RAES: 1.40
     1s    -10.707211    1.230000
  6     Wed Apr 25 08:07:45 CEST 2018   EN: 2.550 GM2: 0.538  GM3: 0.1500  RAES: 3.00
     2s    -13.970922    2.096432
     2p    -10.063292    1.800000
  7     Wed Apr 25 08:07:45 CEST 2018   EN: 3.040 GM2: 0.461  GM3:-0.0640  RAES: 1.90
     2s    -16.686243    2.339881
     2p    -12.523956    2.014332
  8     Wed Apr 25 08:07:45 CEST 2018   EN: 3.440 GM2: 0.452  GM3:-0.0517  RAES: 1.80
     2s    -20.229985    2.439742
     2p    -15.503117    2.137023
  9     Mon Apr 23 13:58:50 CEST 2018   EN: 3.980 GM2: 0.532  GM3: 0.1426  RAES: 2.40
     2s    -23.458179    2.416361
     2p    -15.746583    2.308399
 16     Tue Apr 24 11:44:34 CEST 2018   EN: 2.580 GM2: 0.340  GM3:-0.0502  RAES: 3.10
     3s    -20.029654    1.981333
     3p    -11.377694    2.025643
     3d     -0.420282    1.702555

           ------------------------------------------------- 
          |        Self-Consistent Charge Iterations        |
           ------------------------------------------------- 

          ...................................................
          :                      SETUP                      :
          :.................................................:
          :  # basis functions                 284          :
          :  # atomic orbitals                 283          :
          :  # shells                          157          :
          :  # electrons                       310          :
          :  max. iterations                   250          :
          :  Hamiltonian                  GFN2-xTB          :
          :  restarted?                      false          :
          :  GBSA solvation                  false          :
          :  PC potential                    false          :
          :  electronic temp.          300.0000000     K    :
          :  accuracy                    1.0000000          :
          :  -> integral cutoff          0.2500000E+02      :
          :  -> integral neglect         0.1000000E-07      :
          :  -> SCF convergence          0.1000000E-05 Eh   :
          :  -> wf. convergence          0.1000000E-03 e    :
          :  Broyden damping             0.4000000          :
          ...................................................

 iter      E             dE          RMSdq      gap      omega  full diag
   1   -177.2625026 -0.177263E+03  0.458E+00    1.01       0.0  T
   2   -177.4316841 -0.169181E+00  0.276E+00    1.00       1.0  T
   3   -177.2768205  0.154864E+00  0.175E+00    1.15       1.0  T
   4   -177.4511432 -0.174323E+00  0.716E-01    0.60       1.0  T
   5   -177.4887340 -0.375908E-01  0.287E-01    0.61       1.0  T
   6   -177.4940451 -0.531111E-02  0.109E-01    0.62       1.0  T
   7   -177.4945066 -0.461486E-03  0.524E-02    0.63       1.0  T
   8   -177.4946267 -0.120123E-03  0.259E-02    0.63       1.0  T
   9   -177.4946609 -0.342066E-04  0.999E-03    0.64       1.0  T
  10   -177.4946656 -0.471577E-05  0.443E-03    0.64       2.3  T
  11   -177.4946665 -0.886887E-06  0.177E-03    0.64       5.8  T
  12   -177.4946666 -0.123187E-06  0.912E-04    0.64      11.2  T
  13   -177.4946667 -0.478513E-07  0.330E-04    0.64      31.1  T

   *** convergence criteria satisfied after 13 iterations ***

         #    Occupation            Energy/Eh            Energy/eV
      -------------------------------------------------------------
         1        2.0000           -0.8827290             -24.0203
       ...           ...                  ...                  ...
       149        2.0000           -0.3915029             -10.6533
       150        2.0000           -0.3909180             -10.6374
       151        2.0000           -0.3770481             -10.2600
       152        2.0000           -0.3727741             -10.1437
       153        2.0000           -0.3634189              -9.8891
       154        2.0000           -0.3598443              -9.7919
       155        2.0000           -0.3431338              -9.3371 (HOMO)
       156        0.0000           -0.3195866              -8.6964 (LUMO)
       157                         -0.3000533              -8.1649
       158                         -0.2974279              -8.0934
       159                         -0.2819537              -7.6724
       160                         -0.2671791              -7.2703
       ...                                ...                  ...
       283                          0.7724360              21.0191
      -------------------------------------------------------------
                  HL-Gap            0.0235472 Eh            0.6408 eV
             Fermi-level           -0.3313602 Eh           -9.0168 eV

 SCC (total)                   0 d,  0 h,  0 min,  1.153 sec
 SCC setup                      ...        0 min,  0.012 sec (  1.033%)
 Dispersion                     ...        0 min,  0.004 sec (  0.361%)
 integral evaluation            ...        0 min,  0.035 sec (  3.048%)
 zeroth order Hamiltonian       ...        0 min,  0.001 sec (  0.081%)
 iterations                     ...        0 min,  0.969 sec ( 83.987%)
 molecular gradient             ...        0 min,  0.131 sec ( 11.388%)
 printout                       ...        0 min,  0.001 sec (  0.095%)

         :::::::::::::::::::::::::::::::::::::::::::::::::::::
         ::                     SUMMARY                     ::
         :::::::::::::::::::::::::::::::::::::::::::::::::::::
         :: total energy            -175.256639352900 Eh    ::
         :: gradient norm              0.141208016225 Eh/a0 ::
         :: HOMO-LUMO gap              0.640752550226 eV    ::
         ::.................................................::
         :: SCC energy              -177.494666692196 Eh    ::
         :: -> isotropic ES            0.167318824412 Eh    ::
         :: -> anisotropic ES          0.009923766367 Eh    ::
         :: -> anisotropic XC          0.040807799247 Eh    ::
         :: -> dispersion             -0.115172792191 Eh    ::
         :: repulsion energy           2.238221153970 Eh    ::
         :: add. restraining           0.000000000000 Eh    ::
         :::::::::::::::::::::::::::::::::::::::::::::::::::::

      ----------------------------------------------------------- 
     |                   =====================                   |
     |                        A N C O P T                        |
     |                   =====================                   |
     |               Approximate Normal Coordinate               |
     |                Rational Function Optimizer                |
      ----------------------------------------------------------- 

          ...................................................
          :                      SETUP                      :
          :.................................................:
          :   optimization level            normal          :
          :   max. optcycles                   285          :
          :   ANC micro-cycles                  20          :
          :   degrees of freedom               279          :
          :.................................................:
          :   RF solver                   davidson          :
          :   input Hessian                  false          :
          :   write xtbopt.log                true          :
          :   linear?                        false          :
          :   energy convergence         0.5000000E-05 Eh   :
          :   grad. convergence          0.1000000E-02 Eh/α :
          :   maximium RF displ.         2.0000000          :
          :   Hlow (freq-cutoff)         0.5000000E-02      :
          :   Hmax (freq-cutoff)         5.0000000          :
          :   S6 in model hess.         20.0000000          :
          ...................................................

generating ANC from model Hessian ...
Using Lindh-Hessian (1995)
 Shifting diagonal of input Hessian by   4.983233645402466E-003
 Lowest  eigenvalues of input Hessian
   -0.000000   -0.000000    0.000000    0.000000    0.000000    0.000000
    0.005000    0.005031    0.005048    0.005144    0.005152    0.005192
    0.005352    0.005447    0.005552    0.005732    0.005856    0.005946
 Highest eigenvalues
    2.079230    2.116906    2.127520    2.131757    2.141551    2.184233
 

........................................................................
.............................. CYCLE    1 ..............................
........................................................................
   1   -177.4946667 -0.177495E+03  0.131E-04    0.64       0.0  T
   2   -177.4946667  0.594014E-10  0.104E-04    0.64      99.0  T
   3   -177.4946667 -0.438519E-09  0.645E-05    0.64     158.9  T
     SCC iter.                  ...        0 min,  0.289 sec
     gradient                   ...        0 min,  0.046 sec
 * total energy  :  -175.2566393 Eh     change        0.1445005E-07 Eh
   gradient norm :     0.1412090 Eh/α   predicted     0.0000000E+00 (-100.00%)
   displ. norm   :     0.4188999 α      lambda       -0.2954831E-01
   maximum displ.:     0.1047504 α      in ANC's #56, #96, #24, ...

........................................................................
.............................. CYCLE    2 ..............................
........................................................................
   1   -177.5574177 -0.177557E+03  0.162E-01    0.58       0.0  T
   2   -177.5575135 -0.957371E-04  0.109E-01    0.56       1.0  T
   3   -177.5573150  0.198489E-03  0.869E-02    0.58       1.0  T
   4   -177.5576728 -0.357827E-03  0.456E-02    0.57       1.0  T
   5   -177.5578441 -0.171260E-03  0.136E-02    0.57       1.0  T
   6   -177.5578561 -0.120386E-04  0.520E-03    0.57       2.0  T
   7   -177.5578575 -0.145283E-05  0.237E-03    0.57       4.3  T
   8   -177.5578577 -0.179346E-06  0.114E-03    0.57       9.0  T
     SCC iter.                  ...        0 min,  0.254 sec
     gradient                   ...        0 min,  0.043 sec
 * total energy  :  -175.2775031 Eh     change       -0.2086377E-01 Eh
   gradient norm :     0.0591155 Eh/α   predicted    -0.1736670E-01 ( -16.76%)
   displ. norm   :     0.4557129 α      lambda       -0.1066572E-01
   maximum displ.:     0.1651068 α      in ANC's #24, #22, #40, ...

........................................................................
.............................. CYCLE    3 ..............................
........................................................................
   1   -177.5917926 -0.177592E+03  0.145E-01    0.53       0.0  T
   2   -177.5918653 -0.727060E-04  0.874E-02    0.52       1.0  T
   3   -177.5914964  0.368814E-03  0.742E-02    0.54       1.0  T
   4   -177.5918612 -0.364780E-03  0.365E-02    0.52       1.0  T
   5   -177.5919724 -0.111221E-03  0.117E-02    0.53       1.0  T
   6   -177.5919815 -0.906667E-05  0.425E-03    0.53       2.4  T
   7   -177.5919824 -0.915991E-06  0.203E-03    0.53       5.0  T
   8   -177.5919826 -0.180643E-06  0.873E-04    0.53      11.8  T
     SCC iter.                  ...        0 min,  0.383 sec
     gradient                   ...        0 min,  0.057 sec
 * total energy  :  -175.2843676 Eh     change       -0.6864526E-02 Eh
   gradient norm :     0.0176268 Eh/α   predicted    -0.6440361E-02 (  -6.18%)
   displ. norm   :     0.5011621 α      lambda       -0.3778900E-02
   maximum displ.:     0.2377444 α      in ANC's #24, #22, #19, ...

........................................................................
.............................. CYCLE    4 ..............................
........................................................................
   1   -177.5958908 -0.177596E+03  0.149E-01    0.50       0.0  T
   2   -177.5959016 -0.107771E-04  0.861E-02    0.50       1.0  T
   3   -177.5954184  0.483153E-03  0.775E-02    0.51       1.0  T
   4   -177.5959044 -0.485933E-03  0.199E-02    0.51       1.0  T
   5   -177.5959366 -0.322761E-04  0.784E-03    0.51       1.3  T
   6   -177.5959400 -0.334385E-05  0.322E-03    0.51       3.2  T
   7   -177.5959406 -0.637348E-06  0.133E-03    0.51       7.7  T
   8   -177.5959407 -0.113543E-06  0.545E-04    0.51      18.8  T
     SCC iter.                  ...        0 min,  0.537 sec
     gradient                   ...        0 min,  0.148 sec
 * total energy  :  -175.2872263 Eh     change       -0.2858714E-02 Eh
   gradient norm :     0.0160680 Eh/α   predicted    -0.2364026E-02 ( -17.30%)
   displ. norm   :     0.6321896 α      lambda       -0.3463187E-02
   maximum displ.:     0.2829445 α      in ANC's #24, #22, #19, ...

........................................................................
.............................. CYCLE    5 ..............................
........................................................................
   1   -177.5934397 -0.177593E+03  0.198E-01    0.48       0.0  T
   2   -177.5934347  0.503347E-05  0.114E-01    0.49       1.0  T
   3   -177.5921647  0.127004E-02  0.117E-01    0.48       1.0  T
   4   -177.5934845 -0.131989E-02  0.154E-02    0.49       1.0  T
   5   -177.5934940 -0.950338E-05  0.839E-03    0.49       1.2  T
   6   -177.5934978 -0.372553E-05  0.222E-03    0.49       4.6  T
   7   -177.5934980 -0.264757E-06  0.103E-03    0.49       9.9  T
   8   -177.5934981 -0.433855E-07  0.527E-04    0.49      19.5  T
     SCC iter.                  ...        0 min,  1.311 sec
     gradient                   ...        0 min,  0.041 sec
 * total energy  :  -175.2897487 Eh     change       -0.2522357E-02 Eh
   gradient norm :     0.0178574 Eh/α   predicted    -0.2423649E-02 (  -3.91%)
   displ. norm   :     0.6230664 α      lambda       -0.2618910E-02
   maximum displ.:     0.2688069 α      in ANC's #24, #15, #19, ...

........................................................................
.............................. CYCLE    6 ..............................
........................................................................
   1   -177.5909413 -0.177591E+03  0.190E-01    0.47       0.0  T
   2   -177.5909006  0.407209E-04  0.111E-01    0.49       1.0  T
   3   -177.5891015  0.179907E-02  0.141E-01    0.47       1.0  T
   4   -177.5909959 -0.189434E-02  0.146E-02    0.49       1.0  T
   5   -177.5910024 -0.650232E-05  0.860E-03    0.49       1.2  T
   6   -177.5910063 -0.391537E-05  0.269E-03    0.49       3.8  T
   7   -177.5910067 -0.432541E-06  0.133E-03    0.49       7.7  T
   8   -177.5910068 -0.116030E-06  0.592E-04    0.49      17.3  T
     SCC iter.                  ...        0 min,  0.167 sec
     gradient                   ...        0 min,  0.072 sec
 * total energy  :  -175.2917611 Eh     change       -0.2012389E-02 Eh
   gradient norm :     0.0151403 Eh/α   predicted    -0.1817802E-02 (  -9.67%)
   displ. norm   :     0.6045918 α      lambda       -0.1902686E-02
   maximum displ.:     0.2231184 α      in ANC's #15, #24, #22, ...

........................................................................
.............................. CYCLE    7 ..............................
........................................................................
   1   -177.5927108 -0.177593E+03  0.189E-01    0.46       0.0  T
   2   -177.5926854  0.253920E-04  0.110E-01    0.49       1.0  T
   3   -177.5911185  0.156687E-02  0.130E-01    0.47       1.0  T
   4   -177.5927618 -0.164327E-02  0.156E-02    0.48       1.0  T
   5   -177.5927725 -0.106540E-04  0.828E-03    0.49       1.2  T
   6   -177.5927755 -0.301883E-05  0.255E-03    0.48       4.0  T
   7   -177.5927758 -0.362127E-06  0.125E-03    0.48       8.2  T
   8   -177.5927759 -0.934459E-07  0.631E-04    0.48      16.3  T
     SCC iter.                  ...        0 min,  0.739 sec
     gradient                   ...        0 min,  0.064 sec
 * total energy  :  -175.2932833 Eh     change       -0.1522257E-02 Eh
   gradient norm :     0.0123279 Eh/α   predicted    -0.1299097E-02 ( -14.66%)
   displ. norm   :     0.5925170 α      lambda       -0.1530115E-02
   maximum displ.:     0.2577129 α      in ANC's #15, #22, #33, ...

........................................................................
.............................. CYCLE    8 ..............................
........................................................................
   1   -177.5981314 -0.177598E+03  0.181E-01    0.47       0.0  T
   2   -177.5981190  0.124077E-04  0.105E-01    0.49       1.0  T
   3   -177.5969062  0.121282E-02  0.114E-01    0.47       1.0  T
   4   -177.5981714 -0.126515E-02  0.158E-02    0.49       1.0  T
   5   -177.5981855 -0.140872E-04  0.769E-03    0.49       1.3  T
   6   -177.5981876 -0.210125E-05  0.299E-03    0.49       3.4  T
   7   -177.5981882 -0.623157E-06  0.135E-03    0.49       7.6  T
     SCC iter.                  ...        0 min,  0.680 sec
     gradient                   ...        0 min,  0.043 sec
 * total energy  :  -175.2944901 Eh     change       -0.1206714E-02 Eh
   gradient norm :     0.0097400 Eh/α   predicted    -0.1033652E-02 ( -14.34%)
   displ. norm   :     0.5948775 α      lambda       -0.1193594E-02
   maximum displ.:     0.2837350 α      in ANC's #15, #22, #33, ...

........................................................................
.............................. CYCLE    9 ..............................
........................................................................
   1   -177.6002764 -0.177600E+03  0.185E-01    0.47       0.0  T
   2   -177.6002653  0.110955E-04  0.108E-01    0.50       1.0  T
   3   -177.5989947  0.127063E-02  0.116E-01    0.48       1.0  T
   4   -177.6003199 -0.132520E-02  0.154E-02    0.49       1.0  T
   5   -177.6003344 -0.145637E-04  0.753E-03    0.50       1.4  T
   6   -177.6003365 -0.207320E-05  0.318E-03    0.50       3.2  T
   7   -177.6003372 -0.734514E-06  0.141E-03    0.49       7.3  T
   8   -177.6003374 -0.134764E-06  0.586E-04    0.49      17.5  T
     SCC iter.                  ...        0 min,  0.418 sec
     gradient                   ...        0 min,  0.045 sec
 * total energy  :  -175.2953925 Eh     change       -0.9023931E-03 Eh
   gradient norm :     0.0107761 Eh/α   predicted    -0.8079927E-03 ( -10.46%)
   displ. norm   :     0.5949720 α      lambda       -0.1156821E-02
   maximum displ.:     0.2991407 α      in ANC's #15, #10, #11, ...

........................................................................
.............................. CYCLE   10 ..............................
........................................................................
   1   -177.6075324 -0.177608E+03  0.177E-01    0.49       0.0  T
   2   -177.6075515 -0.191415E-04  0.102E-01    0.50       1.0  T
   3   -177.6071575  0.394002E-03  0.643E-02    0.49       1.0  T
   4   -177.6075597 -0.402213E-03  0.154E-02    0.50       1.0  T
   5   -177.6075754 -0.156531E-04  0.719E-03    0.50       1.4  T
   6   -177.6075779 -0.255094E-05  0.291E-03    0.50       3.5  T
   7   -177.6075783 -0.405529E-06  0.142E-03    0.50       7.2  T
     SCC iter.                  ...        0 min,  0.680 sec
     gradient                   ...        0 min,  0.063 sec
 * total energy  :  -175.2961237 Eh     change       -0.7312115E-03 Eh
   gradient norm :     0.0153935 Eh/α   predicted    -0.7831641E-03 (   7.11%)
   displ. norm   :     0.5161308 α      lambda       -0.8439259E-03
   maximum displ.:     0.2635039 α      in ANC's #15, #11, #10, ...

........................................................................
.............................. CYCLE   11 ..............................
........................................................................
   1   -177.6053914 -0.177605E+03  0.151E-01    0.49       0.0  T
   2   -177.6053940 -0.265814E-05  0.885E-02    0.51       1.0  T
   3   -177.6047300  0.664068E-03  0.822E-02    0.49       1.0  T
   4   -177.6054192 -0.689240E-03  0.113E-02    0.51       1.0  T
   5   -177.6054278 -0.857687E-05  0.560E-03    0.51       1.8  T
   6   -177.6054291 -0.128558E-05  0.249E-03    0.51       4.1  T
   7   -177.6054294 -0.329738E-06  0.112E-03    0.51       9.2  T
     SCC iter.                  ...        0 min,  0.171 sec
     gradient                   ...        0 min,  0.047 sec
 * total energy  :  -175.2967882 Eh     change       -0.6644903E-03 Eh
   gradient norm :     0.0099587 Eh/α   predicted    -0.5343713E-03 ( -19.58%)
   displ. norm   :     0.5252959 α      lambda       -0.7812498E-03
   maximum displ.:     0.2637541 α      in ANC's #15, #11, #10, ...

........................................................................
.............................. CYCLE   12 ..............................
........................................................................
   1   -177.6087112 -0.177609E+03  0.144E-01    0.50       0.0  T
   2   -177.6087248 -0.135830E-04  0.834E-02    0.51       1.0  T
   3   -177.6084956  0.229197E-03  0.480E-02    0.50       1.0  T
   4   -177.6087334 -0.237754E-03  0.104E-02    0.51       1.0  T
   5   -177.6087399 -0.654576E-05  0.514E-03    0.51       2.0  T
   6   -177.6087409 -0.986463E-06  0.237E-03    0.51       4.3  T
   7   -177.6087413 -0.353730E-06  0.880E-04    0.51      11.7  T
     SCC iter.                  ...        0 min,  0.207 sec
     gradient                   ...        0 min,  0.044 sec
 * total energy  :  -175.2973944 Eh     change       -0.6062372E-03 Eh
   gradient norm :     0.0079575 Eh/α   predicted    -0.4984136E-03 ( -17.79%)
   displ. norm   :     0.6053824 α      lambda       -0.7276441E-03
   maximum displ.:     0.2906897 α      in ANC's #15, #11, #10, ...

........................................................................
.............................. CYCLE   13 ..............................
........................................................................
   1   -177.6021930 -0.177602E+03  0.164E-01    0.50       0.0  T
   2   -177.6022103 -0.173315E-04  0.951E-02    0.51       1.0  T
   3   -177.6018722  0.338107E-03  0.579E-02    0.50       1.0  T
   4   -177.6022235 -0.351345E-03  0.116E-02    0.51       1.0  T
   5   -177.6022313 -0.779026E-05  0.568E-03    0.51       1.8  T
   6   -177.6022325 -0.112384E-05  0.192E-03    0.51       5.3  T
   7   -177.6022326 -0.175853E-06  0.790E-04    0.51      13.0  T
     SCC iter.                  ...        0 min,  0.190 sec
     gradient                   ...        0 min,  0.049 sec
 * total energy  :  -175.2979065 Eh     change       -0.5121076E-03 Eh
   gradient norm :     0.0094616 Eh/α   predicted    -0.4971686E-03 (  -2.92%)
   displ. norm   :     0.5286707 α      lambda       -0.6903279E-03
   maximum displ.:     0.2211090 α      in ANC's #15, #11, #10, ...

........................................................................
.............................. CYCLE   14 ..............................
........................................................................
   1   -177.6078868 -0.177608E+03  0.139E-01    0.51       0.0  T
   2   -177.6079040 -0.172749E-04  0.786E-02    0.52       1.0  T
   3   -177.6078697  0.343753E-04  0.223E-02    0.52       1.0  T
   4   -177.6079042 -0.344916E-04  0.114E-02    0.52       1.0  T
   5   -177.6079081 -0.396069E-05  0.779E-03    0.52       1.3  T
   6   -177.6079134 -0.523332E-05  0.166E-03    0.52       6.2  T
   7   -177.6079135 -0.156646E-06  0.796E-04    0.52      12.9  T
   8   -177.6079135 -0.205324E-07  0.414E-04    0.52      24.8  T
     SCC iter.                  ...        0 min,  0.233 sec
     gradient                   ...        0 min,  0.042 sec
 * total energy  :  -175.2983491 Eh     change       -0.4425689E-03 Eh
   gradient norm :     0.0113906 Eh/α   predicted    -0.4416402E-03 (  -0.21%)
   displ. norm   :     0.5069026 α      lambda       -0.5341194E-03
   maximum displ.:     0.2000031 α      in ANC's #15, #11, #10, ...

........................................................................
.............................. CYCLE   15 ..............................
........................................................................
   1   -177.6061521 -0.177606E+03  0.136E-01    0.51       0.0  T
   2   -177.6061672 -0.151368E-04  0.777E-02    0.52       1.0  T
   3   -177.6060177  0.149507E-03  0.392E-02    0.51       1.0  T
   4   -177.6061713 -0.153591E-03  0.117E-02    0.52       1.0  T
   5   -177.6061780 -0.668758E-05  0.660E-03    0.52       1.6  T
   6   -177.6061806 -0.257730E-05  0.204E-03    0.52       5.0  T
   7   -177.6061808 -0.223799E-06  0.890E-04    0.52      11.5  T
     SCC iter.                  ...        0 min,  0.464 sec
     gradient                   ...        0 min,  0.034 sec
 * total energy  :  -175.2987189 Eh     change       -0.3698516E-03 Eh
   gradient norm :     0.0110838 Eh/α   predicted    -0.3356833E-03 (  -9.24%)
   displ. norm   :     0.4894252 α      lambda       -0.6232142E-03
   maximum displ.:     0.1691604 α      in ANC's #10, #5, #8, ...

........................................................................
.............................. CYCLE   16 ..............................
........................................................................
   1   -177.6071943 -0.177607E+03  0.136E-01    0.52       0.0  T
   2   -177.6072117 -0.174258E-04  0.761E-02    0.52       1.0  T
   3   -177.6071665  0.451880E-04  0.244E-02    0.52       1.0  T
   4   -177.6072123 -0.458076E-04  0.118E-02    0.52       1.0  T
   5   -177.6072126 -0.227468E-06  0.993E-03    0.52       1.0  T
   6   -177.6072213 -0.870941E-05  0.220E-03    0.52       4.7  T
   7   -177.6072216 -0.335216E-06  0.856E-04    0.52      12.0  T
   8   -177.6072216 -0.249435E-07  0.474E-04    0.52      21.6  T
     SCC iter.                  ...        0 min,  0.433 sec
     gradient                   ...        0 min,  0.045 sec
 * total energy  :  -175.2991531 Eh     change       -0.4341635E-03 Eh
   gradient norm :     0.0079548 Eh/α   predicted    -0.3862508E-03 ( -11.04%)
   displ. norm   :     0.5497405 α      lambda       -0.6033716E-03
   maximum displ.:     0.2081333 α      in ANC's #10, #15, #5, ...

........................................................................
.............................. CYCLE   17 ..............................
........................................................................
   1   -177.6020374 -0.177602E+03  0.159E-01    0.52       0.0  T
   2   -177.6020632 -0.258378E-04  0.888E-02    0.52       1.0  T
   3   -177.6020324  0.308942E-04  0.239E-02    0.52       1.0  T
   4   -177.6020643 -0.319714E-04  0.130E-02    0.53       1.0  T
   5   -177.6020651 -0.765857E-06  0.107E-02    0.52       1.0  T
   6   -177.6020751 -0.100113E-04  0.258E-03    0.52       4.0  T
   7   -177.6020756 -0.499625E-06  0.105E-03    0.52       9.8  T
   8   -177.6020757 -0.554219E-07  0.556E-04    0.52      18.5  T
     SCC iter.                  ...        0 min,  0.644 sec
     gradient                   ...        0 min,  0.050 sec
 * total energy  :  -175.2995263 Eh     change       -0.3732608E-03 Eh
   gradient norm :     0.0116399 Eh/α   predicted    -0.3928607E-03 (   5.25%)
   displ. norm   :     0.4251474 α      lambda       -0.5682962E-03
   maximum displ.:     0.1379118 α      in ANC's #6, #5, #2, ...

........................................................................
.............................. CYCLE   18 ..............................
........................................................................
   1   -177.6106842 -0.177611E+03  0.135E-01    0.54       0.0  T
   2   -177.6106938 -0.962116E-05  0.749E-02    0.53       1.0  T
   3   -177.6104331  0.260633E-03  0.509E-02    0.54       1.0  T
   4   -177.6106975 -0.264319E-03  0.146E-02    0.53       1.0  T
   5   -177.6107071 -0.963084E-05  0.783E-03    0.53       1.3  T
   6   -177.6107108 -0.368931E-05  0.234E-03    0.53       4.4  T
   7   -177.6107112 -0.384299E-06  0.802E-04    0.53      12.8  T
   8   -177.6107112 -0.311073E-07  0.428E-04    0.53      24.0  T
     SCC iter.                  ...        0 min,  1.278 sec
     gradient                   ...        0 min,  0.055 sec
 * total energy  :  -175.2997949 Eh     change       -0.2685085E-03 Eh
   gradient norm :     0.0126911 Eh/α   predicted    -0.3355085E-03 (  24.95%)
   displ. norm   :     0.5355833 α      lambda       -0.6297041E-03
   maximum displ.:     0.1873694 α      in ANC's #10, #15, #5, ...

........................................................................
.............................. CYCLE   19 ..............................
........................................................................
   1   -177.6046550 -0.177605E+03  0.149E-01    0.52       0.0  T
   2   -177.6046824 -0.273769E-04  0.846E-02    0.52       1.0  T
   3   -177.6046732  0.912086E-05  0.177E-02    0.53       1.0  T
   4   -177.6046904 -0.171860E-04  0.879E-03    0.52       1.2  T
   5   -177.6046928 -0.233388E-05  0.399E-03    0.52       2.6  T
   6   -177.6046929 -0.147796E-06  0.295E-03    0.52       3.5  T
   7   -177.6046937 -0.763766E-06  0.106E-03    0.52       9.7  T
     SCC iter.                  ...        0 min,  0.638 sec
     gradient                   ...        0 min,  0.058 sec
 * total energy  :  -175.3000995 Eh     change       -0.3046309E-03 Eh
   gradient norm :     0.0126600 Eh/α   predicted    -0.4051693E-03 (  33.00%)
   displ. norm   :     0.2799522 α      lambda       -0.4554827E-03
   maximum displ.:     0.1001564 α      in ANC's #5, #2, #6, ...

........................................................................
.............................. CYCLE   20 ..............................
........................................................................
   1   -177.6037602 -0.177604E+03  0.767E-02    0.53       0.0  T
   2   -177.6037682 -0.801495E-05  0.435E-02    0.52       1.0  T
   3   -177.6037441  0.241241E-04  0.175E-02    0.53       1.0  T
   4   -177.6037711 -0.270090E-04  0.542E-03    0.52       1.9  T
   5   -177.6037714 -0.268397E-06  0.426E-03    0.52       2.4  T
   6   -177.6037724 -0.100241E-05  0.231E-03    0.52       4.4  T
   7   -177.6037729 -0.467283E-06  0.562E-04    0.52      18.3  T
     SCC iter.                  ...        0 min,  0.643 sec
     gradient                   ...        0 min,  0.044 sec
 * total energy  :  -175.3003473 Eh     change       -0.2477826E-03 Eh
   gradient norm :     0.0087193 Eh/α   predicted    -0.2455904E-03 (  -0.88%)
   displ. norm   :     0.3649929 α      lambda       -0.4348178E-03
   maximum displ.:     0.1325883 α      in ANC's #5, #6, #2, ...
 * RMSD in coord.:     0.8174429 α      energy gain  -0.4370792E-01 Eh

generating ANC from model Hessian ...
Using Lindh-Hessian (1995)
 Shifting diagonal of input Hessian by   4.985594195097479E-003
 Lowest  eigenvalues of input Hessian
   -0.000000    0.000000    0.000000    0.000000    0.000000    0.000000
    0.005000    0.005013    0.005038    0.005116    0.005148    0.005227
    0.005436    0.005504    0.005591    0.005731    0.005892    0.005993
 Highest eigenvalues
    2.134605    2.139510    2.142062    2.153022    2.185230    2.238604
 

........................................................................
.............................. CYCLE   21 ..............................
........................................................................
   1   -177.6046776 -0.177605E+03  0.959E-02    0.53       0.0  T
   2   -177.6046885 -0.109289E-04  0.554E-02    0.52       1.0  T
   3   -177.6046032  0.853012E-04  0.305E-02    0.53       1.0  T
   4   -177.6046842 -0.810250E-04  0.123E-02    0.52       1.0  T
   5   -177.6046946 -0.103202E-04  0.614E-03    0.52       1.7  T
   6   -177.6046970 -0.246855E-05  0.221E-03    0.52       4.6  T
   7   -177.6046973 -0.277906E-06  0.817E-04    0.52      12.6  T
   8   -177.6046973 -0.405152E-07  0.385E-04    0.52      26.6  T
     SCC iter.                  ...        0 min,  1.171 sec
     gradient                   ...        0 min,  0.057 sec
 * total energy  :  -175.3005139 Eh     change       -0.1666009E-03 Eh
   gradient norm :     0.0114967 Eh/α   predicted     0.0000000E+00 (-100.00%)
   displ. norm   :     0.1332525 α      lambda       -0.3496637E-03
   maximum displ.:     0.0477644 α      in ANC's #2, #10, #9, ...

........................................................................
.............................. CYCLE   22 ..............................
........................................................................
   1   -177.6079630 -0.177608E+03  0.416E-02    0.52       0.0  T
   2   -177.6079661 -0.306260E-05  0.235E-02    0.52       1.0  T
   3   -177.6079576  0.845375E-05  0.104E-02    0.52       1.0  T
   4   -177.6079656 -0.797031E-05  0.498E-03    0.52       2.1  T
   5   -177.6079670 -0.135313E-05  0.295E-03    0.52       3.5  T
   6   -177.6079676 -0.630758E-06  0.111E-03    0.52       9.2  T
     SCC iter.                  ...        0 min,  1.088 sec
     gradient                   ...        0 min,  0.139 sec
 * total energy  :  -175.3007684 Eh     change       -0.2545765E-03 Eh
   gradient norm :     0.0047196 Eh/α   predicted    -0.1780044E-03 ( -30.08%)
   displ. norm   :     0.1579894 α      lambda       -0.2127008E-03
   maximum displ.:     0.0513251 α      in ANC's #19, #2, #10, ...

........................................................................
.............................. CYCLE   23 ..............................
........................................................................
   1   -177.6102897 -0.177610E+03  0.490E-02    0.52       0.0  T
   2   -177.6102932 -0.354490E-05  0.286E-02    0.52       1.0  T
   3   -177.6102835  0.975774E-05  0.113E-02    0.52       1.0  T
   4   -177.6102932 -0.967395E-05  0.512E-03    0.52       2.0  T
   5   -177.6102946 -0.145850E-05  0.307E-03    0.52       3.3  T
   6   -177.6102953 -0.649990E-06  0.109E-03    0.52       9.4  T
   7   -177.6102953 -0.732894E-07  0.394E-04    0.52      26.0  T
     SCC iter.                  ...        0 min,  0.659 sec
     gradient                   ...        0 min,  0.045 sec
 * total energy  :  -175.3009258 Eh     change       -0.1573788E-03 Eh
   gradient norm :     0.0030413 Eh/α   predicted    -0.1090056E-03 ( -30.74%)
   displ. norm   :     0.3145798 α      lambda       -0.2775841E-03
   maximum displ.:     0.0960584 α      in ANC's #2, #19, #10, ...

........................................................................
.............................. CYCLE   24 ..............................
........................................................................
   1   -177.6111365 -0.177611E+03  0.968E-02    0.52       0.0  T
   2   -177.6111470 -0.105102E-04  0.563E-02    0.52       1.0  T
   3   -177.6110984  0.486251E-04  0.243E-02    0.52       1.0  T
   4   -177.6111489 -0.505530E-04  0.898E-03    0.52       1.1  T
   5   -177.6111522 -0.326021E-05  0.557E-03    0.52       1.8  T
   6   -177.6111545 -0.233290E-05  0.131E-03    0.52       7.8  T
   7   -177.6111546 -0.108949E-06  0.556E-04    0.52      18.5  T
   8   -177.6111546 -0.935364E-08  0.267E-04    0.52      38.4  T
     SCC iter.                  ...        0 min,  0.994 sec
     gradient                   ...        0 min,  0.083 sec
 * total energy  :  -175.3011482 Eh     change       -0.2223655E-03 Eh
   gradient norm :     0.0067962 Eh/α   predicted    -0.1525612E-03 ( -31.39%)
   displ. norm   :     0.5576300 α      lambda       -0.4189425E-03
   maximum displ.:     0.1744655 α      in ANC's #2, #10, #35, ...

........................................................................
.............................. CYCLE   25 ..............................
........................................................................
   1   -177.6084412 -0.177608E+03  0.173E-01    0.52       0.0  T
   2   -177.6084803 -0.390336E-04  0.100E-01    0.52       1.0  T
   3   -177.6084863 -0.606204E-05  0.168E-02    0.51       1.0  T
   4   -177.6084909 -0.454281E-05  0.115E-02    0.52       1.0  T
   5   -177.6084962 -0.538816E-05  0.614E-03    0.52       1.7  T
   6   -177.6084982 -0.190746E-05  0.383E-03    0.52       2.7  T
   7   -177.6084996 -0.141057E-05  0.900E-04    0.52      11.4  T
   8   -177.6084996 -0.136376E-07  0.565E-04    0.52      18.2  T
     SCC iter.                  ...        0 min,  0.503 sec
     gradient                   ...        0 min,  0.060 sec
 * total energy  :  -175.3014394 Eh     change       -0.2911906E-03 Eh
   gradient norm :     0.0108969 Eh/α   predicted    -0.2746427E-03 (  -5.68%)
   displ. norm   :     0.2953489 α      lambda       -0.2474303E-03
   maximum displ.:     0.1122030 α      in ANC's #2, #10, #9, ...

........................................................................
.............................. CYCLE   26 ..............................
........................................................................
   1   -177.6079398 -0.177608E+03  0.868E-02    0.52       0.0  T
   2   -177.6079482 -0.839378E-05  0.494E-02    0.51       1.0  T
   3   -177.6079263  0.218551E-04  0.168E-02    0.52       1.0  T
   4   -177.6079474 -0.211116E-04  0.892E-03    0.51       1.2  T
   5   -177.6079518 -0.436609E-05  0.407E-03    0.51       2.5  T
   6   -177.6079531 -0.126364E-05  0.852E-04    0.51      12.0  T
   7   -177.6079531 -0.308462E-07  0.412E-04    0.51      24.9  T
     SCC iter.                  ...        0 min,  0.748 sec
     gradient                   ...        0 min,  0.067 sec
 * total energy  :  -175.3016398 Eh     change       -0.2003955E-03 Eh
   gradient norm :     0.0095326 Eh/α   predicted    -0.1345089E-03 ( -32.88%)
   displ. norm   :     0.3509038 α      lambda       -0.4959634E-03
   maximum displ.:     0.1585804 α      in ANC's #2, #10, #9, ...

........................................................................
.............................. CYCLE   27 ..............................
........................................................................
   1   -177.6110396 -0.177611E+03  0.100E-01    0.52       0.0  T
   2   -177.6110510 -0.114034E-04  0.555E-02    0.51       1.0  T
   3   -177.6108736  0.177404E-03  0.429E-02    0.52       1.0  T
   4   -177.6110547 -0.181094E-03  0.112E-02    0.51       1.0  T
   5   -177.6110623 -0.758807E-05  0.483E-03    0.51       2.1  T
   6   -177.6110632 -0.885991E-06  0.196E-03    0.52       5.2  T
   7   -177.6110634 -0.216427E-06  0.559E-04    0.51      18.4  T
     SCC iter.                  ...        0 min,  0.387 sec
     gradient                   ...        0 min,  0.035 sec
 * total energy  :  -175.3018762 Eh     change       -0.2364722E-03 Eh
   gradient norm :     0.0066840 Eh/α   predicted    -0.2785165E-03 (  17.78%)
   displ. norm   :     0.4799538 α      lambda       -0.3177350E-03
   maximum displ.:     0.1927772 α      in ANC's #2, #10, #9, ...

........................................................................
.............................. CYCLE   28 ..............................
........................................................................
   1   -177.6080007 -0.177608E+03  0.141E-01    0.51       0.0  T
   2   -177.6080276 -0.269509E-04  0.804E-02    0.51       1.0  T
   3   -177.6079628  0.647896E-04  0.289E-02    0.52       1.0  T
   4   -177.6080226 -0.597333E-04  0.158E-02    0.51       1.0  T
   5   -177.6080391 -0.165324E-04  0.668E-03    0.51       1.5  T
   6   -177.6080417 -0.255550E-05  0.228E-03    0.51       4.5  T
   7   -177.6080420 -0.380959E-06  0.777E-04    0.51      13.2  T
     SCC iter.                  ...        0 min,  0.327 sec
     gradient                   ...        0 min,  0.040 sec
 * total energy  :  -175.3020844 Eh     change       -0.2081710E-03 Eh
   gradient norm :     0.0090669 Eh/α   predicted    -0.1954636E-03 (  -6.10%)
   displ. norm   :     0.2734805 α      lambda       -0.1901381E-03
   maximum displ.:     0.1308869 α      in ANC's #2, #9, #10, ...

........................................................................
.............................. CYCLE   29 ..............................
........................................................................
   1   -177.6089914 -0.177609E+03  0.727E-02    0.51       0.0  T
   2   -177.6089965 -0.503482E-05  0.410E-02    0.51       1.0  T
   3   -177.6089700  0.264474E-04  0.169E-02    0.51       1.0  T
   4   -177.6089977 -0.276291E-04  0.617E-03    0.51       1.7  T
   5   -177.6089984 -0.762430E-06  0.403E-03    0.51       2.5  T
   6   -177.6089999 -0.152821E-05  0.812E-04    0.51      12.6  T
   7   -177.6090000 -0.377190E-07  0.415E-04    0.51      24.7  T
     SCC iter.                  ...        0 min,  0.702 sec
     gradient                   ...        0 min,  0.263 sec
 * total energy  :  -175.3022476 Eh     change       -0.1632067E-03 Eh
   gradient norm :     0.0083047 Eh/α   predicted    -0.1021804E-03 ( -37.39%)
   displ. norm   :     0.4451671 α      lambda       -0.4260965E-03
   maximum displ.:     0.2275467 α      in ANC's #2, #9, #5, ...

........................................................................
.............................. CYCLE   30 ..............................
........................................................................
   1   -177.6133860 -0.177613E+03  0.115E-01    0.51       0.0  T
   2   -177.6134010 -0.150547E-04  0.644E-02    0.51       1.0  T
   3   -177.6133635  0.375309E-04  0.212E-02    0.52       1.0  T
   4   -177.6133954 -0.318811E-04  0.121E-02    0.51       1.0  T
   5   -177.6134056 -0.102784E-04  0.555E-03    0.51       1.8  T
   6   -177.6134077 -0.203536E-05  0.189E-03    0.51       5.4  T
   7   -177.6134080 -0.274626E-06  0.669E-04    0.51      15.3  T
     SCC iter.                  ...        0 min,  1.037 sec
     gradient                   ...        0 min,  0.084 sec
 * total energy  :  -175.3025238 Eh     change       -0.2762070E-03 Eh
   gradient norm :     0.0043548 Eh/α   predicted    -0.2552761E-03 (  -7.58%)
   displ. norm   :     0.6130001 α      lambda       -0.2734941E-03
   maximum displ.:     0.3038587 α      in ANC's #2, #9, #10, ...

........................................................................
.............................. CYCLE   31 ..............................
........................................................................
   1   -177.6091009 -0.177609E+03  0.162E-01    0.51       0.0  T
   2   -177.6091304 -0.295191E-04  0.915E-02    0.51       1.0  T
   3   -177.6090927  0.377079E-04  0.246E-02    0.52       1.0  T
   4   -177.6091245 -0.317923E-04  0.160E-02    0.51       1.0  T
   5   -177.6091419 -0.173668E-04  0.606E-03    0.51       1.7  T
   6   -177.6091445 -0.265184E-05  0.167E-03    0.51       6.1  T
   7   -177.6091447 -0.150982E-06  0.725E-04    0.51      14.1  T
     SCC iter.                  ...        0 min,  0.857 sec
     gradient                   ...        0 min,  0.046 sec
 * total energy  :  -175.3027107 Eh     change       -0.1868365E-03 Eh
   gradient norm :     0.0077559 Eh/α   predicted    -0.1881330E-03 (   0.69%)
   displ. norm   :     0.3765986 α      lambda       -0.2225932E-03
   maximum displ.:     0.2156734 α      in ANC's #2, #5, #11, ...

........................................................................
.............................. CYCLE   32 ..............................
........................................................................
   1   -177.6101809 -0.177610E+03  0.915E-02    0.51       0.0  T
   2   -177.6101885 -0.767384E-05  0.518E-02    0.51       1.0  T
   3   -177.6101795  0.899650E-05  0.125E-02    0.52       1.0  T
   4   -177.6101890 -0.951223E-05  0.708E-03    0.51       1.4  T
   5   -177.6101888  0.266444E-06  0.607E-03    0.52       1.7  T
   6   -177.6101924 -0.357617E-05  0.120E-03    0.52       8.5  T
   7   -177.6101925 -0.104504E-06  0.499E-04    0.52      20.6  T
   8   -177.6101925 -0.695923E-08  0.270E-04    0.52      38.1  T
     SCC iter.                  ...        0 min,  0.721 sec
     gradient                   ...        0 min,  0.051 sec
 * total energy  :  -175.3028801 Eh     change       -0.1694286E-03 Eh
   gradient norm :     0.0054420 Eh/α   predicted    -0.1270835E-03 ( -24.99%)
   displ. norm   :     0.4418885 α      lambda       -0.2286342E-03
   maximum displ.:     0.2615632 α      in ANC's #2, #5, #6, ...

........................................................................
.............................. CYCLE   33 ..............................
........................................................................
   1   -177.6108363 -0.177611E+03  0.107E-01    0.52       0.0  T
   2   -177.6108474 -0.111450E-04  0.600E-02    0.52       1.0  T
   3   -177.6108362  0.112716E-04  0.138E-02    0.52       1.0  T
   4   -177.6108507 -0.145533E-04  0.650E-03    0.52       1.6  T
   5   -177.6108502  0.488472E-06  0.532E-03    0.52       1.9  T
   6   -177.6108527 -0.248137E-05  0.176E-03    0.52       5.8  T
   7   -177.6108530 -0.265172E-06  0.632E-04    0.52      16.2  T
     SCC iter.                  ...        0 min,  0.376 sec
     gradient                   ...        0 min,  0.083 sec
 * total energy  :  -175.3030581 Eh     change       -0.1780143E-03 Eh
   gradient norm :     0.0030784 Eh/α   predicted    -0.1366394E-03 ( -23.24%)
   displ. norm   :     0.5376255 α      lambda       -0.2199345E-03
   maximum displ.:     0.3242737 α      in ANC's #2, #5, #6, ...

........................................................................
.............................. CYCLE   34 ..............................
........................................................................
   1   -177.6111499 -0.177611E+03  0.128E-01    0.52       0.0  T
   2   -177.6111653 -0.153281E-04  0.723E-02    0.52       1.0  T
   3   -177.6111474  0.178828E-04  0.170E-02    0.52       1.0  T
   4   -177.6111683 -0.209098E-04  0.895E-03    0.52       1.1  T
   5   -177.6111670  0.126083E-05  0.805E-03    0.52       1.3  T
   6   -177.6111732 -0.613048E-05  0.173E-03    0.52       5.9  T
   7   -177.6111734 -0.235317E-06  0.730E-04    0.52      14.1  T
   8   -177.6111734 -0.185194E-07  0.398E-04    0.52      25.8  T
     SCC iter.                  ...        0 min,  0.622 sec
     gradient                   ...        0 min,  0.065 sec
 * total energy  :  -175.3032308 Eh     change       -0.1727292E-03 Eh
   gradient norm :     0.0043888 Eh/α   predicted    -0.1417594E-03 ( -17.93%)
   displ. norm   :     0.5233831 α      lambda       -0.2296016E-03
   maximum displ.:     0.3288558 α      in ANC's #2, #6, #5, ...

........................................................................
.............................. CYCLE   35 ..............................
........................................................................
   1   -177.6121843 -0.177612E+03  0.125E-01    0.52       0.0  T
   2   -177.6121982 -0.138231E-04  0.700E-02    0.53       1.0  T
   3   -177.6121711  0.270413E-04  0.186E-02    0.52       1.0  T
   4   -177.6121981 -0.270111E-04  0.993E-03    0.53       1.0  T
   5   -177.6122003 -0.217311E-05  0.755E-03    0.52       1.4  T
   6   -177.6122054 -0.511536E-05  0.156E-03    0.53       6.6  T
   7   -177.6122056 -0.175973E-06  0.691E-04    0.52      14.8  T
   8   -177.6122056 -0.200715E-07  0.373E-04    0.53      27.5  T
     SCC iter.                  ...        0 min,  0.695 sec
     gradient                   ...        0 min,  0.043 sec
 * total energy  :  -175.3034055 Eh     change       -0.1746789E-03 Eh
   gradient norm :     0.0046274 Eh/α   predicted    -0.1462508E-03 ( -16.27%)
   displ. norm   :     0.5091860 α      lambda       -0.1851676E-03
   maximum displ.:     0.3263648 α      in ANC's #2, #6, #5, ...

........................................................................
.............................. CYCLE   36 ..............................
........................................................................
   1   -177.6118805 -0.177612E+03  0.118E-01    0.52       0.0  T
   2   -177.6118921 -0.115882E-04  0.666E-02    0.53       1.0  T
   3   -177.6118727  0.194081E-04  0.160E-02    0.52       1.0  T
   4   -177.6118914 -0.186778E-04  0.923E-03    0.53       1.1  T
   5   -177.6118949 -0.350246E-05  0.597E-03    0.53       1.7  T
   6   -177.6118980 -0.314967E-05  0.121E-03    0.53       8.4  T
   7   -177.6118981 -0.871789E-07  0.596E-04    0.53      17.2  T
   8   -177.6118981 -0.110574E-07  0.338E-04    0.53      30.4  T
     SCC iter.                  ...        0 min,  0.209 sec
     gradient                   ...        0 min,  0.042 sec
 * total energy  :  -175.3035537 Eh     change       -0.1481550E-03 Eh
   gradient norm :     0.0044683 Eh/α   predicted    -0.1165888E-03 ( -21.31%)
   displ. norm   :     0.4568100 α      lambda       -0.1770484E-03
   maximum displ.:     0.3024340 α      in ANC's #2, #6, #5, ...

........................................................................
.............................. CYCLE   37 ..............................
........................................................................
   1   -177.6139596 -0.177614E+03  0.105E-01    0.53       0.0  T
   2   -177.6139682 -0.859794E-05  0.602E-02    0.53       1.0  T
   3   -177.6139529  0.153788E-04  0.144E-02    0.52       1.0  T
   4   -177.6139676 -0.146938E-04  0.796E-03    0.53       1.3  T
   5   -177.6139709 -0.338712E-05  0.477E-03    0.53       2.2  T
   6   -177.6139727 -0.173661E-05  0.127E-03    0.53       8.0  T
   7   -177.6139728 -0.101472E-06  0.561E-04    0.53      18.3  T
     SCC iter.                  ...        0 min,  0.657 sec
     gradient                   ...        0 min,  0.054 sec
 * total energy  :  -175.3036685 Eh     change       -0.1147769E-03 Eh
   gradient norm :     0.0045839 Eh/α   predicted    -0.1069975E-03 (  -6.78%)
   displ. norm   :     0.4368011 α      lambda       -0.1717261E-03
   maximum displ.:     0.2874080 α      in ANC's #2, #6, #5, ...

........................................................................
.............................. CYCLE   38 ..............................
........................................................................
   1   -177.6112580 -0.177611E+03  0.997E-02    0.52       0.0  T
   2   -177.6112679 -0.993119E-05  0.568E-02    0.52       1.0  T
   3   -177.6112644  0.344820E-05  0.986E-03    0.52       1.0  T
   4   -177.6112702 -0.577674E-05  0.525E-03    0.52       2.0  T
   5   -177.6112703 -0.117361E-06  0.437E-03    0.52       2.3  T
   6   -177.6112719 -0.158590E-05  0.148E-03    0.52       6.9  T
   7   -177.6112721 -0.180411E-06  0.496E-04    0.52      20.7  T
     SCC iter.                  ...        0 min,  0.181 sec
     gradient                   ...        0 min,  0.042 sec
 * total energy  :  -175.3037689 Eh     change       -0.1004383E-03 Eh
   gradient norm :     0.0048052 Eh/α   predicted    -0.1022506E-03 (   1.80%)
   displ. norm   :     0.2535644 α      lambda       -0.1168286E-03
   maximum displ.:     0.1594664 α      in ANC's #2, #6, #4, ...

........................................................................
.............................. CYCLE   39 ..............................
........................................................................
   1   -177.6164964 -0.177616E+03  0.601E-02    0.52       0.0  T
   2   -177.6165008 -0.445965E-05  0.344E-02    0.53       1.0  T
   3   -177.6164912  0.966210E-05  0.112E-02    0.52       1.0  T
   4   -177.6164985 -0.731624E-05  0.642E-03    0.52       1.6  T
   5   -177.6165019 -0.342209E-05  0.273E-03    0.52       3.8  T
   6   -177.6165024 -0.480593E-06  0.121E-03    0.52       8.5  T
   7   -177.6165025 -0.880683E-07  0.429E-04    0.52      23.9  T
     SCC iter.                  ...        0 min,  0.217 sec
     gradient                   ...        0 min,  0.058 sec
 * total energy  :  -175.3037951 Eh     change       -0.2620549E-04 Eh
   gradient norm :     0.0080863 Eh/α   predicted    -0.6217113E-04 ( 137.24%)
   displ. norm   :     0.2724640 α      lambda       -0.1945457E-03
   maximum displ.:     0.1843721 α      in ANC's #2, #6, #5, ...

........................................................................
.............................. CYCLE   40 ..............................
........................................................................
   1   -177.6140376 -0.177614E+03  0.638E-02    0.52       0.0  T
   2   -177.6140436 -0.592743E-05  0.371E-02    0.52       1.0  T
   3   -177.6140394  0.421267E-05  0.878E-03    0.52       1.2  T
   4   -177.6140450 -0.566518E-05  0.358E-03    0.52       2.9  T
   5   -177.6140455 -0.504413E-06  0.211E-03    0.52       4.9  T
   6   -177.6140455  0.651368E-07  0.189E-03    0.52       5.4  T
     SCC iter.                  ...        0 min,  0.267 sec
     gradient                   ...        0 min,  0.046 sec
 * total energy  :  -175.3039159 Eh     change       -0.1208205E-03 Eh
   gradient norm :     0.0035808 Eh/α   predicted    -0.1044978E-03 ( -13.51%)
   displ. norm   :     0.2382766 α      lambda       -0.9093377E-04
   maximum displ.:     0.1660179 α      in ANC's #2, #6, #4, ...

........................................................................
.............................. CYCLE   41 ..............................
........................................................................
   1   -177.6128415 -0.177613E+03  0.542E-02    0.52       0.0  T
   2   -177.6128440 -0.253053E-05  0.310E-02    0.52       1.0  T
   3   -177.6128392  0.486155E-05  0.791E-03    0.52       1.3  T
   4   -177.6128448 -0.559116E-05  0.317E-03    0.52       3.2  T
   5   -177.6128447  0.802761E-07  0.280E-03    0.52       3.7  T
   6   -177.6128453 -0.631275E-06  0.108E-03    0.52       9.5  T
   7   -177.6128454 -0.987660E-07  0.331E-04    0.52      31.0  T
   8   -177.6128454 -0.436415E-08  0.180E-04    0.52      57.1  T
     SCC iter.                  ...        0 min,  1.167 sec
     gradient                   ...        0 min,  0.041 sec
 * total energy  :  -175.3039823 Eh     change       -0.6641894E-04 Eh
   gradient norm :     0.0035148 Eh/α   predicted    -0.4805185E-04 ( -27.65%)
   displ. norm   :     0.2610104 α      lambda       -0.8982240E-04
   maximum displ.:     0.1792733 α      in ANC's #2, #6, #4, ...

........................................................................
.............................. CYCLE   42 ..............................
........................................................................
   1   -177.6125591 -0.177613E+03  0.610E-02    0.52       0.0  T
   2   -177.6125613 -0.226398E-05  0.345E-02    0.52       1.0  T
   3   -177.6125405  0.208185E-04  0.144E-02    0.52       1.0  T
   4   -177.6125612 -0.206700E-04  0.557E-03    0.52       1.8  T
   5   -177.6125623 -0.115507E-05  0.390E-03    0.53       2.6  T
   6   -177.6125636 -0.124590E-05  0.912E-04    0.52      11.3  T
   7   -177.6125636 -0.546711E-07  0.391E-04    0.52      26.3  T
   8   -177.6125636 -0.647839E-08  0.226E-04    0.52      45.4  T
     SCC iter.                  ...        0 min,  0.255 sec
     gradient                   ...        0 min,  0.044 sec
 * total energy  :  -175.3040528 Eh     change       -0.7048199E-04 Eh
   gradient norm :     0.0037191 Eh/α   predicted    -0.4797152E-04 ( -31.94%)
   displ. norm   :     0.3130880 α      lambda       -0.1048420E-03
   maximum displ.:     0.2155150 α      in ANC's #2, #6, #4, ...
 * RMSD in coord.:     0.7359116 α      energy gain  -0.3705549E-02 Eh

generating ANC from model Hessian ...
Using Lindh-Hessian (1995)
 Shifting diagonal of input Hessian by   4.987261778716445E-003
 Lowest  eigenvalues of input Hessian
   -0.000000   -0.000000   -0.000000   -0.000000   -0.000000   -0.000000
    0.005000    0.005010    0.005039    0.005128    0.005151    0.005274
    0.005470    0.005532    0.005623    0.005758    0.005924    0.005979
 Highest eigenvalues
    2.130310    2.141656    2.150527    2.154220    2.185312    2.235879
 

........................................................................
.............................. CYCLE   43 ..............................
........................................................................
   1   -177.6132675 -0.177613E+03  0.742E-02    0.53       0.0  T
   2   -177.6132704 -0.291945E-05  0.415E-02    0.53       1.0  T
   3   -177.6132327  0.376827E-04  0.195E-02    0.53       1.0  T
   4   -177.6132699 -0.372229E-04  0.744E-03    0.53       1.4  T
   5   -177.6132717 -0.178240E-05  0.536E-03    0.53       1.9  T
   6   -177.6132741 -0.239474E-05  0.121E-03    0.53       8.5  T
   7   -177.6132742 -0.104961E-06  0.512E-04    0.53      20.0  T
   8   -177.6132742 -0.124708E-07  0.296E-04    0.53      34.6  T
     SCC iter.                  ...        0 min,  0.550 sec
     gradient                   ...        0 min,  0.096 sec
 * total energy  :  -175.3041308 Eh     change       -0.7793674E-04 Eh
   gradient norm :     0.0034350 Eh/α   predicted     0.0000000E+00 (-100.00%)
   displ. norm   :     0.0727179 α      lambda       -0.5210451E-04
   maximum displ.:     0.0401363 α      in ANC's #2, #1, #7, ...

........................................................................
.............................. CYCLE   44 ..............................
........................................................................
   1   -177.6139755 -0.177614E+03  0.207E-02    0.53       0.0  T
   2   -177.6139757 -0.146681E-06  0.116E-02    0.53       1.0  T
   3   -177.6139679  0.777092E-05  0.882E-03    0.53       1.2  T
   4   -177.6139757 -0.779409E-05  0.251E-03    0.53       4.1  T
   5   -177.6139761 -0.367335E-06  0.125E-03    0.53       8.2  T
   6   -177.6139762 -0.858483E-07  0.370E-04    0.53      27.7  T
   7   -177.6139762 -0.103527E-07  0.154E-04    0.53      66.7  T
     SCC iter.                  ...        0 min,  0.897 sec
     gradient                   ...        0 min,  0.049 sec
 * total energy  :  -175.3041754 Eh     change       -0.4466575E-04 Eh
   gradient norm :     0.0016620 Eh/α   predicted    -0.2619668E-04 ( -41.35%)
   displ. norm   :     0.1290263 α      lambda       -0.4812522E-04
   maximum displ.:     0.0605565 α      in ANC's #2, #1, #7, ...

........................................................................
.............................. CYCLE   45 ..............................
........................................................................
   1   -177.6144238 -0.177614E+03  0.412E-02    0.53       0.0  T
   2   -177.6144249 -0.108160E-05  0.231E-02    0.53       1.0  T
   3   -177.6144088  0.161319E-04  0.133E-02    0.53       1.0  T
   4   -177.6144242 -0.153800E-04  0.510E-03    0.53       2.0  T
   5   -177.6144256 -0.149146E-05  0.271E-03    0.53       3.8  T
   6   -177.6144262 -0.506257E-06  0.748E-04    0.53      13.7  T
   7   -177.6144262 -0.445718E-07  0.302E-04    0.53      34.0  T
     SCC iter.                  ...        0 min,  0.517 sec
     gradient                   ...        0 min,  0.085 sec
 * total energy  :  -175.3042283 Eh     change       -0.5286653E-04 Eh
   gradient norm :     0.0016995 Eh/α   predicted    -0.2424081E-04 ( -54.15%)
   displ. norm   :     0.2032627 α      lambda       -0.4823105E-04
   maximum displ.:     0.1004114 α      in ANC's #2, #1, #7, ...

........................................................................
.............................. CYCLE   46 ..............................
........................................................................
   1   -177.6140365 -0.177614E+03  0.645E-02    0.53       0.0  T
   2   -177.6140383 -0.173209E-05  0.356E-02    0.53       1.0  T
   3   -177.6139973  0.409129E-04  0.209E-02    0.53       1.0  T
   4   -177.6140385 -0.411638E-04  0.661E-03    0.53       1.6  T
   5   -177.6140393 -0.758040E-06  0.425E-03    0.53       2.4  T
   6   -177.6140410 -0.176388E-05  0.816E-04    0.53      12.6  T
   7   -177.6140411 -0.504033E-07  0.360E-04    0.53      28.5  T
   8   -177.6140411 -0.385299E-08  0.209E-04    0.53      49.2  T
     SCC iter.                  ...        0 min,  1.900 sec
     gradient                   ...        0 min,  0.210 sec
 * total energy  :  -175.3042771 Eh     change       -0.4880817E-04 Eh
   gradient norm :     0.0029112 Eh/α   predicted    -0.2456574E-04 ( -49.67%)
   displ. norm   :     0.1530299 α      lambda       -0.4516514E-04
   maximum displ.:     0.0786642 α      in ANC's #2, #1, #7, ...

........................................................................
.............................. CYCLE   47 ..............................
........................................................................
   1   -177.6138274 -0.177614E+03  0.472E-02    0.53       0.0  T
   2   -177.6138287 -0.134536E-05  0.256E-02    0.53       1.0  T
   3   -177.6138243  0.440810E-05  0.799E-03    0.53       1.3  T
   4   -177.6138268 -0.248011E-05  0.576E-03    0.53       1.8  T
   5   -177.6138292 -0.238082E-05  0.169E-03    0.53       6.1  T
   6   -177.6138294 -0.276751E-06  0.355E-04    0.53      28.9  T
   7   -177.6138294 -0.465667E-08  0.220E-04    0.53      46.6  T
     SCC iter.                  ...        0 min,  0.997 sec
     gradient                   ...        0 min,  0.047 sec
 * total energy  :  -175.3043125 Eh     change       -0.3544523E-04 Eh
   gradient norm :     0.0027924 Eh/α   predicted    -0.2311251E-04 ( -34.79%)
   displ. norm   :     0.2133022 α      lambda       -0.5651267E-04
   maximum displ.:     0.1128968 α      in ANC's #2, #1, #7, ...

........................................................................
.............................. CYCLE   48 ..............................
........................................................................
   1   -177.6137080 -0.177614E+03  0.648E-02    0.53       0.0  T
   2   -177.6137104 -0.239168E-05  0.348E-02    0.53       1.0  T
   3   -177.6136970  0.133690E-04  0.129E-02    0.53       1.0  T
   4   -177.6137082 -0.111719E-04  0.727E-03    0.53       1.4  T
   5   -177.6137112 -0.297320E-05  0.274E-03    0.53       3.7  T
   6   -177.6137119 -0.757015E-06  0.531E-04    0.53      19.3  T
   7   -177.6137120 -0.154241E-07  0.302E-04    0.53      34.0  T
     SCC iter.                  ...        0 min,  0.568 sec
     gradient                   ...        0 min,  0.061 sec
 * total energy  :  -175.3043586 Eh     change       -0.4608783E-04 Eh
   gradient norm :     0.0020517 Eh/α   predicted    -0.2954251E-04 ( -35.90%)
   displ. norm   :     0.2671839 α      lambda       -0.6757304E-04
   maximum displ.:     0.1457933 α      in ANC's #2, #1, #7, ...

........................................................................
.............................. CYCLE   49 ..............................
........................................................................
   1   -177.6135027 -0.177614E+03  0.791E-02    0.53       0.0  T
   2   -177.6135065 -0.380323E-05  0.424E-02    0.53       1.0  T
   3   -177.6134944  0.120213E-04  0.128E-02    0.54       1.0  T
   4   -177.6135007 -0.626481E-05  0.965E-03    0.53       1.1  T
   5   -177.6135065 -0.583221E-05  0.456E-03    0.53       2.2  T
   6   -177.6135085 -0.196140E-05  0.726E-04    0.53      14.1  T
   7   -177.6135085 -0.350133E-07  0.360E-04    0.53      28.5  T
   8   -177.6135085 -0.314347E-08  0.207E-04    0.53      49.5  T
     SCC iter.                  ...        0 min,  0.323 sec
     gradient                   ...        0 min,  0.031 sec
 * total energy  :  -175.3044119 Eh     change       -0.5328129E-04 Eh
   gradient norm :     0.0014672 Eh/α   predicted    -0.3620581E-04 ( -32.05%)
   displ. norm   :     0.4116888 α      lambda       -0.6192690E-04
   maximum displ.:     0.2312432 α      in ANC's #2, #1, #7, ...

........................................................................
.............................. CYCLE   50 ..............................
........................................................................
   1   -177.6130916 -0.177613E+03  0.117E-01    0.54       0.0  T
   2   -177.6130990 -0.737449E-05  0.630E-02    0.53       1.0  T
   3   -177.6130534  0.456047E-04  0.228E-02    0.54       1.0  T
   4   -177.6130920 -0.385600E-04  0.129E-02    0.53       1.0  T
   5   -177.6130976 -0.565524E-05  0.837E-03    0.54       1.2  T
   6   -177.6131045 -0.686550E-05  0.114E-03    0.53       9.0  T
   7   -177.6131046 -0.857718E-07  0.536E-04    0.53      19.1  T
   8   -177.6131046 -0.634066E-08  0.316E-04    0.53      32.5  T
     SCC iter.                  ...        0 min,  0.218 sec
     gradient                   ...        0 min,  0.043 sec
 * total energy  :  -175.3044737 Eh     change       -0.6182518E-04 Eh
   gradient norm :     0.0030133 Eh/α   predicted    -0.3329648E-04 ( -46.14%)
   displ. norm   :     0.1770081 α      lambda       -0.4408534E-04
   maximum displ.:     0.1043971 α      in ANC's #2, #1, #3, ...

........................................................................
.............................. CYCLE   51 ..............................
........................................................................
   1   -177.6134974 -0.177613E+03  0.474E-02    0.54       0.0  T
   2   -177.6134985 -0.114142E-05  0.262E-02    0.53       1.0  T
   3   -177.6134921  0.644752E-05  0.860E-03    0.54       1.2  T
   4   -177.6134986 -0.650056E-05  0.392E-03    0.53       2.6  T
   5   -177.6134979  0.731938E-06  0.406E-03    0.54       2.5  T
   6   -177.6134995 -0.165342E-05  0.540E-04    0.53      19.0  T
   7   -177.6134995 -0.238303E-07  0.232E-04    0.53      44.1  T
   8   -177.6134995 -0.129913E-08  0.133E-04    0.53      76.9  T
     SCC iter.                  ...        0 min,  1.286 sec
     gradient                   ...        0 min,  0.044 sec
 * total energy  :  -175.3045102 Eh     change       -0.3648321E-04 Eh
   gradient norm :     0.0028429 Eh/α   predicted    -0.2273390E-04 ( -37.69%)
   displ. norm   :     0.2450521 α      lambda       -0.6882077E-04
   maximum displ.:     0.1461243 α      in ANC's #2, #1, #3, ...

........................................................................
.............................. CYCLE   52 ..............................
........................................................................
   1   -177.6144264 -0.177614E+03  0.643E-02    0.54       0.0  T
   2   -177.6144286 -0.220352E-05  0.362E-02    0.54       1.0  T
   3   -177.6144135  0.150750E-04  0.130E-02    0.53       1.0  T
   4   -177.6144302 -0.166697E-04  0.405E-03    0.53       2.5  T
   5   -177.6144291  0.101340E-05  0.400E-03    0.54       2.6  T
   6   -177.6144307 -0.151267E-05  0.115E-03    0.53       8.9  T
   7   -177.6144308 -0.127825E-06  0.378E-04    0.54      27.2  T
   8   -177.6144308 -0.575395E-08  0.200E-04    0.54      51.2  T
     SCC iter.                  ...        0 min,  0.171 sec
     gradient                   ...        0 min,  0.029 sec
 * total energy  :  -175.3045680 Eh     change       -0.5778127E-04 Eh
   gradient norm :     0.0022386 Eh/α   predicted    -0.3648091E-04 ( -36.86%)
   displ. norm   :     0.3434985 α      lambda       -0.8519065E-04
   maximum displ.:     0.2061822 α      in ANC's #2, #1, #3, ...

........................................................................
.............................. CYCLE   53 ..............................
........................................................................
   1   -177.6144067 -0.177614E+03  0.887E-02    0.54       0.0  T
   2   -177.6144110 -0.429863E-05  0.501E-02    0.54       1.0  T
   3   -177.6143898  0.212186E-04  0.160E-02    0.53       1.0  T
   4   -177.6144137 -0.238962E-04  0.515E-03    0.54       2.0  T
   5   -177.6144131  0.560887E-06  0.382E-03    0.54       2.7  T
   6   -177.6144143 -0.122011E-05  0.157E-03    0.54       6.5  T
   7   -177.6144146 -0.233764E-06  0.557E-04    0.54      18.4  T
   8   -177.6144146 -0.167837E-07  0.275E-04    0.54      37.3  T
     SCC iter.                  ...        0 min,  0.100 sec
     gradient                   ...        0 min,  0.030 sec
 * total energy  :  -175.3046374 Eh     change       -0.6943888E-04 Eh
   gradient norm :     0.0021855 Eh/α   predicted    -0.4762760E-04 ( -31.41%)
   displ. norm   :     0.3515111 α      lambda       -0.7557819E-04
   maximum displ.:     0.2136096 α      in ANC's #2, #1, #3, ...

........................................................................
.............................. CYCLE   54 ..............................
........................................................................
   1   -177.6140310 -0.177614E+03  0.853E-02    0.54       0.0  T
   2   -177.6140349 -0.392925E-05  0.485E-02    0.54       1.0  T
   3   -177.6140231  0.117682E-04  0.127E-02    0.53       1.0  T
   4   -177.6140368 -0.136685E-04  0.459E-03    0.54       2.2  T
   5   -177.6140369 -0.131261E-06  0.245E-03    0.54       4.2  T
   6   -177.6140374 -0.454163E-06  0.125E-03    0.54       8.2  T
   7   -177.6140375 -0.137537E-06  0.536E-04    0.54      19.2  T
   8   -177.6140375 -0.158378E-07  0.263E-04    0.54      39.0  T
     SCC iter.                  ...        0 min,  0.118 sec
     gradient                   ...        0 min,  0.031 sec
 * total energy  :  -175.3047017 Eh     change       -0.6426728E-04 Eh
   gradient norm :     0.0027362 Eh/α   predicted    -0.4245862E-04 ( -33.93%)
   displ. norm   :     0.3578951 α      lambda       -0.8079593E-04
   maximum displ.:     0.2190785 α      in ANC's #2, #1, #4, ...

........................................................................
.............................. CYCLE   55 ..............................
........................................................................
   1   -177.6140296 -0.177614E+03  0.811E-02    0.54       0.0  T
   2   -177.6140331 -0.351390E-05  0.464E-02    0.54       1.0  T
   3   -177.6140295  0.364472E-05  0.852E-03    0.54       1.2  T
   4   -177.6140342 -0.476293E-05  0.411E-03    0.54       2.5  T
   5   -177.6140348 -0.614711E-06  0.139E-03    0.54       7.4  T
   6   -177.6140350 -0.129963E-06  0.633E-04    0.54      16.2  T
   7   -177.6140350 -0.162744E-07  0.430E-04    0.54      23.9  T
     SCC iter.                  ...        0 min,  0.345 sec
     gradient                   ...        0 min,  0.044 sec
 * total energy  :  -175.3047736 Eh     change       -0.7185339E-04 Eh
   gradient norm :     0.0028779 Eh/α   predicted    -0.4557439E-04 ( -36.57%)
   displ. norm   :     0.4250339 α      lambda       -0.1031281E-03
   maximum displ.:     0.2610731 α      in ANC's #2, #1, #4, ...

........................................................................
.............................. CYCLE   56 ..............................
........................................................................
   1   -177.6139792 -0.177614E+03  0.895E-02    0.54       0.0  T
   2   -177.6139835 -0.430615E-05  0.518E-02    0.54       1.0  T
   3   -177.6139830  0.568984E-06  0.668E-03    0.54       1.5  T
   4   -177.6139843 -0.129480E-05  0.463E-03    0.54       2.2  T
   5   -177.6139845 -0.197379E-06  0.344E-03    0.54       3.0  T
   6   -177.6139857 -0.119613E-05  0.951E-04    0.54      10.8  T
   7   -177.6139857 -0.661487E-07  0.395E-04    0.54      26.0  T
   8   -177.6139857 -0.152522E-08  0.234E-04    0.54      43.9  T
     SCC iter.                  ...        0 min,  0.700 sec
     gradient                   ...        0 min,  0.074 sec
 * total energy  :  -175.3048643 Eh     change       -0.9079021E-04 Eh
   gradient norm :     0.0026894 Eh/α   predicted    -0.6088525E-04 ( -32.94%)
   displ. norm   :     0.4892647 α      lambda       -0.1156690E-03
   maximum displ.:     0.3021026 α      in ANC's #2, #1, #4, ...

........................................................................
.............................. CYCLE   57 ..............................
........................................................................
   1   -177.6135763 -0.177614E+03  0.980E-02    0.54       0.0  T
   2   -177.6135816 -0.526464E-05  0.571E-02    0.54       1.0  T
   3   -177.6135819 -0.319652E-06  0.645E-03    0.54       1.6  T
   4   -177.6135837 -0.184694E-05  0.374E-03    0.54       2.7  T
   5   -177.6135840 -0.225256E-06  0.200E-03    0.54       5.1  T
   6   -177.6135842 -0.253854E-06  0.116E-03    0.54       8.9  T
   7   -177.6135843 -0.123163E-06  0.396E-04    0.54      25.9  T
   8   -177.6135843 -0.441608E-08  0.207E-04    0.54      49.6  T
     SCC iter.                  ...        0 min,  1.148 sec
     gradient                   ...        0 min,  0.051 sec
 * total energy  :  -175.3049631 Eh     change       -0.9879567E-04 Eh
   gradient norm :     0.0028730 Eh/α   predicted    -0.7167954E-04 ( -27.45%)
   displ. norm   :     0.4923510 α      lambda       -0.1082535E-03
   maximum displ.:     0.3066890 α      in ANC's #2, #1, #4, ...

........................................................................
.............................. CYCLE   58 ..............................
........................................................................
   1   -177.6132298 -0.177613E+03  0.939E-02    0.54       0.0  T
   2   -177.6132345 -0.468996E-05  0.550E-02    0.54       1.0  T
   3   -177.6132339  0.535048E-06  0.648E-03    0.54       1.6  T
   4   -177.6132359 -0.195384E-05  0.413E-03    0.54       2.5  T
   5   -177.6132358  0.101369E-06  0.351E-03    0.54       2.9  T
   6   -177.6132370 -0.123430E-05  0.678E-04    0.54      15.1  T
   7   -177.6132370 -0.229365E-07  0.298E-04    0.54      34.5  T
   8   -177.6132370 -0.166582E-08  0.158E-04    0.54      65.0  T
     SCC iter.                  ...        0 min,  0.349 sec
     gradient                   ...        0 min,  0.028 sec
 * total energy  :  -175.3050561 Eh     change       -0.9291167E-04 Eh
   gradient norm :     0.0034795 Eh/α   predicted    -0.6725071E-04 ( -27.62%)
   displ. norm   :     0.4709537 α      lambda       -0.1073427E-03
   maximum displ.:     0.2969158 α      in ANC's #2, #1, #3, ...

........................................................................
.............................. CYCLE   59 ..............................
........................................................................
   1   -177.6132259 -0.177613E+03  0.859E-02    0.54       0.0  T
   2   -177.6132294 -0.345881E-05  0.503E-02    0.54       1.0  T
   3   -177.6132204  0.893321E-05  0.102E-02    0.55       1.0  T
   4   -177.6132300 -0.954653E-05  0.438E-03    0.54       2.3  T
   5   -177.6132312 -0.123565E-05  0.225E-03    0.55       4.6  T
   6   -177.6132315 -0.299468E-06  0.557E-04    0.55      18.4  T
   7   -177.6132315 -0.108408E-07  0.263E-04    0.55      39.1  T
     SCC iter.                  ...        0 min,  0.132 sec
     gradient                   ...        0 min,  0.054 sec
 * total energy  :  -175.3051486 Eh     change       -0.9249942E-04 Eh
   gradient norm :     0.0034805 Eh/α   predicted    -0.6558013E-04 ( -29.10%)
   displ. norm   :     0.5027836 α      lambda       -0.1165283E-03
   maximum displ.:     0.3205761 α      in ANC's #2, #1, #3, ...

........................................................................
[...]
             Fermi-level           -0.3316639 Eh           -9.0250 eV

     #   Z        covCN         q      C6AA      α(0)
     1   6 C      2.915     0.153    24.687     8.148
     2   7 N      1.834    -0.236    27.023     7.703
     3   6 C      2.931     0.079    26.238     8.401
     4   6 C      2.910    -0.053    29.310     8.877
     5   6 C      2.979     0.115    25.452     8.275
     6   7 N      1.841    -0.242    27.158     7.723
     7   6 C      2.907    -0.032    28.803     8.800
     8   6 C      2.896    -0.034    28.844     8.806
     9   6 C      3.070     0.130    25.090     8.213
    10   8 O      1.729    -0.172    16.899     5.551
    11   6 C      3.087     0.126    25.155     8.221
    12   6 C      2.993    -0.061    29.508     8.911
    13   6 C      3.069    -0.059    29.389     8.889
    14   6 C      3.331     0.490    17.292     6.596
    15   9 F      0.791    -0.208    11.321     3.975
    16   9 F      0.791    -0.201    11.247     3.962
    17   9 F      0.791    -0.208    11.317     3.974
    18   6 C      2.898    -0.041    29.029     8.834
    19   6 C      2.897    -0.041    29.026     8.834
    20   6 C      3.062     0.123    25.234     8.237
    21   8 O      1.729    -0.180    17.017     5.570
    22   6 C      3.081     0.126    25.160     8.223
    23   6 C      2.991    -0.065    29.620     8.928
    24   6 C      3.067    -0.064    29.518     8.909
    25   6 C      3.332     0.490    17.290     6.595
    26   9 F      0.791    -0.211    11.346     3.979
    27   9 F      0.791    -0.206    11.293     3.970
    28   9 F      0.791    -0.214    11.384     3.986
    29   6 C      2.896    -0.050    29.236     8.865
    30   6 C      2.904    -0.047    29.167     8.855
    31   6 C      2.869     0.104    25.700     8.310
    32   6 C      2.871     0.113    25.505     8.279
    33   8 O      1.708    -0.238    17.944     5.719
    34   6 C      3.096     0.109    25.481     8.273
    35   6 C      3.092     0.111    25.446     8.268
    36   6 C      2.933    -0.059    29.462     8.902
    37  16 S      2.329    -0.010   141.476    20.019
    38   6 C      2.932    -0.057    29.409     8.894
    39   8 O      1.707    -0.246    18.067     5.739
    40   6 C      2.896    -0.056    29.385     8.888
    41   6 C      2.909    -0.036    28.890     8.813
    42   6 C      2.965     0.012    27.748     8.640
    43   6 C      2.919    -0.032    28.791     8.799
    44   6 C      3.084     0.001    27.904     8.659
    45   6 C      3.015    -0.012    28.284     8.724
    46   6 C      3.857    -0.028    21.040     6.523
    47   6 C      3.734     0.025    20.234     6.420
    48   7 N      2.630    -0.340    28.766     7.966
    49   6 C      3.734     0.026    20.225     6.419
    50   7 N      2.631    -0.342    28.814     7.972
    51   6 C      3.084     0.008    27.742     8.634
    52   6 C      2.910    -0.002    28.076     8.689
    53   6 C      3.867    -0.012    20.743     6.476
    54   6 C      2.913    -0.042    29.042     8.837
    55   6 C      2.896    -0.030    28.753     8.792
    56   6 C      3.048    -0.013    28.297     8.725
    57   6 C      3.065    -0.008    28.156     8.701
    58   6 C      2.903    -0.030    28.748     8.791
    59   6 C      2.916    -0.040    28.989     8.829
    60   6 C      2.903    -0.017    28.432     8.743
    61   6 C      2.836    -0.091    30.286     9.019
    62   1 H      0.925     0.049     2.332     2.388
    63   1 H      0.925     0.044     2.390     2.418
    64   1 H      0.926     0.043     2.406     2.426
    65   1 H      0.926     0.059     2.205     2.322
    66   1 H      0.926     0.091     1.870     2.138
    67   1 H      0.927     0.069     2.100     2.266
    68   1 H      0.926     0.072     2.064     2.247
    69   1 H      0.926     0.072     2.062     2.245
    70   1 H      0.927     0.059     2.215     2.327
    71   1 H      0.926     0.074     2.040     2.234
    72   1 H      0.926     0.060     2.194     2.316
    73   1 H      0.927     0.067     2.124     2.279
    74   1 H      0.927     0.068     2.112     2.273
    75   1 H      0.926     0.066     2.135     2.285
    76   1 H      0.925     0.041     2.431     2.438
    77   1 H      0.926     0.027     2.629     2.536
    78   1 H      0.924     0.048     2.342     2.393
    79   1 H      0.923     0.003     3.004     2.711
    80   1 H      0.924     0.036     2.507     2.476
    81   1 H      0.860     0.137     1.496     1.916
    82   1 H      0.860     0.138     1.488     1.911
    83   1 H      0.923     0.003     3.013     2.714
    84   1 H      0.924     0.036     2.508     2.477
    85   1 H      0.860     0.137     1.495     1.915
    86   1 H      0.860     0.149     1.409     1.860
    87   1 H      0.925     0.047     2.364     2.404
    88   1 H      0.923     0.072     2.068     2.249
    89   1 H      0.926     0.030     2.589     2.516
    90   1 H      0.926     0.034     2.528     2.486
    91   1 H      0.926     0.030     2.581     2.512
    92   1 H      0.926     0.031     2.573     2.508
    93   1 H      0.926     0.044     2.401     2.423
    94   1 H      0.926     0.045     2.387     2.416
    95   1 H      0.926     0.046     2.368     2.406

 Mol. C6AA /au·bohr⁶  :     127703.422553
 Mol. C8AA /au·bohr⁸  :    3208862.069400
 Mol. α(0) /au        :        562.701496


Wiberg/Mayer (AO) data.
largest (>0.10) Wiberg bond orders for each atom
          total WBO             WBO to atom ...
     1  C   3.966        N    6 1.461    N    2 1.411    H   62 0.956    C    4 0.106
     2  N   3.043        C    3 1.426    C    1 1.411
     3  C   3.974        C    4 1.447    N    2 1.426    H   63 0.963
     4  C   3.970        C    3 1.447    C    5 1.352    H   64 0.968    C    1 0.106
     5  C   3.975        C    4 1.352    N    6 1.351    C    7 1.117
     6  N   3.054        C    1 1.461    C    5 1.351
     7  C   3.971        C    8 1.703    C    5 1.117    H   65 0.963
     8  C   3.982        C    7 1.703    C    9 1.165    H   66 0.955
     9  C   3.897        C   13 1.398    C    8 1.165    O   10 1.123
    10  O   2.439        C    9 1.123    C   11 1.101
    11  C   3.900        C   12 1.433    C   18 1.176    O   10 1.101
    12  C   3.942        C   11 1.433    C   13 1.350    H   67 0.971
    13  C   3.945        C    9 1.398    C   12 1.350    C   14 0.966
    14  C   3.832        C   13 0.966    F   16 0.954    F   17 0.941    F   15 0.940
    15  F   1.069        C   14 0.940
    16  F   1.076        C   14 0.954
    17  F   1.070        C   14 0.941
    18  C   3.951        C   19 1.644    C   11 1.176    H   68 0.961
    19  C   3.973        C   18 1.644    C   20 1.186    H   69 0.960
    20  C   3.894        C   24 1.384    C   19 1.186    O   21 1.113
    21  O   2.420        C   20 1.113    C   22 1.100
    22  C   3.889        C   23 1.421    C   29 1.182    O   21 1.100
    23  C   3.946        C   22 1.421    C   24 1.354    H   70 0.971
    24  C   3.927        C   20 1.384    C   23 1.354    C   25 0.969
    25  C   3.826        C   24 0.969    F   27 0.950    F   26 0.941    F   28 0.934
    26  F   1.067        C   25 0.941
    27  F   1.073        C   25 0.950
    28  F   1.062        C   25 0.934
    29  C   3.950        C   30 1.627    C   22 1.182    H   71 0.959
    30  C   3.956        C   29 1.627    C   31 1.190    H   72 0.951
    31  C   3.898        C   32 1.476    C   30 1.190    O   39 1.003
    32  C   3.871        C   31 1.476    C   40 1.162    O   33 1.023
    33  O   2.303        C   34 1.028    C   32 1.023
    34  C   3.929        C   38 1.575    C   35 1.168    O   33 1.028
    35  C   3.932        C   36 1.576    C   34 1.168    O   39 1.033
    36  C   3.925        C   35 1.576    S   37 1.162    H   73 0.968
    37  S   2.586        C   38 1.167    C   36 1.162
    38  C   3.922        C   34 1.575    S   37 1.167    H   74 0.968
    39  O   2.291        C   35 1.033    C   31 1.003
    40  C   3.939        C   41 1.661    C   32 1.162    H   75 0.952
    41  C   3.956        C   40 1.661    C   42 1.160    H   76 0.955
    42  C   3.958        C   43 1.482    C   59 1.177    C   41 1.160
    43  C   3.958        C   42 1.482    C   44 1.264    H   77 0.959
    44  C   3.979        C   45 1.436    C   43 1.264    C   57 1.092
    45  C   3.923        C   44 1.436    C   51 1.144    C   46 1.017
    46  C   3.992        C   45 1.017    C   47 0.974    C   49 0.971    H   78 0.960
    47  C   3.980        N   48 1.026    C   46 0.974    H   80 0.972    H   79 0.967
    48  N   3.002        C   47 1.026    H   81 0.968    H   82 0.967
    49  C   3.981        N   50 1.029    H   84 0.974    C   46 0.971    H   83 0.965
    50  N   3.004        C   49 1.029    H   85 0.965    H   86 0.963
    51  C   3.985        C   52 1.662    C   45 1.144    C   56 1.051
    52  C   3.929        C   51 1.662    C   53 1.033    H   87 0.961
    53  C   3.992        C   52 1.033    C   54 1.016    C   60 0.945    H   88 0.917
    54  C   3.940        C   55 1.718    C   53 1.016    H   89 0.971
    55  C   3.987        C   54 1.718    C   56 1.210    H   90 0.963
    56  C   3.971        C   57 1.436    C   55 1.210    C   51 1.051
    57  C   3.985        C   56 1.436    C   58 1.221    C   44 1.092
    58  C   3.986        C   59 1.649    C   57 1.221    H   91 0.967
    59  C   3.937        C   58 1.649    C   42 1.177    H   92 0.966
    60  C   3.976        C   61 1.976    H   93 0.967    C   53 0.945
    61  C   3.984        C   60 1.976    H   94 0.974    H   95 0.972
    62  H   0.997        C    1 0.956
    63  H   0.998        C    3 0.963
    64  H   0.998        C    4 0.968
    65  H   0.996        C    7 0.963
    66  H   0.991        C    8 0.955
    67  H   0.995        C   12 0.971
    68  H   0.994        C   18 0.961
    69  H   0.994        C   19 0.960
    70  H   0.996        C   23 0.971
    71  H   0.994        C   29 0.959
    72  H   0.995        C   30 0.951
    73  H   0.996        C   36 0.968
    74  H   0.995        C   38 0.968
    75  H   0.992        C   40 0.952
    76  H   0.998        C   41 0.955
    77  H   0.999        C   43 0.959
    78  H   0.997        C   46 0.960
    79  H   0.999        C   47 0.967
    80  H   0.999        C   47 0.972
    81  H   0.981        N   48 0.968
    82  H   0.980        N   48 0.967
    83  H   1.000        C   49 0.965
    84  H   0.998        C   49 0.974
    85  H   0.981        N   50 0.965
    86  H   0.977        N   50 0.963
    87  H   0.997        C   52 0.961
    88  H   0.987        C   53 0.917
    89  H   0.998        C   54 0.971
    90  H   0.997        C   55 0.963
    91  H   0.998        C   58 0.967
    92  H   0.998        C   59 0.966
    93  H   0.998        C   60 0.967
    94  H   0.998        C   61 0.974
    95  H   0.994        C   61 0.972

molecular dipole:
                 x           y           z       tot (Debye)
 q only:        1.195      -2.448      -2.401
   full:        1.315      -2.466      -2.343       9.268
molecular quadrupole (traceless):
                xx          xy          yy          xz          yz          zz
 q only:      -39.342      54.669      57.431      56.208       4.315     -18.089
  q+dip:      -39.892      47.422      56.893      54.426      -6.235     -17.001
   full:      -46.608      45.589      53.121      59.758     -11.431      -6.513

           -------------------------------------------------
          |                Geometry Summary                 |
           -------------------------------------------------

      molecular mass/u    :      852.8494000
   center of mass at/Å    :       -9.8795966      -6.8729641       2.1620092
  moments of inertia/u·Å² :        0.1511961E+05   0.3034081E+05   0.4343023E+05
rotational constants/cm⁻¹ :        0.1114951E-02   0.5556091E-03   0.3881543E-03

 * 94 selected distances

     #   Z        #   Z                                     value/Å
     1   6 C      2   7 N                                 1.3230912
     2   7 N      3   6 C                                 1.3252762
     3   6 C      4   6 C                                 1.3838134
     4   6 C      5   6 C                                 1.4009565
     1   6 C      6   7 N                                 1.3139313
     5   6 C      6   7 N                                 1.3384254
     7   6 C      8   6 C                                 1.3465010
     8   6 C      9   6 C                                 1.4255772
     9   6 C     10   8 O                                 1.3462752
    10   8 O     11   6 C                                 1.3527509
    11   6 C     12   6 C                                 1.3836057
     9   6 C     13   6 C                                 1.3911886
    12   6 C     13   6 C                                 1.4037992
    13   6 C     14   6 C                                 1.4856760
    14   6 C     15   9 F                                 1.3465458
    14   6 C     16   9 F                                 1.3397722
    14   6 C     17   9 F                                 1.3461272
    11   6 C     18   6 C                                 1.4227577
    18   6 C     19   6 C                                 1.3530521
    19   6 C     20   6 C                                 1.4199030
    20   6 C     21   8 O                                 1.3487534
    21   8 O     22   6 C                                 1.3537612
    22   6 C     23   6 C                                 1.3864472
    20   6 C     24   6 C                                 1.3925383
    23   6 C     24   6 C                                 1.4023044
    24   6 C     25   6 C                                 1.4825302
    25   6 C     26   9 F                                 1.3460059
    25   6 C     27   9 F                                 1.3409809
    25   6 C     28   9 F                                 1.3504299
    22   6 C     29   6 C                                 1.4215043
    29   6 C     30   6 C                                 1.3543867
    30   6 C     31   6 C                                 1.4255440
    31   6 C     32   6 C                                 1.3725739
    32   6 C     33   8 O                                 1.3799823
    33   8 O     34   6 C                                 1.3635184
    34   6 C     35   6 C                                 1.4258803
    35   6 C     36   6 C                                 1.3555440
    36   6 C     37  16 S                                 1.7251916 (max)
    34   6 C     38   6 C                                 1.3556779
    37  16 S     38   6 C                                 1.7238728
    31   6 C     39   8 O                                 1.3880622
    35   6 C     39   8 O                                 1.3618289
    32   6 C     40   6 C                                 1.4340470
    40   6 C     41   6 C                                 1.3513781
    42   6 C     43   6 C                                 1.3792607
    43   6 C     44   6 C                                 1.4081064
    44   6 C     45   6 C                                 1.3877465
    46   6 C     47   6 C                                 1.5362531
    47   6 C     48   7 N                                 1.4530568
    46   6 C     49   6 C                                 1.5387471
    49   6 C     50   7 N                                 1.4521153
    45   6 C     51   6 C                                 1.4430790
    51   6 C     52   6 C                                 1.3461085
    52   6 C     53   6 C                                 1.4873545
    54   6 C     55   6 C                                 1.3452116
    55   6 C     56   6 C                                 1.4163084
    56   6 C     57   6 C                                 1.3780869
    57   6 C     58   6 C                                 1.4155019
    58   6 C     59   6 C                                 1.3552024
    60   6 C     61   6 C                                 1.3183621
     1   6 C     62   1 H                                 1.0828367
     3   6 C     63   1 H                                 1.0828204
     4   6 C     64   1 H                                 1.0782097
     7   6 C     65   1 H                                 1.0808588
     8   6 C     66   1 H                                 1.0797919
    12   6 C     67   1 H                                 1.0702862
    18   6 C     68   1 H                                 1.0791628
    19   6 C     69   1 H                                 1.0794260
    23   6 C     70   1 H                                 1.0699940
    29   6 C     71   1 H                                 1.0792406
    30   6 C     72   1 H                                 1.0779780
    36   6 C     73   1 H                                 1.0696443
    38   6 C     74   1 H                                 1.0697167
    40   6 C     75   1 H                                 1.0803988
    41   6 C     76   1 H                                 1.0825100
    43   6 C     77   1 H                                 1.0808859
    46   6 C     78   1 H                                 1.0944579
    47   6 C     79   1 H                                 1.1045175
    47   6 C     80   1 H                                 1.0917135
    48   7 N     81   1 H                                 1.0147326
    48   7 N     82   1 H                                 1.0138126
    49   6 C     83   1 H                                 1.1018362
    49   6 C     84   1 H                                 1.0940899
    50   7 N     85   1 H                                 1.0155338
    50   7 N     86   1 H                                 1.0135662 (min)
    52   6 C     87   1 H                                 1.0812725
    53   6 C     88   1 H                                 1.0984373
    54   6 C     89   1 H                                 1.0796158
    55   6 C     90   1 H                                 1.0807198
    58   6 C     91   1 H                                 1.0804829
    59   6 C     92   1 H                                 1.0785151
    60   6 C     93   1 H                                 1.0809822
    61   6 C     94   1 H                                 1.0779908
    61   6 C     95   1 H                                 1.0768546

 * 7 distinct bonds (by element types)

   Z      Z             #   av. dist./Å        max./Å        min./Å
   1 H    6 C          30     1.0821749     1.1045175     1.0696443
   6 C    6 C          38     1.4034872     1.5387471     1.3183621
   1 H    7 N           4     1.0144113     1.0155338     1.0135662
   6 C    7 N           6     1.3676494     1.4530568     1.3139313
   6 C    8 O           8     1.3618666     1.3880622     1.3462752
   6 C    9 F           6     1.3449770     1.3504299     1.3397722
   6 C   16 S           2     1.7245322     1.7251916     1.7238728


optimized geometry written to: xtbopt.xyz


           -------------------------------------------------
          | TOTAL ENERGY             -175.310592469585 Eh   |
          | GRADIENT NORM               0.000837761271 Eh/α |
          | HOMO-LUMO GAP               0.608860808234 eV   |
           -------------------------------------------------

------------------------------------------------------------------------
 * finished run on 2021/06/02 at 12:12:31.604     
------------------------------------------------------------------------
 total:
 * wall-time:     0 d,  0 h,  1 min, 54.889 sec
 *  cpu-time:     0 d,  0 h, 14 min, 44.876 sec
 * ratio c/w:     7.702 speedup
 SCF:
 * wall-time:     0 d,  0 h,  0 min,  1.173 sec
 *  cpu-time:     0 d,  0 h,  0 min,  7.292 sec
 * ratio c/w:     6.216 speedup
 ANC optimizer:
 * wall-time:     0 d,  0 h,  1 min, 53.608 sec
 *  cpu-time:     0 d,  0 h, 14 min, 36.939 sec
 * ratio c/w:     7.719 speedup

