      -----------------------------------------------------------      
     |                   =====================                   |     
     |                           x T B                           |     
     |                   =====================                   |     
     |                         S. Grimme                         |     
     |          Mulliken Center for Theoretical Chemistry        |     
     |                    University of Bonn                     |     
     |                Version 6.2 RC2 (SAW190805)                |     
      -----------------------------------------------------------      

   This program is distributed in the hope that it will be useful,
   but WITHOUT ANY WARRANTY; without even the implied warranty of
   MERCHANTABILITY or FITNESS FOR A PARTICULAR PURPOSE.
   
   FOR NON-COMMERCIAL, ACADEMIA USE ONLY.
   
   Cite this work as:
   * S. Grimme, C. Bannwarth, P. Shushkov, J. Chem. Theory Comput., 2017,
     13, 1989-2009. DOI: 10.1021/acs.jctc.7b00118
   * C. Bannwarth, S. Ehlert and S. Grimme., J. Chem. Theory Comput., 2019,
     15, 1652-1671. DOI: 10.1021/acs.jctc.8b01176
   * P. Pracht, E. Caldeweyher, S. Ehlert, S. Grimme, ChemRxiv, 2019, preprint.
     DOI: 10.26434/chemrxiv.8326202.v1
   
   for DFT-D4:
   * E. Caldeweyher, C. Bannwarth and S. Grimme, J. Chem. Phys., 2017,
     147, 034112. DOI: 10.1063/1.4993215
   * E. Caldeweyher, S. Ehlert, A. Hansen, H. Neugebauer, S. Spicher,
     C. Bannwarth and S. Grimme, J. Chem. Phys., 2019, 150, 154122.
     DOI: 10.1063/1.5090222
   
   for sTDA-xTB:
   * S. Grimme and C. Bannwarth, J. Chem. Phys., 2016, 145, 054103.
     DOI: 10.1063/1.4959605
   
   in the mass-spec context:
   * V. Asgeirsson, C. Bauer and S. Grimme, Chem. Sci., 2017, 8, 4879.
     DOI: 10.1039/c7sc00601b
   
   for metadynamics refer to:
   * S. Grimme, J. Chem. Theory Comput., 2019, 155, 2847-2862
     DOI: 10.1021/acs.jctc.9b00143
   
   with help from (in alphabetical order)
   C. Bannwarth, F. Bohle, G. Brandenburg, E. Caldeweyher, M. Checinski,
   S. Dohm, S. Ehlert, S. Ehrlich, F. März, H. Neugebauer, J. Pisarek,
   P. Pracht, P. Shushkov, and S. Spicher.
   
 * started run on 2021/06/13 at 14:17:24.695     

           -------------------------------------------------
          |                Calculation Setup                |
           -------------------------------------------------

          program call               : /ihome/ghutchison/geoffh/xtb/xtb /ihome/ghutchison/blp62/GA/running_GA/sequence/generations/152/167_206_70_47_756_13502.xyz -opt
          hostname                   : smp-n2
          coordinate file            : /ihome/ghutchison/blp62/GA/running_GA/sequence/generations/152/167_206_70_47_756_13502.xyz
          omp threads                :                    12
          number of atoms            :                   123
          number of electrons        :                   344
          charge                     :                     0
          spin                       :                   0.0
          first test random number   :      0.37318206518911


########################################################################
# WARNING! Please study the warnings concerning your input carefully
#  - XTBPATH is not set, using XTBHOME instead
#  - the use of '-opt' is discouraged, please use '--opt' next time
########################################################################

           ------------------------------------------------- 
          |                 G F N 2 - x T B                 |
          | Geometry, Frequencies, Noncovalent interactions |
          |            JCTC 2019 parametrisation            |
           ------------------------------------------------- 
             KAB for C  - Si     :                1.0500
             KAB for H  - Pd     :                0.9500
             k(s)              :                1.8500
             k(p)              :                2.2300
             k(d)              :                2.2300
             k(f)              :                2.0000
             kEN (H0ij)        :               -2.0000
             D4 a1             :                0.5200
             D4 a2             :                5.0000
             D4 s6             :                1.0000
             D4 s8             :                2.7000
             D4 s9             :                5.0000
             alphaj            :                2.0000

  Z AO/shell   Hii/eV     exponent
  1     Wed Apr 25 08:07:45 CEST 2018   EN: 2.200 GM2: 0.406  GM3: 0.0800  RAES: 1.40
     1s    -10.707211    1.230000
  6     Wed Apr 25 08:07:45 CEST 2018   EN: 2.550 GM2: 0.538  GM3: 0.1500  RAES: 3.00
     2s    -13.970922    2.096432
     2p    -10.063292    1.800000
  7     Wed Apr 25 08:07:45 CEST 2018   EN: 3.040 GM2: 0.461  GM3:-0.0640  RAES: 1.90
     2s    -16.686243    2.339881
     2p    -12.523956    2.014332
  8     Wed Apr 25 08:07:45 CEST 2018   EN: 3.440 GM2: 0.452  GM3:-0.0517  RAES: 1.80
     2s    -20.229985    2.439742
     2p    -15.503117    2.137023
 16     Tue Apr 24 11:44:34 CEST 2018   EN: 2.580 GM2: 0.340  GM3:-0.0502  RAES: 3.10
     3s    -20.029654    1.981333
     3p    -11.377694    2.025643
     3d     -0.420282    1.702555

           ------------------------------------------------- 
          |        Self-Consistent Charge Iterations        |
           ------------------------------------------------- 

          ...................................................
          :                      SETUP                      :
          :.................................................:
          :  # basis functions                 348          :
          :  # atomic orbitals                 345          :
          :  # shells                          195          :
          :  # electrons                       344          :
          :  max. iterations                   250          :
          :  Hamiltonian                  GFN2-xTB          :
          :  restarted?                      false          :
          :  GBSA solvation                  false          :
          :  PC potential                    false          :
          :  electronic temp.          300.0000000     K    :
          :  accuracy                    1.0000000          :
          :  -> integral cutoff          0.2500000E+02      :
          :  -> integral neglect         0.1000000E-07      :
          :  -> SCF convergence          0.1000000E-05 Eh   :
          :  -> wf. convergence          0.1000000E-03 e    :
          :  Broyden damping             0.4000000          :
          ...................................................

 iter      E             dE          RMSdq      gap      omega  full diag
   1   -187.9531200 -0.187953E+03  0.424E+00    0.30       0.0  T
   2   -188.2295891 -0.276469E+00  0.246E+00    0.69       1.0  T
   3   -188.1760117  0.535774E-01  0.129E+00    0.52       1.0  T
   4   -188.2328473 -0.568356E-01  0.711E-01    0.66       1.0  T
   5   -188.2661252 -0.332779E-01  0.340E-01    0.63       1.0  T
   6   -188.2775135 -0.113884E-01  0.183E-01    0.63       1.0  T
   7   -188.2813165 -0.380294E-02  0.868E-02    0.64       1.0  T
   8   -188.2822361 -0.919656E-03  0.284E-02    0.62       1.0  T
   9   -188.2822930 -0.568507E-04  0.132E-02    0.63       1.0  T
  10   -188.2823019 -0.893634E-05  0.604E-03    0.63       1.5  T
  11   -188.2823025 -0.606505E-06  0.382E-03    0.63       2.4  T
  12   -188.2823036 -0.111111E-05  0.180E-03    0.63       5.0  T
  13   -188.2823039 -0.219072E-06  0.976E-04    0.63       9.2  T
  14   -188.2823039 -0.376274E-07  0.439E-04    0.63      20.5  T

   *** convergence criteria satisfied after 14 iterations ***

         #    Occupation            Energy/Eh            Energy/eV
      -------------------------------------------------------------
         1        2.0000           -0.7573049             -20.6073
       ...           ...                  ...                  ...
       166        2.0000           -0.3852943             -10.4844
       167        2.0000           -0.3801128             -10.3434
       168        2.0000           -0.3761664             -10.2360
       169        2.0000           -0.3746039             -10.1935
       170        2.0000           -0.3644602              -9.9175
       171        2.0000           -0.3598324              -9.7915
       172        2.0000           -0.3397276              -9.2445 (HOMO)
       173        0.0000           -0.3167375              -8.6189 (LUMO)
       174                         -0.3084337              -8.3929
       175                         -0.2969475              -8.0804
       176                         -0.2738613              -7.4521
       177                         -0.2578564              -7.0166
       ...                                ...                  ...
       345                          0.7754508              21.1011
      -------------------------------------------------------------
                  HL-Gap            0.0229901 Eh            0.6256 eV
             Fermi-level           -0.3282326 Eh           -8.9317 eV

 SCC (total)                   0 d,  0 h,  0 min,  0.224 sec
 SCC setup                      ...        0 min,  0.003 sec (  1.130%)
 Dispersion                     ...        0 min,  0.006 sec (  2.681%)
 integral evaluation            ...        0 min,  0.022 sec (  9.671%)
 zeroth order Hamiltonian       ...        0 min,  0.001 sec (  0.454%)
 iterations                     ...        0 min,  0.171 sec ( 76.504%)
 molecular gradient             ...        0 min,  0.020 sec (  9.087%)
 printout                       ...        0 min,  0.001 sec (  0.434%)

         :::::::::::::::::::::::::::::::::::::::::::::::::::::
         ::                     SUMMARY                     ::
         :::::::::::::::::::::::::::::::::::::::::::::::::::::
         :: total energy            -185.330891035481 Eh    ::
         :: gradient norm              0.142370165876 Eh/a0 ::
         :: HOMO-LUMO gap              0.625592983039 eV    ::
         ::.................................................::
         :: SCC energy              -188.282303895021 Eh    ::
         :: -> isotropic ES            0.077983154999 Eh    ::
         :: -> anisotropic ES          0.029864873339 Eh    ::
         :: -> anisotropic XC          0.099978205553 Eh    ::
         :: -> dispersion             -0.148964550019 Eh    ::
         :: repulsion energy           2.952245635521 Eh    ::
         :: add. restraining           0.000000000000 Eh    ::
         :::::::::::::::::::::::::::::::::::::::::::::::::::::

      ----------------------------------------------------------- 
     |                   =====================                   |
     |                        A N C O P T                        |
     |                   =====================                   |
     |               Approximate Normal Coordinate               |
     |                Rational Function Optimizer                |
      ----------------------------------------------------------- 

          ...................................................
          :                      SETUP                      :
          :.................................................:
          :   optimization level            normal          :
          :   max. optcycles                   369          :
          :   ANC micro-cycles                  20          :
          :   degrees of freedom               363          :
          :.................................................:
          :   RF solver                   davidson          :
          :   input Hessian                  false          :
          :   write xtbopt.log                true          :
          :   linear?                        false          :
          :   energy convergence         0.5000000E-05 Eh   :
          :   grad. convergence          0.1000000E-02 Eh/α :
          :   maximium RF displ.         2.0000000          :
          :   Hlow (freq-cutoff)         0.5000000E-02      :
          :   Hmax (freq-cutoff)         5.0000000          :
          :   S6 in model hess.         20.0000000          :
          ...................................................

generating ANC from model Hessian ...
Using Lindh-Hessian (1995)
 Shifting diagonal of input Hessian by   4.992927297326735E-003
 Lowest  eigenvalues of input Hessian
   -0.000000   -0.000000   -0.000000    0.000000    0.000000    0.000000
    0.005000    0.005016    0.005021    0.005042    0.005075    0.005090
    0.005109    0.005158    0.005190    0.005268    0.005303    0.005510
 Highest eigenvalues
    2.074205    2.078687    2.093731    2.143118    2.226741    2.505570
 

........................................................................
.............................. CYCLE    1 ..............................
........................................................................
   1   -188.2823039 -0.188282E+03  0.232E-04    0.63       0.0  T
   2   -188.2823039  0.215948E-09  0.179E-04    0.63      50.3  T
   3   -188.2823039 -0.246470E-08  0.115E-04    0.63      78.1  T
     SCC iter.                  ...        0 min,  0.037 sec
     gradient                   ...        0 min,  0.020 sec
 * total energy  :  -185.3308911 Eh     change       -0.8509951E-07 Eh
   gradient norm :     0.1423704 Eh/α   predicted     0.0000000E+00 (-100.00%)
   displ. norm   :     0.4305582 α      lambda       -0.3110907E-01
   maximum displ.:     0.1426997 α      in ANC's #134, #83, #130, ...

........................................................................
.............................. CYCLE    2 ..............................
........................................................................
   1   -188.3526658 -0.188353E+03  0.190E-01    0.50       0.0  T
   2   -188.3529197 -0.253878E-03  0.101E-01    0.48       1.0  T
   3   -188.3528126  0.107044E-03  0.834E-02    0.51       1.0  T
   4   -188.3529957 -0.183028E-03  0.415E-02    0.49       1.0  T
   5   -188.3531530 -0.157353E-03  0.259E-02    0.49       1.0  T
   6   -188.3532387 -0.856776E-04  0.114E-02    0.49       1.0  T
   7   -188.3532514 -0.127350E-04  0.515E-03    0.49       1.8  T
   8   -188.3532535 -0.204442E-05  0.278E-03    0.49       3.2  T
   9   -188.3532544 -0.889364E-06  0.869E-04    0.49      10.4  T
     SCC iter.                  ...        0 min,  0.105 sec
     gradient                   ...        0 min,  0.019 sec
 * total energy  :  -185.3534230 Eh     change       -0.2253191E-01 Eh
   gradient norm :     0.0738860 Eh/α   predicted    -0.1843807E-01 ( -18.17%)
   displ. norm   :     0.4429407 α      lambda       -0.1322562E-01
   maximum displ.:     0.1153105 α      in ANC's #38, #42, #60, ...

........................................................................
.............................. CYCLE    3 ..............................
........................................................................
   1   -188.3914492 -0.188391E+03  0.164E-01    0.38       0.0  T
   2   -188.3915109 -0.616587E-04  0.945E-02    0.34       1.0  T
   3   -188.3914518  0.590737E-04  0.875E-02    0.39       1.0  T
   4   -188.3915878 -0.135951E-03  0.524E-02    0.36       1.0  T
   5   -188.3919283 -0.340489E-03  0.187E-02    0.37       1.0  T
   6   -188.3919453 -0.170254E-04  0.140E-02    0.37       1.0  T
   7   -188.3919711 -0.258210E-04  0.698E-03    0.36       1.3  T
   8   -188.3919785 -0.734896E-05  0.209E-03    0.36       4.3  T
   9   -188.3919788 -0.365331E-06  0.963E-04    0.37       9.4  T
  10   -188.3919789 -0.689550E-07  0.484E-04    0.36      18.6  T
     SCC iter.                  ...        0 min,  0.116 sec
     gradient                   ...        0 min,  0.019 sec
 * total energy  :  -185.3619736 Eh     change       -0.8550586E-02 Eh
   gradient norm :     0.0296182 Eh/α   predicted    -0.7910223E-02 (  -7.49%)
   displ. norm   :     0.4670186 α      lambda       -0.4082650E-02
   maximum displ.:     0.1810521 α      in ANC's #38, #42, #23, ...

........................................................................
.............................. CYCLE    4 ..............................
........................................................................
   1   -188.3931982 -0.188393E+03  0.130E-01    0.31       0.0  T
   2   -188.3931087  0.895074E-04  0.793E-02    0.28       1.0  T
   3   -188.3924418  0.666901E-03  0.928E-02    0.34       1.0  T
   4   -188.3929130 -0.471224E-03  0.527E-02    0.30       1.0  T
   5   -188.3933208 -0.407800E-03  0.168E-02    0.30       1.0  T
   6   -188.3933524 -0.315977E-04  0.102E-02    0.30       1.0  T
   7   -188.3933674 -0.149503E-04  0.418E-03    0.30       2.2  T
   8   -188.3933693 -0.192276E-05  0.170E-03    0.30       5.3  T
   9   -188.3933696 -0.339699E-06  0.565E-04    0.30      16.0  T
     SCC iter.                  ...        0 min,  0.106 sec
     gradient                   ...        0 min,  0.019 sec
 * total energy  :  -185.3650953 Eh     change       -0.3121699E-02 Eh
   gradient norm :     0.0181388 Eh/α   predicted    -0.2486573E-02 ( -20.35%)
   displ. norm   :     0.5951556 α      lambda       -0.3309900E-02
   maximum displ.:     0.2344630 α      in ANC's #38, #20, #23, ...

........................................................................
.............................. CYCLE    5 ..............................
........................................................................
   1   -188.3870729 -0.188387E+03  0.166E-01    0.26       0.0  T
   2   -188.3867229  0.349996E-03  0.105E-01    0.22       1.0  T
   3   -188.3840572  0.266567E-02  0.153E-01    0.33       1.0  T
   4   -188.3865474 -0.249020E-02  0.665E-02    0.27       1.0  T
   5   -188.3871344 -0.586993E-03  0.242E-02    0.25       1.0  T
   6   -188.3872105 -0.761080E-04  0.127E-02    0.25       1.0  T
   7   -188.3872302 -0.196735E-04  0.647E-03    0.24       1.4  T
   8   -188.3872346 -0.439763E-05  0.279E-03    0.25       3.2  T
   9   -188.3872355 -0.884244E-06  0.105E-03    0.25       8.6  T
  10   -188.3872356 -0.845983E-07  0.528E-04    0.25      17.1  T
     SCC iter.                  ...        0 min,  0.124 sec
     gradient                   ...        0 min,  0.022 sec
 * total energy  :  -185.3674871 Eh     change       -0.2391817E-02 Eh
   gradient norm :     0.0179545 Eh/α   predicted    -0.2241152E-02 (  -6.30%)
   displ. norm   :     0.6164938 α      lambda       -0.2792848E-02
   maximum displ.:     0.2227919 α      in ANC's #38, #20, #23, ...

........................................................................
.............................. CYCLE    6 ..............................
........................................................................
   1   -188.3804390 -0.188380E+03  0.182E-01    0.21       0.0  T
   2   -188.3798627  0.576351E-03  0.117E-01    0.18       1.0  T
   3   -188.3749078  0.495486E-02  0.193E-01    0.33       1.0  T
   4   -188.3796721 -0.476429E-02  0.766E-02    0.25       1.0  T
   5   -188.3804318 -0.759724E-03  0.298E-02    0.22       1.0  T
   6   -188.3805271 -0.952340E-04  0.175E-02    0.22       1.0  T
   7   -188.3805585 -0.314365E-04  0.899E-03    0.21       1.0  T
   8   -188.3805681 -0.955100E-05  0.373E-03    0.21       2.4  T
   9   -188.3805694 -0.133662E-05  0.128E-03    0.21       7.0  T
  10   -188.3805694  0.298334E-07  0.985E-04    0.21       9.2  T
     SCC iter.                  ...        0 min,  0.116 sec
     gradient                   ...        0 min,  0.019 sec
 * total energy  :  -185.3691471 Eh     change       -0.1659914E-02 Eh
   gradient norm :     0.0236782 Eh/α   predicted    -0.1927270E-02 (  16.11%)
   displ. norm   :     0.5016045 α      lambda       -0.2199891E-02
   maximum displ.:     0.1926001 α      in ANC's #20, #38, #27, ...

........................................................................
.............................. CYCLE    7 ..............................
........................................................................
   1   -188.3829587 -0.188383E+03  0.141E-01    0.19       0.0  T
   2   -188.3825575  0.401208E-03  0.914E-02    0.17       1.0  T
   3   -188.3786622  0.389537E-02  0.164E-01    0.29       1.0  T
   4   -188.3825738 -0.391158E-02  0.543E-02    0.22       1.0  T
   5   -188.3829471 -0.373308E-03  0.219E-02    0.20       1.0  T
   6   -188.3829874 -0.403359E-04  0.151E-02    0.19       1.0  T
   7   -188.3830174 -0.299928E-04  0.618E-03    0.19       1.5  T
   8   -188.3830214 -0.405125E-05  0.301E-03    0.19       3.0  T
   9   -188.3830225 -0.106516E-05  0.793E-04    0.19      11.4  T
     SCC iter.                  ...        0 min,  0.107 sec
     gradient                   ...        0 min,  0.019 sec
 * total energy  :  -185.3708435 Eh     change       -0.1696495E-02 Eh
   gradient norm :     0.0186884 Eh/α   predicted    -0.1376700E-02 ( -18.85%)
   displ. norm   :     0.5803831 α      lambda       -0.2132867E-02
   maximum displ.:     0.2204166 α      in ANC's #20, #13, #38, ...

........................................................................
.............................. CYCLE    8 ..............................
........................................................................
   1   -188.3914956 -0.188391E+03  0.159E-01    0.18       0.0  T
   2   -188.3912331  0.262435E-03  0.978E-02    0.16       1.0  T
   3   -188.3868576  0.437551E-02  0.168E-01    0.30       1.0  T
   4   -188.3912559 -0.439834E-02  0.464E-02    0.20       1.0  T
   5   -188.3915062 -0.250282E-03  0.176E-02    0.18       1.0  T
   6   -188.3914981  0.817305E-05  0.175E-02    0.18       1.0  T
   7   -188.3915506 -0.525532E-04  0.586E-03    0.17       1.5  T
   8   -188.3915538 -0.320354E-05  0.313E-03    0.17       2.9  T
   9   -188.3915551 -0.127020E-05  0.836E-04    0.17      10.8  T
  10   -188.3915551 -0.541457E-07  0.485E-04    0.17      18.6  T
     SCC iter.                  ...        0 min,  0.116 sec
     gradient                   ...        0 min,  0.019 sec
 * total energy  :  -185.3723610 Eh     change       -0.1517460E-02 Eh
   gradient norm :     0.0158654 Eh/α   predicted    -0.1425660E-02 (  -6.05%)
   displ. norm   :     0.6507090 α      lambda       -0.1988801E-02
   maximum displ.:     0.2379590 α      in ANC's #27, #20, #38, ...

........................................................................
.............................. CYCLE    9 ..............................
........................................................................
   1   -188.3956050 -0.188396E+03  0.176E-01    0.17       0.0  T
   2   -188.3954727  0.132308E-03  0.104E-01    0.15       1.0  T
   3   -188.3908289  0.464384E-02  0.164E-01    0.28       1.0  T
   4   -188.3954916 -0.466267E-02  0.332E-02    0.18       1.0  T
   5   -188.3956202 -0.128635E-03  0.130E-02    0.16       1.0  T
   6   -188.3955977  0.224669E-04  0.159E-02    0.17       1.0  T
   7   -188.3956443 -0.465491E-04  0.500E-03    0.16       1.8  T
   8   -188.3956464 -0.208183E-05  0.279E-03    0.16       3.2  T
   9   -188.3956476 -0.126178E-05  0.591E-04    0.16      15.2  T
     SCC iter.                  ...        0 min,  0.105 sec
     gradient                   ...        0 min,  0.019 sec
 * total energy  :  -185.3736325 Eh     change       -0.1271448E-02 Eh
   gradient norm :     0.0178832 Eh/α   predicted    -0.1415458E-02 (  11.33%)
   displ. norm   :     0.5417268 α      lambda       -0.1376730E-02
   maximum displ.:     0.1941643 α      in ANC's #20, #13, #12, ...

........................................................................
.............................. CYCLE   10 ..............................
........................................................................
   1   -188.3953802 -0.188395E+03  0.152E-01    0.16       0.0  T
   2   -188.3953006  0.795926E-04  0.893E-02    0.15       1.0  T
   3   -188.3910989  0.420170E-02  0.149E-01    0.24       1.0  T
   4   -188.3953421 -0.424319E-02  0.218E-02    0.16       1.0  T
   5   -188.3953718 -0.297616E-04  0.130E-02    0.15       1.0  T
   6   -188.3953690  0.280348E-05  0.133E-02    0.16       1.0  T
   7   -188.3954031 -0.340979E-04  0.397E-03    0.15       2.3  T
   8   -188.3954050 -0.186995E-05  0.186E-03    0.15       4.9  T
   9   -188.3954056 -0.598057E-06  0.524E-04    0.15      17.2  T
     SCC iter.                  ...        0 min,  0.105 sec
     gradient                   ...        0 min,  0.020 sec
 * total energy  :  -185.3746608 Eh     change       -0.1028363E-02 Eh
   gradient norm :     0.0156690 Eh/α   predicted    -0.8904029E-03 ( -13.42%)
   displ. norm   :     0.5477873 α      lambda       -0.1418247E-02
   maximum displ.:     0.1949559 α      in ANC's #12, #27, #13, ...

........................................................................
.............................. CYCLE   11 ..............................
........................................................................
   1   -188.4014718 -0.188401E+03  0.156E-01    0.15       0.0  T
   2   -188.4014682  0.361946E-05  0.907E-02    0.15       1.0  T
   3   -188.4000582  0.140997E-02  0.872E-02    0.13       1.0  T
   4   -188.4012273 -0.116909E-02  0.347E-02    0.17       1.0  T
   5   -188.4014567 -0.229394E-03  0.131E-02    0.15       1.0  T
   6   -188.4014720 -0.153245E-04  0.100E-02    0.15       1.0  T
   7   -188.4014896 -0.175277E-04  0.329E-03    0.15       2.7  T
   8   -188.4014910 -0.145364E-05  0.112E-03    0.15       8.0  T
   9   -188.4014912 -0.149274E-06  0.472E-04    0.15      19.1  T
     SCC iter.                  ...        0 min,  0.105 sec
     gradient                   ...        0 min,  0.019 sec
 * total energy  :  -185.3756330 Eh     change       -0.9722084E-03 Eh
   gradient norm :     0.0139131 Eh/α   predicted    -0.9219177E-03 (  -5.17%)
   displ. norm   :     0.5856267 α      lambda       -0.1276128E-02
   maximum displ.:     0.2398577 α      in ANC's #13, #12, #27, ...

........................................................................
.............................. CYCLE   12 ..............................
........................................................................
   1   -188.4019635 -0.188402E+03  0.169E-01    0.15       0.0  T
   2   -188.4015169  0.446606E-03  0.110E-01    0.18       1.0  T
   3   -188.3116159  0.899010E-01  0.641E-01    0.06       1.0  T
   4   -188.4009383 -0.893225E-01  0.840E-02    0.21       1.0  T
   5   -188.4015797 -0.641387E-03  0.459E-02    0.18       1.0  T
   6   -188.4017388 -0.159055E-03  0.381E-02    0.18       1.0  T
   7   -188.4018761 -0.137377E-03  0.281E-02    0.17       1.0  T
   8   -188.4019173 -0.411567E-04  0.230E-02    0.17       1.0  T
   9   -188.4019784 -0.611439E-04  0.149E-02    0.16       1.0  T
  10   -188.4020059 -0.274528E-04  0.860E-03    0.16       1.0  T
  11   -188.4020178 -0.119573E-04  0.271E-03    0.16       3.3  T
  12   -188.4020190 -0.114853E-05  0.722E-04    0.15      12.5  T
  13   -188.4020191 -0.711467E-07  0.166E-04    0.15      54.3  T
     SCC iter.                  ...        0 min,  0.148 sec
     gradient                   ...        0 min,  0.020 sec
 * total energy  :  -185.3764388 Eh     change       -0.8058162E-03 Eh
   gradient norm :     0.0153570 Eh/α   predicted    -0.8569000E-03 (   6.34%)
   displ. norm   :     0.6302240 α      lambda       -0.1224827E-02
   maximum displ.:     0.2460110 α      in ANC's #27, #13, #12, ...

........................................................................
.............................. CYCLE   13 ..............................
........................................................................
   1   -188.3883306 -0.188388E+03  0.181E-01    0.15       0.0  T
   2   -188.3883033  0.273031E-04  0.106E-01    0.15       1.0  T
   3   -188.3811745  0.712874E-02  0.193E-01    0.11       1.0  T
   4   -188.3872941 -0.611960E-02  0.665E-02    0.20       1.0  T
   5   -188.3882560 -0.961888E-03  0.224E-02    0.16       1.0  T
   6   -188.3883310 -0.749722E-04  0.125E-02    0.16       1.0  T
   7   -188.3883525 -0.215083E-04  0.643E-03    0.15       1.4  T
   8   -188.3883595 -0.705293E-05  0.226E-03    0.15       4.0  T
   9   -188.3883601 -0.588692E-06  0.875E-04    0.15      10.3  T
  10   -188.3883602 -0.848934E-07  0.415E-04    0.15      21.7  T
     SCC iter.                  ...        0 min,  0.114 sec
     gradient                   ...        0 min,  0.019 sec
 * total energy  :  -185.3771078 Eh     change       -0.6689781E-03 Eh
   gradient norm :     0.0163893 Eh/α   predicted    -0.8556564E-03 (  27.90%)
   displ. norm   :     0.4549756 α      lambda       -0.1555581E-02
   maximum displ.:     0.1783109 α      in ANC's #12, #13, #25, ...

........................................................................
.............................. CYCLE   14 ..............................
........................................................................
   1   -188.4084314 -0.188408E+03  0.141E-01    0.17       0.0  T
   2   -188.4079917  0.439718E-03  0.930E-02    0.19       1.0  T
   3   -188.3900682  0.179235E-01  0.300E-01    0.11       1.0  T
   4   -188.4073116 -0.172434E-01  0.771E-02    0.24       1.0  T
   5   -188.4082824 -0.970809E-03  0.377E-02    0.20       1.0  T
   6   -188.4083918 -0.109376E-03  0.276E-02    0.19       1.0  T
   7   -188.4084899 -0.980954E-04  0.173E-02    0.18       1.0  T
   8   -188.4085382 -0.483239E-04  0.869E-03    0.18       1.0  T
   9   -188.4085492 -0.109734E-04  0.187E-03    0.17       4.8  T
  10   -188.4085494 -0.251963E-06  0.118E-03    0.17       7.6  T
  11   -188.4085496 -0.133660E-06  0.453E-04    0.17      19.9  T
     SCC iter.                  ...        0 min,  0.125 sec
     gradient                   ...        0 min,  0.019 sec
 * total energy  :  -185.3774328 Eh     change       -0.3249396E-03 Eh
   gradient norm :     0.0277439 Eh/α   predicted    -0.9387978E-03 ( 188.91%)
   displ. norm   :     0.3463452 α      lambda       -0.1484311E-02
   maximum displ.:     0.1380344 α      in ANC's #12, #13, #23, ...

........................................................................
.............................. CYCLE   15 ..............................
........................................................................
   1   -188.3998086 -0.188400E+03  0.111E-01    0.17       0.0  T
   2   -188.3990616  0.746927E-03  0.898E-02    0.20       1.0  T
   3   -188.3877087  0.113530E-01  0.242E-01    0.11       1.0  T
   4   -188.3989206 -0.112119E-01  0.694E-02    0.23       1.0  T
   5   -188.3995746 -0.654015E-03  0.386E-02    0.20       1.0  T
   6   -188.3997684 -0.193821E-03  0.246E-02    0.19       1.0  T
   7   -188.3998520 -0.835843E-04  0.144E-02    0.18       1.0  T
   8   -188.3998741 -0.221123E-04  0.860E-03    0.18       1.0  T
   9   -188.3998873 -0.132522E-04  0.232E-03    0.18       3.9  T
  10   -188.3998878 -0.482553E-06  0.880E-04    0.18      10.2  T
  11   -188.3998879 -0.675044E-07  0.354E-04    0.18      25.5  T
     SCC iter.                  ...        0 min,  0.128 sec
     gradient                   ...        0 min,  0.019 sec
 * total energy  :  -185.3782787 Eh     change       -0.8459468E-03 Eh
   gradient norm :     0.0122446 Eh/α   predicted    -0.8311822E-03 (  -1.75%)
   displ. norm   :     0.4725174 α      lambda       -0.1066672E-02
   maximum displ.:     0.1951227 α      in ANC's #12, #13, #27, ...

........................................................................
.............................. CYCLE   16 ..............................
........................................................................
   1   -188.3960691 -0.188396E+03  0.145E-01    0.18       0.0  T
   2   -188.3957626  0.306512E-03  0.931E-02    0.20       1.0  T
   3   -188.3724815  0.232811E-01  0.338E-01    0.12       1.0  T
   4   -188.3950069 -0.225254E-01  0.707E-02    0.25       1.0  T
   5   -188.3957614 -0.754527E-03  0.426E-02    0.21       1.0  T
   6   -188.3960082 -0.246817E-03  0.256E-02    0.20       1.0  T
   7   -188.3960835 -0.752997E-04  0.162E-02    0.19       1.0  T
   8   -188.3961248 -0.412101E-04  0.851E-03    0.19       1.1  T
   9   -188.3961351 -0.103766E-04  0.262E-03    0.19       3.4  T
  10   -188.3961360 -0.872898E-06  0.112E-03    0.18       8.1  T
  11   -188.3961361 -0.124447E-06  0.388E-04    0.18      23.2  T
     SCC iter.                  ...        0 min,  0.130 sec
     gradient                   ...        0 min,  0.021 sec
 * total energy  :  -185.3785105 Eh     change       -0.2317664E-03 Eh
   gradient norm :     0.0179112 Eh/α   predicted    -0.6524161E-03 ( 181.50%)
   displ. norm   :     0.3153346 α      lambda       -0.9091079E-03
   maximum displ.:     0.1357047 α      in ANC's #12, #13, #23, ...

........................................................................
.............................. CYCLE   17 ..............................
........................................................................
   1   -188.3948201 -0.188395E+03  0.952E-02    0.19       0.0  T
   2   -188.3945342  0.285913E-03  0.672E-02    0.21       1.0  T
   3   -188.3865050  0.802926E-02  0.203E-01    0.14       1.0  T
   4   -188.3944257 -0.792075E-02  0.416E-02    0.23       1.0  T
   5   -188.3947744 -0.348677E-03  0.202E-02    0.20       1.0  T
   6   -188.3948177 -0.433414E-04  0.140E-02    0.20       1.0  T
   7   -188.3948462 -0.284993E-04  0.684E-03    0.20       1.3  T
   8   -188.3948549 -0.865174E-05  0.285E-03    0.19       3.2  T
   9   -188.3948556 -0.720411E-06  0.685E-04    0.19      13.2  T
  10   -188.3948556  0.222733E-07  0.723E-04    0.19      12.5  T
     SCC iter.                  ...        0 min,  0.117 sec
     gradient                   ...        0 min,  0.021 sec
 * total energy  :  -185.3790697 Eh     change       -0.5592290E-03 Eh
   gradient norm :     0.0098359 Eh/α   predicted    -0.4997603E-03 ( -10.63%)
   displ. norm   :     0.2707280 α      lambda       -0.7607544E-03
   maximum displ.:     0.0887644 α      in ANC's #193, #23, #12, ...

........................................................................
.............................. CYCLE   18 ..............................
........................................................................
   1   -188.4106955 -0.188411E+03  0.850E-02    0.21       0.0  T
   2   -188.4102906  0.404927E-03  0.639E-02    0.23       1.0  T
   3   -188.4064394  0.385118E-02  0.150E-01    0.17       1.0  T
   4   -188.4104665 -0.402711E-02  0.357E-02    0.24       1.0  T
   5   -188.4106900 -0.223498E-03  0.173E-02    0.22       1.0  T
   6   -188.4107445 -0.544732E-04  0.684E-03    0.22       1.3  T
   7   -188.4107471 -0.259181E-05  0.478E-03    0.21       1.9  T
   8   -188.4107490 -0.184954E-05  0.291E-03    0.21       3.1  T
   9   -188.4107499 -0.934730E-06  0.112E-03    0.21       8.0  T
     SCC iter.                  ...        0 min,  0.103 sec
     gradient                   ...        0 min,  0.019 sec
 * total energy  :  -185.3791198 Eh     change       -0.5010561E-04 Eh
   gradient norm :     0.0146149 Eh/α   predicted    -0.4082577E-03 ( 714.79%)
   displ. norm   :     0.4138676 α      lambda       -0.9006013E-03
   maximum displ.:     0.2017418 α      in ANC's #12, #13, #15, ...

........................................................................
.............................. CYCLE   19 ..............................
........................................................................
   1   -188.4038590 -0.188404E+03  0.124E-01    0.21       0.0  T
   2   -188.4037519  0.107100E-03  0.763E-02    0.22       1.0  T
   3   -188.3938104  0.994145E-02  0.224E-01    0.16       1.0  T
   4   -188.4033727 -0.956223E-02  0.466E-02    0.25       1.0  T
   5   -188.4037612 -0.388537E-03  0.235E-02    0.23       1.0  T
   6   -188.4038671 -0.105888E-03  0.973E-03    0.22       1.0  T
   7   -188.4038768 -0.968537E-05  0.548E-03    0.22       1.6  T
   8   -188.4038814 -0.467206E-05  0.276E-03    0.21       3.3  T
   9   -188.4038822 -0.731256E-06  0.107E-03    0.21       8.5  T
  10   -188.4038823 -0.920541E-07  0.434E-04    0.21      20.8  T
     SCC iter.                  ...        0 min,  0.114 sec
     gradient                   ...        0 min,  0.019 sec
 * total energy  :  -185.3796081 Eh     change       -0.4883004E-03 Eh
   gradient norm :     0.0094068 Eh/α   predicted    -0.5274336E-03 (   8.01%)
   displ. norm   :     0.3255053 α      lambda       -0.5448170E-03
   maximum displ.:     0.1227129 α      in ANC's #12, #13, #23, ...

........................................................................
.............................. CYCLE   20 ..............................
........................................................................
   1   -188.4009599 -0.188401E+03  0.930E-02    0.22       0.0  T
   2   -188.4009216  0.383590E-04  0.551E-02    0.21       1.0  T
   3   -188.3984611  0.246045E-02  0.110E-01    0.26       1.0  T
   4   -188.4009465 -0.248532E-02  0.150E-02    0.22       1.0  T
   5   -188.4009738 -0.273817E-04  0.600E-03    0.22       1.5  T
   6   -188.4009670  0.682443E-05  0.762E-03    0.21       1.2  T
   7   -188.4009769 -0.993331E-05  0.340E-03    0.22       2.7  T
   8   -188.4009788 -0.182115E-05  0.980E-04    0.22       9.2  T
   9   -188.4009789 -0.159908E-06  0.283E-04    0.22      31.9  T
     SCC iter.                  ...        0 min,  0.103 sec
     gradient                   ...        0 min,  0.019 sec
 * total energy  :  -185.3797025 Eh     change       -0.9435102E-04 Eh
   gradient norm :     0.0153871 Eh/α   predicted    -0.3012718E-03 ( 219.31%)
   displ. norm   :     0.2499592 α      lambda       -0.5093286E-03
   maximum displ.:     0.1152642 α      in ANC's #12, #13, #193, ...
 * RMSD in coord.:     0.6831092 α      energy gain  -0.4881142E-01 Eh

generating ANC from model Hessian ...
Using Lindh-Hessian (1995)
 Shifting diagonal of input Hessian by   4.993227929306269E-003
 Lowest  eigenvalues of input Hessian
   -0.000000   -0.000000   -0.000000   -0.000000    0.000000    0.000000
    0.005000    0.005015    0.005022    0.005037    0.005073    0.005089
    0.005108    0.005176    0.005199    0.005301    0.005314    0.005484
 Highest eigenvalues
    2.097833    2.132783    2.134168    2.232664    2.271982    2.640979
 

........................................................................
.............................. CYCLE   21 ..............................
........................................................................
   1   -188.3988745 -0.188399E+03  0.745E-02    0.21       0.0  T
   2   -188.3987563  0.118167E-03  0.496E-02    0.23       1.0  T
   3   -188.3934499  0.530640E-02  0.163E-01    0.17       1.0  T
   4   -188.3987945 -0.534457E-02  0.211E-02    0.23       1.0  T
   5   -188.3988662 -0.717041E-04  0.110E-02    0.22       1.0  T
   6   -188.3988852 -0.190201E-04  0.547E-03    0.22       1.6  T
   7   -188.3988893 -0.415513E-05  0.237E-03    0.21       3.8  T
   8   -188.3988900 -0.646484E-06  0.149E-03    0.21       6.1  T
   9   -188.3988902 -0.192024E-06  0.579E-04    0.21      15.6  T
  10   -188.3988902 -0.431739E-07  0.253E-04    0.21      35.6  T
     SCC iter.                  ...        0 min,  0.115 sec
     gradient                   ...        0 min,  0.020 sec
 * total energy  :  -185.3799702 Eh     change       -0.2676962E-03 Eh
   gradient norm :     0.0103980 Eh/α   predicted     0.0000000E+00 (-100.00%)
   displ. norm   :     0.1461022 α      lambda       -0.3475069E-03
   maximum displ.:     0.0994340 α      in ANC's #12, #11, #10, ...

........................................................................
.............................. CYCLE   22 ..............................
........................................................................
   1   -188.4055673 -0.188406E+03  0.396E-02    0.21       0.0  T
   2   -188.4055275  0.398458E-04  0.277E-02    0.21       1.0  T
   3   -188.4049146  0.612923E-03  0.603E-02    0.24       1.0  T
   4   -188.4055416 -0.627088E-03  0.135E-02    0.21       1.0  T
   5   -188.4055680 -0.263571E-04  0.443E-03    0.21       2.0  T
   6   -188.4055715 -0.346843E-05  0.183E-03    0.21       4.9  T
   7   -188.4055720 -0.526088E-06  0.827E-04    0.21      10.9  T
   8   -188.4055720 -0.535066E-07  0.514E-04    0.21      17.5  T
     SCC iter.                  ...        0 min,  0.092 sec
     gradient                   ...        0 min,  0.019 sec
 * total energy  :  -185.3802271 Eh     change       -0.2569667E-03 Eh
   gradient norm :     0.0042273 Eh/α   predicted    -0.1775643E-03 ( -30.90%)
   displ. norm   :     0.1373830 α      lambda       -0.1591328E-03
   maximum displ.:     0.0841530 α      in ANC's #12, #11, #10, ...

........................................................................
.............................. CYCLE   23 ..............................
........................................................................
   1   -188.4085422 -0.188409E+03  0.367E-02    0.21       0.0  T
   2   -188.4084746  0.675691E-04  0.284E-02    0.20       1.0  T
   3   -188.4079835  0.491091E-03  0.562E-02    0.23       1.0  T
   4   -188.4085277 -0.544197E-03  0.117E-02    0.21       1.0  T
   5   -188.4085470 -0.192552E-04  0.265E-03    0.21       3.4  T
   6   -188.4085468  0.170522E-06  0.264E-03    0.21       3.4  T
   7   -188.4085480 -0.116737E-05  0.113E-03    0.21       8.0  T
     SCC iter.                  ...        0 min,  0.081 sec
     gradient                   ...        0 min,  0.019 sec
 * total energy  :  -185.3803550 Eh     change       -0.1278987E-03 Eh
   gradient norm :     0.0035429 Eh/α   predicted    -0.8106853E-04 ( -36.62%)
   displ. norm   :     0.3157589 α      lambda       -0.2748617E-03
   maximum displ.:     0.1848662 α      in ANC's #12, #11, #10, ...

........................................................................
.............................. CYCLE   24 ..............................
........................................................................
   1   -188.4104466 -0.188410E+03  0.848E-02    0.20       0.0  T
   2   -188.4100070  0.439528E-03  0.684E-02    0.18       1.0  T
   3   -188.4078798  0.212723E-02  0.122E-01    0.26       1.0  T
   4   -188.4103543 -0.247450E-02  0.319E-02    0.21       1.0  T
   5   -188.4104602 -0.105887E-03  0.107E-02    0.20       1.0  T
   6   -188.4104662 -0.602115E-05  0.824E-03    0.20       1.1  T
   7   -188.4104759 -0.970689E-05  0.353E-03    0.19       2.6  T
   8   -188.4104771 -0.119627E-05  0.191E-03    0.19       4.7  T
   9   -188.4104776 -0.486392E-06  0.563E-04    0.19      16.0  T
  10   -188.4104776 -0.202319E-07  0.276E-04    0.19      32.7  T
     SCC iter.                  ...        0 min,  0.115 sec
     gradient                   ...        0 min,  0.020 sec
 * total energy  :  -185.3805641 Eh     change       -0.2090621E-03 Eh
   gradient norm :     0.0063003 Eh/α   predicted    -0.1511345E-03 ( -27.71%)
   displ. norm   :     0.4495498 α      lambda       -0.3402302E-03
   maximum displ.:     0.2638284 α      in ANC's #12, #11, #10, ...

........................................................................
.............................. CYCLE   25 ..............................
........................................................................
   1   -188.4080125 -0.188408E+03  0.121E-01    0.18       0.0  T
   2   -188.4070331  0.979350E-03  0.989E-02    0.16       1.0  T
   3   -188.4031945  0.383866E-02  0.166E-01    0.27       1.0  T
   4   -188.4076727 -0.447820E-02  0.554E-02    0.20       1.0  T
   5   -188.4079841 -0.311470E-03  0.234E-02    0.19       1.0  T
   6   -188.4080284 -0.442436E-04  0.162E-02    0.18       1.0  T
   7   -188.4080623 -0.339396E-04  0.785E-03    0.18       1.1  T
   8   -188.4080678 -0.546674E-05  0.432E-03    0.18       2.1  T
   9   -188.4080700 -0.221759E-05  0.957E-04    0.18       9.4  T
  10   -188.4080700 -0.304953E-07  0.571E-04    0.18      15.8  T
     SCC iter.                  ...        0 min,  0.114 sec
     gradient                   ...        0 min,  0.019 sec
 * total energy  :  -185.3808441 Eh     change       -0.2800372E-03 Eh
   gradient norm :     0.0068023 Eh/α   predicted    -0.2044961E-03 ( -26.98%)
   displ. norm   :     0.5017978 α      lambda       -0.3482460E-03
   maximum displ.:     0.2964725 α      in ANC's #12, #11, #10, ...

........................................................................
.............................. CYCLE   26 ..............................
........................................................................
   1   -188.4026274 -0.188403E+03  0.132E-01    0.16       0.0  T
   2   -188.4016064  0.102095E-02  0.105E-01    0.14       1.0  T
   3   -188.3964759  0.513050E-02  0.185E-01    0.27       1.0  T
   4   -188.4022256 -0.574968E-02  0.597E-02    0.19       1.0  T
   5   -188.4025871 -0.361467E-03  0.255E-02    0.17       1.0  T
   6   -188.4026318 -0.446978E-04  0.183E-02    0.17       1.0  T
   7   -188.4026780 -0.462424E-04  0.854E-03    0.16       1.1  T
   8   -188.4026850 -0.701858E-05  0.443E-03    0.16       2.0  T
   9   -188.4026871 -0.205723E-05  0.113E-03    0.16       8.0  T
  10   -188.4026870  0.910698E-07  0.123E-03    0.16       7.4  T
     SCC iter.                  ...        0 min,  0.114 sec
     gradient                   ...        0 min,  0.019 sec
 * total energy  :  -185.3811250 Eh     change       -0.2808609E-03 Eh
   gradient norm :     0.0053070 Eh/α   predicted    -0.2179712E-03 ( -22.39%)
   displ. norm   :     0.4732027 α      lambda       -0.3013149E-03
   maximum displ.:     0.2776887 α      in ANC's #12, #10, #11, ...

........................................................................
.............................. CYCLE   27 ..............................
........................................................................
   1   -188.3985745 -0.188399E+03  0.124E-01    0.15       0.0  T
   2   -188.3981114  0.463105E-03  0.870E-02    0.14       1.0  T
   3   -188.3924225  0.568891E-02  0.182E-01    0.25       1.0  T
   4   -188.3984263 -0.600376E-02  0.375E-02    0.15       1.0  T
   5   -188.3985738 -0.147577E-03  0.160E-02    0.16       1.0  T
   6   -188.3986042 -0.303099E-04  0.830E-03    0.15       1.1  T
   7   -188.3986056 -0.146118E-05  0.650E-03    0.15       1.4  T
   8   -188.3986133 -0.769195E-05  0.346E-03    0.15       2.6  T
   9   -188.3986145 -0.123144E-05  0.132E-03    0.15       6.8  T
  10   -188.3986146 -0.126084E-07  0.134E-03    0.15       6.7  T
     SCC iter.                  ...        0 min,  0.115 sec
     gradient                   ...        0 min,  0.019 sec
 * total energy  :  -185.3813551 Eh     change       -0.2301608E-03 Eh
   gradient norm :     0.0063704 Eh/α   predicted    -0.1843935E-03 ( -19.88%)
   displ. norm   :     0.4821614 α      lambda       -0.3051934E-03
   maximum displ.:     0.2780783 α      in ANC's #12, #10, #11, ...

........................................................................
.............................. CYCLE   28 ..............................
........................................................................
   1   -188.3974237 -0.188397E+03  0.123E-01    0.14       0.0  T
   2   -188.3971470  0.276709E-03  0.811E-02    0.14       1.0  T
   3   -188.3917275  0.541943E-02  0.174E-01    0.23       1.0  T
   4   -188.3967229 -0.499541E-02  0.565E-02    0.12       1.0  T
   5   -188.3973418 -0.618859E-03  0.253E-02    0.15       1.0  T
   6   -188.3974280 -0.861735E-04  0.132E-02    0.15       1.0  T
   7   -188.3974404 -0.124671E-04  0.985E-03    0.14       1.0  T
   8   -188.3974604 -0.199511E-04  0.268E-03    0.14       3.4  T
   9   -188.3974605 -0.114128E-06  0.188E-03    0.14       4.8  T
  10   -188.3974613 -0.752912E-06  0.767E-04    0.14      11.7  T
     SCC iter.                  ...        0 min,  0.114 sec
     gradient                   ...        0 min,  0.019 sec
 * total energy  :  -185.3815891 Eh     change       -0.2339566E-03 Eh
   gradient norm :     0.0090488 Eh/α   predicted    -0.1880730E-03 ( -19.61%)
   displ. norm   :     0.4339783 α      lambda       -0.3531478E-03
   maximum displ.:     0.2289206 α      in ANC's #12, #10, #11, ...

........................................................................
.............................. CYCLE   29 ..............................
........................................................................
   1   -188.4014164 -0.188401E+03  0.104E-01    0.14       0.0  T
   2   -188.4012907  0.125731E-03  0.657E-02    0.13       1.0  T
   3   -188.3973174  0.397326E-02  0.146E-01    0.20       1.0  T
   4   -188.4005209 -0.320345E-02  0.624E-02    0.11       1.0  T
   5   -188.4013815 -0.860598E-03  0.179E-02    0.14       1.0  T
   6   -188.4014209 -0.394124E-04  0.952E-03    0.14       1.0  T
   7   -188.4014278 -0.687590E-05  0.701E-03    0.14       1.3  T
   8   -188.4014381 -0.102968E-04  0.229E-03    0.14       3.9  T
   9   -188.4014385 -0.470809E-06  0.144E-03    0.14       6.2  T
  10   -188.4014390 -0.457161E-06  0.405E-04    0.14      22.2  T
     SCC iter.                  ...        0 min,  0.114 sec
     gradient                   ...        0 min,  0.019 sec
 * total energy  :  -185.3818650 Eh     change       -0.2759368E-03 Eh
   gradient norm :     0.0092107 Eh/α   predicted    -0.2098301E-03 ( -23.96%)
   displ. norm   :     0.5326430 α      lambda       -0.3674474E-03
   maximum displ.:     0.2772476 α      in ANC's #12, #10, #25, ...

........................................................................
.............................. CYCLE   30 ..............................
........................................................................
   1   -188.4032540 -0.188403E+03  0.124E-01    0.13       0.0  T
   2   -188.4031154  0.138591E-03  0.774E-02    0.13       1.0  T
   3   -188.3986489  0.446645E-02  0.157E-01    0.20       1.0  T
   4   -188.4014580 -0.280907E-02  0.875E-02    0.10       1.0  T
   5   -188.4032038 -0.174583E-02  0.216E-02    0.14       1.0  T
   6   -188.4032537 -0.499225E-04  0.121E-02    0.14       1.0  T
   7   -188.4032653 -0.115234E-04  0.885E-03    0.14       1.0  T
   8   -188.4032820 -0.167715E-04  0.258E-03    0.13       3.5  T
   9   -188.4032824 -0.376131E-06  0.178E-03    0.13       5.1  T
  10   -188.4032831 -0.715324E-06  0.467E-04    0.13      19.3  T
     SCC iter.                  ...        0 min,  0.114 sec
     gradient                   ...        0 min,  0.019 sec
 * total energy  :  -185.3821685 Eh     change       -0.3034801E-03 Eh
   gradient norm :     0.0079598 Eh/α   predicted    -0.2358539E-03 ( -22.28%)
   displ. norm   :     0.5938241 α      lambda       -0.4088896E-03
   maximum displ.:     0.3026402 α      in ANC's #12, #10, #25, ...

........................................................................
.............................. CYCLE   31 ..............................
........................................................................
   1   -188.4056671 -0.188406E+03  0.133E-01    0.13       0.0  T
   2   -188.4054673  0.199776E-03  0.843E-02    0.12       1.0  T
   3   -188.3997662  0.570106E-02  0.173E-01    0.23       1.0  T
   4   -188.4049745 -0.520830E-02  0.581E-02    0.11       1.0  T
   5   -188.4055448 -0.570229E-03  0.281E-02    0.14       1.0  T
   6   -188.4056682 -0.123467E-03  0.122E-02    0.13       1.0  T
   7   -188.4056893 -0.210849E-04  0.584E-03    0.13       1.5  T
   8   -188.4056898 -0.456377E-06  0.520E-03    0.13       1.7  T
   9   -188.4056948 -0.501818E-05  0.227E-03    0.13       4.0  T
  10   -188.4056959 -0.114592E-05  0.623E-04    0.13      14.5  T
  11   -188.4056960 -0.542677E-07  0.282E-04    0.13      32.0  T
     SCC iter.                  ...        0 min,  0.125 sec
     gradient                   ...        0 min,  0.019 sec
 * total energy  :  -185.3825015 Eh     change       -0.3329814E-03 Eh
   gradient norm :     0.0055185 Eh/α   predicted    -0.2765381E-03 ( -16.95%)
   displ. norm   :     0.7100028 α      lambda       -0.3824158E-03
   maximum displ.:     0.3776036 α      in ANC's #12, #10, #11, ...

........................................................................
.............................. CYCLE   32 ..............................
........................................................................
   1   -188.4016637 -0.188402E+03  0.162E-01    0.12       0.0  T
   2   -188.4015716  0.920479E-04  0.973E-02    0.13       1.0  T
   3   -188.3992032  0.236843E-02  0.139E-01    0.13       1.0  T
   4   -188.4014930 -0.228979E-02  0.310E-02    0.12       1.0  T
   5   -188.4015848 -0.917483E-04  0.239E-02    0.14       1.0  T
   6   -188.4016865 -0.101736E-03  0.104E-02    0.12       1.0  T
   7   -188.4016976 -0.111164E-04  0.692E-03    0.13       1.3  T
   8   -188.4017075 -0.994109E-05  0.140E-03    0.13       6.4  T
   9   -188.4017077 -0.199455E-06  0.854E-04    0.13      10.6  T
  10   -188.4017078 -0.763593E-07  0.481E-04    0.13      18.7  T
     SCC iter.                  ...        0 min,  0.114 sec
     gradient                   ...        0 min,  0.019 sec
 * total energy  :  -185.3828081 Eh     change       -0.3065637E-03 Eh
   gradient norm :     0.0062991 Eh/α   predicted    -0.2875989E-03 (  -6.19%)
   displ. norm   :     0.5699439 α      lambda       -0.5266057E-03
   maximum displ.:     0.2334205 α      in ANC's #12, #10, #7, ...

........................................................................
.............................. CYCLE   33 ..............................
........................................................................
   1   -188.4159532 -0.188416E+03  0.128E-01    0.13       0.0  T
   2   -188.4159457  0.751652E-05  0.726E-02    0.13       1.0  T
   3   -188.4128548  0.309086E-02  0.119E-01    0.10       1.0  T
   4   -188.4156506 -0.279581E-02  0.421E-02    0.15       1.0  T
   5   -188.4158710 -0.220383E-03  0.215E-02    0.12       1.0  T
   6   -188.4159555 -0.844956E-04  0.986E-03    0.13       1.0  T
   7   -188.4159690 -0.134321E-04  0.527E-03    0.13       1.7  T
   8   -188.4159741 -0.513064E-05  0.154E-03    0.13       5.9  T
   9   -188.4159744 -0.325926E-06  0.705E-04    0.13      12.8  T
  10   -188.4159745 -0.427905E-07  0.442E-04    0.13      20.4  T
     SCC iter.                  ...        0 min,  0.114 sec
     gradient                   ...        0 min,  0.019 sec
 * total energy  :  -185.3829115 Eh     change       -0.1034596E-03 Eh
   gradient norm :     0.0117895 Eh/α   predicted    -0.3488344E-03 ( 237.17%)
   displ. norm   :     0.5113857 α      lambda       -0.5808250E-03
   maximum displ.:     0.2941242 α      in ANC's #12, #10, #11, ...

........................................................................
.............................. CYCLE   34 ..............................
........................................................................
   1   -188.4030916 -0.188403E+03  0.118E-01    0.13       0.0  T
   2   -188.4025432  0.548466E-03  0.878E-02    0.11       1.0  T
   3   -188.3982327  0.431052E-02  0.159E-01    0.22       1.0  T
   4   -188.4012440 -0.301137E-02  0.100E-01    0.10       1.0  T
   5   -188.4027490 -0.150495E-02  0.448E-02    0.15       1.0  T
   6   -188.4029881 -0.239105E-03  0.283E-02    0.14       1.0  T
   7   -188.4030695 -0.814493E-04  0.198E-02    0.13       1.0  T
   8   -188.4031386 -0.690474E-04  0.846E-03    0.13       1.1  T
   9   -188.4031502 -0.116635E-04  0.175E-03    0.13       5.1  T
  10   -188.4031506 -0.403703E-06  0.106E-03    0.13       8.5  T
  11   -188.4031508 -0.149324E-06  0.448E-04    0.13      20.1  T
     SCC iter.                  ...        0 min,  0.130 sec
     gradient                   ...        0 min,  0.021 sec
 * total energy  :  -185.3832587 Eh     change       -0.3471802E-03 Eh
   gradient norm :     0.0067462 Eh/α   predicted    -0.3663635E-03 (   5.53%)
   displ. norm   :     0.4875450 α      lambda       -0.2039726E-03
   maximum displ.:     0.2545463 α      in ANC's #12, #10, #7, ...

........................................................................
.............................. CYCLE   35 ..............................
........................................................................
   1   -188.3991812 -0.188399E+03  0.109E-01    0.12       0.0  T
   2   -188.3990280  0.153204E-03  0.692E-02    0.13       1.0  T
   3   -188.3864343  0.125937E-01  0.252E-01    0.06       1.0  T
   4   -188.3969260 -0.104916E-01  0.108E-01    0.17       1.0  T
   5   -188.3991369 -0.221096E-02  0.222E-02    0.13       1.0  T
   6   -188.3991499 -0.129333E-04  0.181E-02    0.13       1.0  T
   7   -188.3991854 -0.355487E-04  0.121E-02    0.13       1.0  T
   8   -188.3992124 -0.269833E-04  0.477E-03    0.13       1.9  T
   9   -188.3992152 -0.278249E-05  0.212E-03    0.12       4.2  T
  10   -188.3992154 -0.235435E-06  0.147E-03    0.12       6.1  T
     SCC iter.                  ...        0 min,  0.114 sec
     gradient                   ...        0 min,  0.019 sec
 * total energy  :  -185.3834065 Eh     change       -0.1478020E-03 Eh
   gradient norm :     0.0077015 Eh/α   predicted    -0.1262363E-03 ( -14.59%)
   displ. norm   :     0.3645308 α      lambda       -0.3485227E-03
   maximum displ.:     0.1719254 α      in ANC's #12, #7, #10, ...

........................................................................
.............................. CYCLE   36 ..............................
........................................................................
   1   -188.4044212 -0.188404E+03  0.822E-02    0.12       0.0  T
   2   -188.4042764  0.144810E-03  0.565E-02    0.12       1.0  T
   3   -188.4038500  0.426343E-03  0.750E-02    0.13       1.0  T
   4   -188.4037866  0.634705E-04  0.560E-02    0.10       1.0  T
   5   -188.4044091 -0.622563E-03  0.168E-02    0.13       1.0  T
   6   -188.4044675 -0.583277E-04  0.294E-03    0.12       3.1  T
   7   -188.4044657  0.175732E-05  0.367E-03    0.12       2.5  T
   8   -188.4044679 -0.220700E-05  0.152E-03    0.12       5.9  T
   9   -188.4044683 -0.355998E-06  0.684E-04    0.12      13.2  T
     SCC iter.                  ...        0 min,  0.103 sec
     gradient                   ...        0 min,  0.019 sec
 * total energy  :  -185.3836418 Eh     change       -0.2352932E-03 Eh
   gradient norm :     0.0080952 Eh/α   predicted    -0.1974223E-03 ( -16.10%)
   displ. norm   :     0.5670418 α      lambda       -0.3114719E-03
   maximum displ.:     0.2816339 α      in ANC's #12, #7, #10, ...

........................................................................
.............................. CYCLE   37 ..............................
........................................................................
   1   -188.4043714 -0.188404E+03  0.125E-01    0.13       0.0  T
   2   -188.4039761  0.395281E-03  0.892E-02    0.12       1.0  T
   3   -188.4029636  0.101252E-02  0.120E-01    0.12       1.0  T
   4   -188.4021881  0.775452E-03  0.999E-02    0.18       1.0  T
   5   -188.4044771 -0.228896E-02  0.112E-02    0.13       1.0  T
   6   -188.4044861 -0.904232E-05  0.647E-03    0.13       1.4  T
   7   -188.4044893 -0.320400E-05  0.443E-03    0.12       2.0  T
   8   -188.4044902 -0.929648E-06  0.371E-03    0.12       2.4  T
   9   -188.4044931 -0.289264E-05  0.884E-04    0.12      10.2  T
  10   -188.4044932 -0.393882E-07  0.720E-04    0.12      12.5  T
     SCC iter.                  ...        0 min,  0.115 sec
     gradient                   ...        0 min,  0.019 sec
 * total energy  :  -185.3838333 Eh     change       -0.1915437E-03 Eh
   gradient norm :     0.0115502 Eh/α   predicted    -0.2058109E-03 (   7.45%)
   displ. norm   :     0.4805900 α      lambda       -0.3569624E-03
   maximum displ.:     0.2238017 α      in ANC's #12, #7, #10, ...

........................................................................
.............................. CYCLE   38 ..............................
........................................................................
   1   -188.4087671 -0.188409E+03  0.112E-01    0.13       0.0  T
   2   -188.4076524  0.111472E-02  0.103E-01    0.15       1.0  T
   3   -188.3987749  0.887751E-02  0.234E-01    0.08       1.0  T
   4   -188.4071988 -0.842395E-02  0.983E-02    0.19       1.0  T
   5   -188.4086120 -0.141314E-02  0.432E-02    0.15       1.0  T
   6   -188.4087335 -0.121579E-03  0.334E-02    0.14       1.0  T
   7   -188.4088376 -0.104029E-03  0.245E-02    0.14       1.0  T
   8   -188.4089278 -0.901884E-04  0.126E-02    0.13       1.0  T
   9   -188.4089499 -0.221721E-04  0.587E-03    0.13       1.5  T
  10   -188.4089547 -0.481536E-05  0.293E-03    0.13       3.1  T
  11   -188.4089561 -0.135937E-05  0.944E-04    0.13       9.6  T
  12   -188.4089562 -0.137002E-06  0.212E-04    0.13      42.5  T
     SCC iter.                  ...        0 min,  0.136 sec
     gradient                   ...        0 min,  0.019 sec
 * total energy  :  -185.3840964 Eh     change       -0.2630998E-03 Eh
   gradient norm :     0.0111531 Eh/α   predicted    -0.2197093E-03 ( -16.49%)
   displ. norm   :     0.5946426 α      lambda       -0.4532639E-03
   maximum displ.:     0.2815310 α      in ANC's #12, #7, #2, ...

........................................................................
.............................. CYCLE   39 ..............................
........................................................................
   1   -188.4110295 -0.188411E+03  0.159E-01    0.15       0.0  T
   2   -188.4052820  0.574753E-02  0.198E-01    0.23       1.0  T
   3   -188.3922229  0.130591E-01  0.320E-01    0.09       1.0  T
   4   -188.4096565 -0.174336E-01  0.109E-01    0.23       1.0  T
   5   -188.4095849  0.716037E-04  0.101E-01    0.19       1.0  T
   6   -188.4106541 -0.106914E-02  0.723E-02    0.19       1.0  T
   7   -188.4111842 -0.530083E-03  0.519E-02    0.18       1.0  T
   8   -188.4112930 -0.108815E-03  0.455E-02    0.17       1.0  T
   9   -188.4115600 -0.267021E-03  0.255E-02    0.16       1.0  T
  10   -188.4116591 -0.990569E-04  0.104E-02    0.15       1.0  T
  11   -188.4116778 -0.187460E-04  0.288E-03    0.15       3.1  T
  12   -188.4116788 -0.100815E-05  0.114E-03    0.15       7.9  T
  13   -188.4116790 -0.205809E-06  0.311E-04    0.15      29.0  T
     SCC iter.                  ...        0 min,  0.147 sec
     gradient                   ...        0 min,  0.019 sec
 * total energy  :  -185.3844432 Eh     change       -0.3467931E-03 Eh
   gradient norm :     0.0115854 Eh/α   predicted    -0.3067749E-03 ( -11.54%)
   displ. norm   :     0.6392446 α      lambda       -0.5842167E-03
   maximum displ.:     0.3221323 α      in ANC's #12, #7, #2, ...

........................................................................
.............................. CYCLE   40 ..............................
........................................................................
   1   -188.4120385 -0.188412E+03  0.184E-01    0.20       0.0  T
   2   -188.4027977  0.924076E-02  0.250E-01    0.32       1.0  T
   3   -188.4034903 -0.692509E-03  0.243E-01    0.16       1.0  T
   4   -188.4103645 -0.687428E-02  0.113E-01    0.29       1.0  T
   5   -188.4122427 -0.187821E-02  0.681E-02    0.23       1.0  T
   6   -188.4127411 -0.498401E-03  0.462E-02    0.23       1.0  T
   7   -188.4129450 -0.203863E-03  0.319E-02    0.22       1.0  T
   8   -188.4130105 -0.655075E-04  0.256E-02    0.21       1.0  T
   9   -188.4131225 -0.112016E-03  0.550E-03    0.20       1.6  T
  10   -188.4131270 -0.448846E-05  0.187E-03    0.20       4.8  T
  11   -188.4131274 -0.352724E-06  0.842E-04    0.20      10.7  T
  12   -188.4131273  0.124925E-06  0.112E-03    0.20       8.1  T
     SCC iter.                  ...        0 min,  0.137 sec
     gradient                   ...        0 min,  0.019 sec
 * total energy  :  -185.3848210 Eh     change       -0.3777267E-03 Eh
   gradient norm :     0.0100309 Eh/α   predicted    -0.4114748E-03 (   8.93%)
   displ. norm   :     0.4566360 α      lambda       -0.3775282E-03
   maximum displ.:     0.2429835 α      in ANC's #12, #7, #10, ...

........................................................................
.............................. CYCLE   41 ..............................
........................................................................
   1   -188.4059105 -0.188406E+03  0.105E-01    0.23       0.0  T
   2   -188.4039782  0.193233E-02  0.121E-01    0.28       1.0  T
   3   -188.4024906  0.148760E-02  0.150E-01    0.20       1.0  T
   4   -188.4052065 -0.271593E-02  0.653E-02    0.27       1.0  T
   5   -188.4058852 -0.678680E-03  0.324E-02    0.25       1.0  T
   6   -188.4060691 -0.183907E-03  0.134E-02    0.24       1.0  T
   7   -188.4060880 -0.189233E-04  0.817E-03    0.24       1.1  T
   8   -188.4060924 -0.436470E-05  0.568E-03    0.24       1.6  T
   9   -188.4060972 -0.476166E-05  0.202E-03    0.24       4.5  T
  10   -188.4060977 -0.526235E-06  0.563E-04    0.24      16.0  T
  11   -188.4060977 -0.109303E-07  0.224E-04    0.24      40.2  T
     SCC iter.                  ...        0 min,  0.125 sec
     gradient                   ...        0 min,  0.019 sec
 * total energy  :  -185.3848793 Eh     change       -0.5832439E-04 Eh
   gradient norm :     0.0111513 Eh/α   predicted    -0.2281247E-03 ( 291.13%)
   displ. norm   :     0.3095584 α      lambda       -0.4213467E-03
   maximum displ.:     0.1345632 α      in ANC's #12, #10, #11, ...

........................................................................
.............................. CYCLE   42 ..............................
........................................................................
   1   -188.4180555 -0.188418E+03  0.633E-02    0.23       0.0  T
   2   -188.4180244  0.311924E-04  0.391E-02    0.24       1.0  T
   3   -188.4158061  0.221822E-02  0.111E-01    0.21       1.0  T
   4   -188.4179723 -0.216616E-02  0.237E-02    0.24       1.0  T
   5   -188.4180493 -0.770257E-04  0.907E-03    0.24       1.0  T
   6   -188.4180626 -0.132503E-04  0.359E-03    0.24       2.5  T
   7   -188.4180640 -0.145488E-05  0.186E-03    0.24       4.8  T
   8   -188.4180644 -0.357496E-06  0.742E-04    0.23      12.2  T
     SCC iter.                  ...        0 min,  0.092 sec
     gradient                   ...        0 min,  0.019 sec
 * total energy  :  -185.3849817 Eh     change       -0.1023722E-03 Eh
   gradient norm :     0.0128800 Eh/α   predicted    -0.2308604E-03 ( 125.51%)
   displ. norm   :     0.2523021 α      lambda       -0.4674974E-03
   maximum displ.:     0.0900224 α      in ANC's #12, #10, #11, ...
 * RMSD in coord.:     0.7882590 α      energy gain  -0.5279196E-02 Eh

generating ANC from model Hessian ...
Using Lindh-Hessian (1995)
 Shifting diagonal of input Hessian by   4.992679909889304E-003
 Lowest  eigenvalues of input Hessian
   -0.000000   -0.000000    0.000000    0.000000    0.000000    0.000000
    0.005000    0.005014    0.005021    0.005036    0.005074    0.005087
    0.005112    0.005178    0.005202    0.005288    0.005318    0.005506
 Highest eigenvalues
    2.099050    2.133146    2.137226    2.233932    2.273691    2.641120
 

........................................................................
.............................. CYCLE   43 ..............................
........................................................................
   1   -188.4051931 -0.188405E+03  0.730E-02    0.21       0.0  T
   2   -188.4029024  0.229073E-02  0.119E-01    0.18       1.0  T
   3   -188.4040404 -0.113809E-02  0.911E-02    0.24       1.0  T
   4   -188.4050303 -0.989833E-03  0.433E-02    0.21       1.0  T
   5   -188.4052665 -0.236193E-03  0.162E-02    0.21       1.0  T
   6   -188.4052998 -0.333374E-04  0.713E-03    0.21       1.3  T
   7   -188.4053043 -0.448862E-05  0.459E-03    0.21       2.0  T
   8   -188.4053069 -0.261993E-05  0.185E-03    0.21       4.9  T
   9   -188.4053070 -0.795068E-07  0.135E-03    0.21       6.7  T
  10   -188.4053073 -0.331082E-06  0.278E-04    0.21      32.5  T
  11   -188.4053073 -0.480230E-08  0.151E-04    0.21      59.6  T
     SCC iter.                  ...        0 min,  0.125 sec
     gradient                   ...        0 min,  0.020 sec
 * total energy  :  -185.3848214 Eh     change        0.1602136E-03 Eh
   gradient norm :     0.0166177 Eh/α   predicted     0.0000000E+00 (-100.00%)
   displ. norm   :     0.1036593 α      lambda       -0.5726839E-03
   maximum displ.:     0.0502772 α      in ANC's #12, #29, #23, ...

........................................................................
.............................. CYCLE   44 ..............................
........................................................................
   1   -188.4116480 -0.188412E+03  0.260E-02    0.21       0.0  T
   2   -188.4116243  0.237141E-04  0.185E-02    0.21       1.0  T
   3   -188.4113997  0.224653E-03  0.381E-02    0.20       1.0  T
   4   -188.4115638 -0.164148E-03  0.220E-02    0.22       1.0  T
   5   -188.4116485 -0.847412E-04  0.563E-03    0.21       1.6  T
   6   -188.4116528 -0.428006E-05  0.185E-03    0.21       4.9  T
   7   -188.4116532 -0.377414E-06  0.819E-04    0.21      11.0  T
   8   -188.4116533 -0.450085E-07  0.408E-04    0.21      22.1  T
     SCC iter.                  ...        0 min,  0.092 sec
     gradient                   ...        0 min,  0.020 sec
 * total energy  :  -185.3851745 Eh     change       -0.3530296E-03 Eh
   gradient norm :     0.0040604 Eh/α   predicted    -0.2895280E-03 ( -17.99%)
   displ. norm   :     0.0759227 α      lambda       -0.7907039E-04
   maximum displ.:     0.0389487 α      in ANC's #12, #29, #27, ...

........................................................................
.............................. CYCLE   45 ..............................
........................................................................
   1   -188.4133742 -0.188413E+03  0.197E-02    0.21       0.0  T
   2   -188.4133685  0.571091E-05  0.127E-02    0.21       1.0  T
   3   -188.4132158  0.152681E-03  0.292E-02    0.21       1.0  T
   4   -188.4133521 -0.136275E-03  0.112E-02    0.22       1.0  T
   5   -188.4133748 -0.227300E-04  0.231E-03    0.21       3.9  T
   6   -188.4133754 -0.588898E-06  0.977E-04    0.21       9.2  T
   7   -188.4133755 -0.537531E-07  0.585E-04    0.21      15.4  T
     SCC iter.                  ...        0 min,  0.081 sec
     gradient                   ...        0 min,  0.019 sec
 * total energy  :  -185.3852281 Eh     change       -0.5360509E-04 Eh
   gradient norm :     0.0016694 Eh/α   predicted    -0.3978338E-04 ( -25.78%)
   displ. norm   :     0.1840858 α      lambda       -0.6923460E-04
   maximum displ.:     0.0947988 α      in ANC's #12, #27, #29, ...

........................................................................
.............................. CYCLE   46 ..............................
........................................................................
   1   -188.4145257 -0.188415E+03  0.456E-02    0.22       0.0  T
   2   -188.4145128  0.129391E-04  0.277E-02    0.22       1.0  T
   3   -188.4136579  0.854936E-03  0.683E-02    0.20       1.0  T
   4   -188.4144690 -0.811129E-03  0.179E-02    0.22       1.0  T
   5   -188.4145280 -0.590148E-04  0.341E-03    0.22       2.6  T
   6   -188.4145290 -0.102116E-05  0.191E-03    0.22       4.7  T
   7   -188.4145292 -0.195974E-06  0.104E-03    0.22       8.7  T
   8   -188.4145294 -0.163643E-06  0.265E-04    0.22      34.0  T
   9   -188.4145294 -0.546979E-08  0.156E-04    0.22      57.9  T
     SCC iter.                  ...        0 min,  0.103 sec
     gradient                   ...        0 min,  0.020 sec
 * total energy  :  -185.3852832 Eh     change       -0.5510625E-04 Eh
   gradient norm :     0.0055287 Eh/α   predicted    -0.3513891E-04 ( -36.23%)
   displ. norm   :     0.1577961 α      lambda       -0.8742788E-04
   maximum displ.:     0.0799110 α      in ANC's #12, #27, #29, ...

........................................................................
.............................. CYCLE   47 ..............................
........................................................................
   1   -188.4140190 -0.188414E+03  0.396E-02    0.22       0.0  T
   2   -188.4140175  0.147190E-05  0.230E-02    0.22       1.0  T
   3   -188.4137298  0.287790E-03  0.399E-02    0.21       1.0  T
   4   -188.4140136 -0.283829E-03  0.634E-03    0.22       1.4  T
   5   -188.4140186 -0.503639E-05  0.369E-03    0.22       2.4  T
   6   -188.4140204 -0.175912E-05  0.172E-03    0.22       5.2  T
   7   -188.4140208 -0.373256E-06  0.537E-04    0.22      16.8  T
     SCC iter.                  ...        0 min,  0.081 sec
     gradient                   ...        0 min,  0.019 sec
 * total energy  :  -185.3853470 Eh     change       -0.6378248E-04 Eh
   gradient norm :     0.0057432 Eh/α   predicted    -0.4480813E-04 ( -29.75%)
   displ. norm   :     0.2543405 α      lambda       -0.1262984E-03
   maximum displ.:     0.1305209 α      in ANC's #12, #27, #7, ...

........................................................................
.............................. CYCLE   48 ..............................
........................................................................
   1   -188.4122750 -0.188412E+03  0.609E-02    0.22       0.0  T
   2   -188.4122740  0.941205E-06  0.350E-02    0.22       1.0  T
   3   -188.4118169  0.457091E-03  0.511E-02    0.21       1.0  T
   4   -188.4122722 -0.455219E-03  0.643E-03    0.22       1.4  T
   5   -188.4122718  0.383320E-06  0.620E-03    0.22       1.5  T
   6   -188.4122777 -0.595181E-05  0.236E-03    0.22       3.8  T
   7   -188.4122786 -0.817550E-06  0.900E-04    0.22      10.0  T
   8   -188.4122787 -0.126433E-06  0.181E-04    0.22      49.7  T
     SCC iter.                  ...        0 min,  0.092 sec
     gradient                   ...        0 min,  0.019 sec
 * total energy  :  -185.3854393 Eh     change       -0.9231376E-04 Eh
   gradient norm :     0.0039224 Eh/α   predicted    -0.6723536E-04 ( -27.17%)
   displ. norm   :     0.3150474 α      lambda       -0.1216987E-03
   maximum displ.:     0.1652114 α      in ANC's #12, #27, #7, ...

........................................................................
.............................. CYCLE   49 ..............................
........................................................................
   1   -188.4105220 -0.188411E+03  0.736E-02    0.22       0.0  T
   2   -188.4105205  0.155957E-05  0.421E-02    0.22       1.0  T
   3   -188.4100527  0.467732E-03  0.518E-02    0.21       1.0  T
   4   -188.4105014 -0.448676E-03  0.122E-02    0.22       1.0  T
   5   -188.4105196 -0.182316E-04  0.700E-03    0.22       1.3  T
   6   -188.4105268 -0.716325E-05  0.239E-03    0.22       3.8  T
   7   -188.4105275 -0.707295E-06  0.929E-04    0.22       9.7  T
   8   -188.4105276 -0.112378E-06  0.229E-04    0.22      39.4  T
     SCC iter.                  ...        0 min,  0.092 sec
     gradient                   ...        0 min,  0.020 sec
 * total energy  :  -185.3855232 Eh     change       -0.8389181E-04 Eh
   gradient norm :     0.0035754 Eh/α   predicted    -0.6688926E-04 ( -20.27%)
   displ. norm   :     0.2866283 α      lambda       -0.9240071E-04
   maximum displ.:     0.1538554 α      in ANC's #12, #7, #27, ...

........................................................................
.............................. CYCLE   50 ..............................
........................................................................
   1   -188.4102812 -0.188410E+03  0.658E-02    0.22       0.0  T
   2   -188.4102815 -0.306979E-06  0.376E-02    0.22       1.0  T
   3   -188.4101081  0.173457E-03  0.302E-02    0.22       1.0  T
   4   -188.4102786 -0.170492E-03  0.691E-03    0.22       1.3  T
   5   -188.4102683  0.102357E-04  0.100E-02    0.22       1.0  T
   6   -188.4102847 -0.163853E-04  0.206E-03    0.22       4.4  T
   7   -188.4102853 -0.589824E-06  0.604E-04    0.22      14.9  T
   8   -188.4102854 -0.459864E-07  0.194E-04    0.22      46.4  T
     SCC iter.                  ...        0 min,  0.092 sec
     gradient                   ...        0 min,  0.020 sec
 * total energy  :  -185.3855963 Eh     change       -0.7309957E-04 Eh
   gradient norm :     0.0037141 Eh/α   predicted    -0.5000318E-04 ( -31.60%)
   displ. norm   :     0.3431915 α      lambda       -0.1126603E-03
   maximum displ.:     0.1864433 α      in ANC's #12, #7, #27, ...

........................................................................
.............................. CYCLE   51 ..............................
........................................................................
   1   -188.4114325 -0.188411E+03  0.783E-02    0.22       0.0  T
   2   -188.4114314  0.110635E-05  0.449E-02    0.22       1.0  T
   3   -188.4109705  0.460855E-03  0.499E-02    0.23       1.0  T
   4   -188.4114201 -0.449576E-03  0.108E-02    0.21       1.0  T
   5   -188.4114241 -0.398328E-05  0.909E-03    0.22       1.0  T
   6   -188.4114369 -0.127463E-04  0.285E-03    0.22       3.2  T
   7   -188.4114379 -0.101752E-05  0.618E-04    0.22      14.6  T
   8   -188.4114379 -0.394014E-07  0.219E-04    0.22      41.1  T
   9   -188.4114379 -0.113704E-08  0.149E-04    0.22      60.4  T
     SCC iter.                  ...        0 min,  0.103 sec
     gradient                   ...        0 min,  0.020 sec
 * total energy  :  -185.3856878 Eh     change       -0.9149653E-04 Eh
   gradient norm :     0.0038416 Eh/α   predicted    -0.6296550E-04 ( -31.18%)
   displ. norm   :     0.4307490 α      lambda       -0.1238484E-03
   maximum displ.:     0.2367290 α      in ANC's #12, #7, #9, ...

........................................................................
.............................. CYCLE   52 ..............................
........................................................................
   1   -188.4116172 -0.188412E+03  0.972E-02    0.21       0.0  T
   2   -188.4116145  0.272519E-05  0.558E-02    0.21       1.0  T
   3   -188.4107160  0.898466E-03  0.713E-02    0.24       1.0  T
   4   -188.4116227 -0.906716E-03  0.597E-03    0.21       1.5  T
   5   -188.4116200  0.271439E-05  0.529E-03    0.21       1.7  T
   6   -188.4116219 -0.187876E-05  0.375E-03    0.21       2.4  T
   7   -188.4116245 -0.261293E-05  0.704E-04    0.21      12.8  T
   8   -188.4116246 -0.567208E-07  0.242E-04    0.21      37.3  T
   9   -188.4116246 -0.188990E-08  0.132E-04    0.21      68.5  T
     SCC iter.                  ...        0 min,  0.103 sec
     gradient                   ...        0 min,  0.020 sec
 * total energy  :  -185.3857895 Eh     change       -0.1017608E-03 Eh
   gradient norm :     0.0037423 Eh/α   predicted    -0.7341862E-04 ( -27.85%)
   displ. norm   :     0.4644753 α      lambda       -0.1321194E-03
   maximum displ.:     0.2558454 α      in ANC's #12, #7, #9, ...

........................................................................
.............................. CYCLE   53 ..............................
........................................................................
   1   -188.4127452 -0.188413E+03  0.105E-01    0.21       0.0  T
   2   -188.4127410  0.425332E-05  0.599E-02    0.21       1.0  T
   3   -188.4116573  0.108367E-02  0.794E-02    0.24       1.0  T
   4   -188.4127495 -0.109216E-02  0.725E-03    0.21       1.2  T
   5   -188.4127396  0.987754E-05  0.909E-03    0.21       1.0  T
[...]
    90   1 H      0.925     0.043     2.416     2.431
    91   1 H      0.926     0.027     2.636     2.539
    92   1 H      0.926     0.032     2.553     2.499
    93   1 H      0.926     0.032     2.562     2.503
    94   1 H      0.924     0.032     2.555     2.500
    95   1 H      0.924     0.034     2.535     2.490
    96   1 H      0.925     0.035     2.511     2.478
    97   1 H      0.925     0.035     2.510     2.478
    98   1 H      0.925     0.036     2.502     2.473
    99   1 H      0.924     0.034     2.529     2.487
   100   1 H      0.924     0.030     2.586     2.515
   101   1 H      0.925     0.037     2.489     2.467
   102   1 H      0.925     0.034     2.531     2.488
   103   1 H      0.925     0.033     2.540     2.493
   104   1 H      0.925     0.027     2.625     2.534
   105   1 H      0.926     0.036     2.505     2.475
   106   1 H      0.926     0.031     2.570     2.507
   107   1 H      0.925     0.034     2.532     2.488
   108   1 H      0.925     0.047     2.362     2.403
   109   1 H      0.925     0.040     2.450     2.448
   110   1 H      0.926     0.038     2.476     2.461
   111   1 H      0.926     0.036     2.497     2.471
   112   1 H      0.926     0.036     2.497     2.471
   113   1 H      0.926     0.038     2.479     2.462
   114   1 H      0.925     0.042     2.421     2.433
   115   1 H      0.926     0.034     2.526     2.486
   116   1 H      0.925     0.039     2.461     2.453
   117   1 H      0.926     0.032     2.561     2.503
   118   1 H      0.926     0.037     2.482     2.464
   119   1 H      0.926     0.040     2.446     2.446
   120   1 H      0.926     0.046     2.371     2.408
   121   1 H      0.925     0.032     2.551     2.498
   122   1 H      0.926     0.039     2.467     2.456
   123   1 H      0.926     0.034     2.526     2.485

 Mol. C6AA /au·bohr⁶  :     211258.120094
 Mol. C8AA /au·bohr⁸  :    5518033.470694
 Mol. α(0) /au        :        733.160193


Wiberg/Mayer (AO) data.
largest (>0.10) Wiberg bond orders for each atom
          total WBO             WBO to atom ...
     1  C   3.955        C    7 1.483    N    2 1.270    H   70 0.969    N    5 0.156
     2  N   3.667        C    1 1.270    N    5 1.203    C    3 0.990
     3  C   3.972        C    4 1.005    N    2 0.990    H   72 0.970    H   71 0.970
     4  C   3.993        C    3 1.005    H   73 0.987    H   75 0.987    H   74 0.984
     5  N   2.955        C    6 1.475    N    2 1.203    C    1 0.156
     6  C   3.973        N    5 1.475    C    7 1.317    C   10 1.014
     7  C   3.975        C    1 1.483    C    6 1.317    C    8 1.017
     8  C   3.998        C    7 1.017    C    9 1.004    H   77 0.977    H   76 0.970
     9  C   3.996        C    8 1.004    H   80 0.989    H   79 0.987    H   78 0.986
    10  C   3.990        C    6 1.014    H   82 0.974    H   81 0.970    C   11 0.966
    11  C   3.993        C   12 1.034    H   83 0.974    C   10 0.966    H   84 0.961
    12  C   3.942        C   13 1.794    C   11 1.034    H   85 0.963
    13  C   3.949        C   12 1.794    N   14 1.108    H   86 0.949
    14  N   3.509        C   15 1.231    C   13 1.108    H   87 0.919
    15  C   3.935        C   22 1.314    N   14 1.231    S   16 1.172
    16  S   2.614        C   15 1.172    C   17 1.080
    17  C   3.897        C   21 1.460    S   16 1.080    N   18 1.079
    18  N   3.900        O   19 1.387    O   20 1.382    C   17 1.079
    19  O   1.862        N   18 1.387    O   20 0.311
    20  O   1.873        N   18 1.382    O   19 0.311
    21  C   3.970        C   17 1.460    C   22 1.320    H   88 0.956
    22  C   3.970        C   21 1.320    C   15 1.314    C   23 1.116
    23  C   3.974        C   24 1.747    C   22 1.116    H   89 0.954
    24  C   3.967        C   23 1.747    C   25 1.114    H   90 0.960
    25  C   3.961        C   30 1.360    C   26 1.342    C   24 1.114
    26  C   3.977        C   27 1.475    C   25 1.342    H   91 0.964
    27  C   3.976        C   26 1.475    C   28 1.305    C   33 0.988
    28  C   3.975        C   29 1.375    C   27 1.305    C   31 1.102
    29  C   3.972        C   30 1.468    C   28 1.375    H   92 0.968
    30  C   3.975        C   29 1.468    C   25 1.360    H   93 0.969
    31  C   3.952        C   41 1.366    C   32 1.301    C   28 1.102
    32  C   3.979        C   38 1.484    C   31 1.301    C   33 0.988
    33  C   3.989        C   27 0.988    C   32 0.988    C   36 0.962    C   34 0.960
    34  C   3.996        C   35 1.020    H   94 0.976    H   95 0.975    C   33 0.960
    35  C   3.996        C   34 1.020    H   97 0.987    H   96 0.986    H   98 0.986
    36  C   3.996        C   37 1.020    H  100 0.975    H   99 0.975    C   33 0.962
    37  C   3.996        C   36 1.020    H  102 0.987    H  103 0.986    H  101 0.986
    38  C   3.956        C   32 1.484    C   39 1.321    H  104 0.966
    39  C   3.963        C   40 1.335    C   38 1.321    C   42 1.163
    40  C   3.953        C   41 1.483    C   39 1.335    H  105 0.966
    41  C   3.975        C   40 1.483    C   31 1.366    H  106 0.968
    42  C   3.858        C   43 1.600    C   39 1.163    H  107 0.962
    43  C   3.977        C   42 1.600    C   44 1.280    H  108 0.951
    44  C   3.870        C   45 1.467    C   43 1.280    H  109 0.957
    45  C   3.924        C   44 1.467    C   46 1.239    S   49 1.072
    46  C   3.918        C   47 1.570    C   45 1.239    H  110 0.964
    47  C   3.947        C   46 1.570    C   48 1.259    H  111 0.963
    48  C   3.909        C   50 1.374    C   47 1.259    S   49 1.089
    49  S   2.453        C   48 1.089    C   45 1.072
    50  C   3.912        C   48 1.374    C   51 1.254    S   54 1.096
    51  C   3.948        C   52 1.576    C   50 1.254    H  112 0.963
    52  C   3.920        C   51 1.576    C   53 1.234    H  113 0.964
    53  C   3.926        C   55 1.478    C   52 1.234    S   54 1.068
    54  S   2.469        C   50 1.096    C   53 1.068
    55  C   3.880        C   53 1.478    C   56 1.248    H  114 0.957
    56  C   3.964        C   67 1.394    C   55 1.248    C   57 1.175
    57  C   3.853        C   58 1.469    C   56 1.175    H  115 0.972
    58  C   3.967        C   57 1.469    C   59 1.236    C   66 1.105
    59  C   3.952        C   60 1.522    C   58 1.236    H  116 0.965
    60  C   3.968        C   59 1.522    C   61 1.174    C   64 1.105
    61  C   3.920        C   62 1.497    C   60 1.174    H  117 0.972
    62  C   3.953        C   61 1.497    C   63 1.199    C   68 1.121
    63  C   3.825        C   64 1.434    C   62 1.199    H  118 0.971
    64  C   3.970        C   63 1.434    C   65 1.269    C   60 1.105
    65  C   3.900        C   66 1.464    C   64 1.269    H  119 0.965
    66  C   3.972        C   65 1.464    C   67 1.229    C   58 1.105
    67  C   3.819        C   56 1.394    C   66 1.229    H  120 0.962
    68  C   3.990        C   69 1.869    C   62 1.121    H  121 0.965
    69  C   3.942        C   68 1.869    H  123 0.979    H  122 0.975
    70  H   0.999        C    1 0.969
    71  H   0.997        C    3 0.970
    72  H   0.995        C    3 0.970
    73  H   0.998        C    4 0.987
    74  H   0.997        C    4 0.984
    75  H   0.997        C    4 0.987
    76  H   0.999        C    8 0.970
    77  H   0.999        C    8 0.977
    78  H   0.999        C    9 0.986
    79  H   0.998        C    9 0.987
    80  H   0.999        C    9 0.989
    81  H   0.998        C   10 0.970
    82  H   0.998        C   10 0.974
    83  H   0.998        C   11 0.974
    84  H   0.992        C   11 0.961
    85  H   0.998        C   12 0.963
    86  H   0.996        C   13 0.949
    87  H   0.965        N   14 0.919
    88  H   0.993        C   21 0.956
    89  H   0.999        C   23 0.954
    90  H   0.997        C   24 0.960
    91  H   0.999        C   26 0.964
    92  H   0.998        C   29 0.968
    93  H   0.998        C   30 0.969
    94  H   0.998        C   34 0.976
    95  H   0.998        C   34 0.975
    96  H   0.999        C   35 0.986
    97  H   0.998        C   35 0.987
    98  H   0.999        C   35 0.986
    99  H   0.998        C   36 0.975
   100  H   0.998        C   36 0.975
   101  H   0.999        C   37 0.986
   102  H   0.998        C   37 0.987
   103  H   0.999        C   37 0.986
   104  H   0.999        C   38 0.966
   105  H   0.998        C   40 0.966
   106  H   0.998        C   41 0.968
   107  H   0.998        C   42 0.962
   108  H   0.998        C   43 0.951
   109  H   0.998        C   44 0.957
   110  H   0.998        C   46 0.964
   111  H   0.998        C   47 0.963
   112  H   0.998        C   51 0.963
   113  H   0.998        C   52 0.964
   114  H   0.997        C   55 0.957
   115  H   0.998        C   57 0.972
   116  H   0.997        C   59 0.965
   117  H   0.999        C   61 0.972
   118  H   0.998        C   63 0.971
   119  H   0.997        C   65 0.965
   120  H   0.997        C   67 0.962
   121  H   0.999        C   68 0.965
   122  H   0.999        C   69 0.975
   123  H   0.998        C   69 0.979

molecular dipole:
                 x           y           z       tot (Debye)
 q only:        2.604      -2.925       2.072
   full:        2.894      -2.743       2.503      11.968
molecular quadrupole (traceless):
                xx          xy          yy          xz          yz          zz
 q only:      -26.187    -114.438     109.230      30.691     -45.699     -83.043
  q+dip:        3.776    -108.698      63.171      69.389     -46.781     -66.947
   full:       -3.497    -106.384      74.174      65.489     -53.059     -70.677

           -------------------------------------------------
          |                Geometry Summary                 |
           -------------------------------------------------

      molecular mass/u    :      959.2922000
   center of mass at/Å    :        8.7419810      -9.6995468       8.0312324
  moments of inertia/u·Å² :        0.2053424E+05   0.7520202E+05   0.8005423E+05
rotational constants/cm⁻¹ :        0.8209522E-03   0.2241646E-03   0.2105777E-03

 * 121 selected distances

     #   Z        #   Z                                     value/Å
     1   6 C      2   7 N                                 1.3481940
     2   7 N      3   6 C                                 1.4371375
     3   6 C      4   6 C                                 1.5272794
     2   7 N      5   7 N                                 1.3283905
     5   7 N      6   6 C                                 1.3247852
     1   6 C      7   6 C                                 1.3787000
     6   6 C      7   6 C                                 1.4116739
     7   6 C      8   6 C                                 1.4926338
     8   6 C      9   6 C                                 1.5294247
     6   6 C     10   6 C                                 1.4897083
    12   6 C     13   6 C                                 1.3306545
    13   6 C     14   7 N                                 1.3815280
    14   7 N     15   6 C                                 1.3494272
    15   6 C     16  16 S                                 1.7332130
    16  16 S     17   6 C                                 1.7406132
    17   6 C     18   7 N                                 1.3868725
    18   7 N     19   8 O                                 1.2218355
    18   7 N     20   8 O                                 1.2248218
    17   6 C     21   6 C                                 1.3721058
    15   6 C     22   6 C                                 1.4037873
    21   6 C     22   6 C                                 1.4022294
    23   6 C     24   6 C                                 1.3413728
    25   6 C     26   6 C                                 1.4018197
    26   6 C     27   6 C                                 1.3730469
    27   6 C     28   6 C                                 1.4056282
    28   6 C     29   6 C                                 1.3872503
    25   6 C     30   6 C                                 1.3996356
    29   6 C     30   6 C                                 1.3806009
    31   6 C     32   6 C                                 1.4060349
    33   6 C     34   6 C                                 1.5400612
    34   6 C     35   6 C                                 1.5238102
    33   6 C     36   6 C                                 1.5395741
    36   6 C     37   6 C                                 1.5240204
    32   6 C     38   6 C                                 1.3715147
    38   6 C     39   6 C                                 1.4066579
    39   6 C     40   6 C                                 1.4040963
    31   6 C     41   6 C                                 1.3880615
    40   6 C     41   6 C                                 1.3786240
    42   6 C     43   6 C                                 1.3579768
    43   6 C     44   6 C                                 1.4073736
    44   6 C     45   6 C                                 1.3715025
    45   6 C     46   6 C                                 1.4162213
    46   6 C     47   6 C                                 1.3625084
    47   6 C     48   6 C                                 1.4115614
    45   6 C     49  16 S                                 1.7592204 (max)
    48   6 C     49  16 S                                 1.7510888
    48   6 C     50   6 C                                 1.3816379
    50   6 C     51   6 C                                 1.4122545
    51   6 C     52   6 C                                 1.3613307
    52   6 C     53   6 C                                 1.4183678
    50   6 C     54  16 S                                 1.7496002
    53   6 C     54  16 S                                 1.7577025
    53   6 C     55   6 C                                 1.3703548
    55   6 C     56   6 C                                 1.4117266
    56   6 C     57   6 C                                 1.4411951
    57   6 C     58   6 C                                 1.3778402
    58   6 C     59   6 C                                 1.4138859
    59   6 C     60   6 C                                 1.3666368
    60   6 C     61   6 C                                 1.4320067
    61   6 C     62   6 C                                 1.3800076
    62   6 C     63   6 C                                 1.4346383
    63   6 C     64   6 C                                 1.3838613
    64   6 C     65   6 C                                 1.4073226
    65   6 C     66   6 C                                 1.3746020
    56   6 C     67   6 C                                 1.3944839
    66   6 C     67   6 C                                 1.4199176
    68   6 C     69   6 C                                 1.3304297
     1   6 C     70   1 H                                 1.0718095
     3   6 C     71   1 H                                 1.0942654
     3   6 C     72   1 H                                 1.0919322
     4   6 C     73   1 H                                 1.0875865
     4   6 C     74   1 H                                 1.0864313
     4   6 C     75   1 H                                 1.0869849
     8   6 C     76   1 H                                 1.0932532
     8   6 C     77   1 H                                 1.0921266
     9   6 C     78   1 H                                 1.0871377
     9   6 C     79   1 H                                 1.0876370
     9   6 C     80   1 H                                 1.0878669
    10   6 C     81   1 H                                 1.0915751
    10   6 C     82   1 H                                 1.0911568
    11   6 C     83   1 H                                 1.0910494
    11   6 C     84   1 H                                 1.0919105
    12   6 C     85   1 H                                 1.0822732
    13   6 C     86   1 H                                 1.0803121
    14   7 N     87   1 H                                 1.0117021 (min)
    21   6 C     88   1 H                                 1.0743614
    23   6 C     89   1 H                                 1.0826838
    24   6 C     90   1 H                                 1.0814761
    26   6 C     91   1 H                                 1.0802072
    29   6 C     92   1 H                                 1.0797388
    30   6 C     93   1 H                                 1.0807845
    34   6 C     94   1 H                                 1.0923987
    34   6 C     95   1 H                                 1.0922273
    35   6 C     96   1 H                                 1.0877641
    35   6 C     97   1 H                                 1.0876574
    35   6 C     98   1 H                                 1.0877149
    36   6 C     99   1 H                                 1.0920355
    36   6 C    100   1 H                                 1.0925785
    37   6 C    101   1 H                                 1.0875585
    37   6 C    102   1 H                                 1.0878560
    37   6 C    103   1 H                                 1.0880227
    38   6 C    104   1 H                                 1.0812168
    40   6 C    105   1 H                                 1.0789819
    41   6 C    106   1 H                                 1.0800154
    42   6 C    107   1 H                                 1.0836409
    43   6 C    108   1 H                                 1.0821419
    44   6 C    109   1 H                                 1.0822459
    46   6 C    110   1 H                                 1.0760430
    47   6 C    111   1 H                                 1.0755641
    51   6 C    112   1 H                                 1.0753806
    52   6 C    113   1 H                                 1.0762355
    55   6 C    114   1 H                                 1.0837659
    57   6 C    115   1 H                                 1.0759823
    59   6 C    116   1 H                                 1.0813660
    61   6 C    117   1 H                                 1.0749139
    63   6 C    118   1 H                                 1.0745976
    65   6 C    119   1 H                                 1.0807364
    67   6 C    120   1 H                                 1.0726611
    68   6 C    121   1 H                                 1.0833510
    69   6 C    122   1 H                                 1.0765161
    69   6 C    123   1 H                                 1.0763167

 * 7 distinct bonds (by element types)

   Z      Z             #   av. dist./Å        max./Å        min./Å
   1 H    6 C          53     1.0838122     1.0942654     1.0718095
   6 C    6 C          52     1.4105702     1.5400612     1.3304297
   1 H    7 N           1     1.0117021     1.0117021     1.0117021
   6 C    7 N           6     1.3713241     1.4371375     1.3247852
   7 N    7 N           1     1.3283905     1.3283905     1.3283905
   7 N    8 O           2     1.2233286     1.2248218     1.2218355
   6 C   16 S           6     1.7485730     1.7592204     1.7332130


optimized geometry written to: xtbopt.xyz


           -------------------------------------------------
          | TOTAL ENERGY             -185.387407058112 Eh   |
          | GRADIENT NORM               0.000322054622 Eh/α |
          | HOMO-LUMO GAP               0.212283271455 eV   |
           -------------------------------------------------

------------------------------------------------------------------------
 * finished run on 2021/06/13 at 14:17:39.914     
------------------------------------------------------------------------
 total:
 * wall-time:     0 d,  0 h,  0 min, 15.219 sec
 *  cpu-time:     0 d,  0 h,  3 min,  2.492 sec
 * ratio c/w:    11.991 speedup
 SCF:
 * wall-time:     0 d,  0 h,  0 min,  0.224 sec
 *  cpu-time:     0 d,  0 h,  0 min,  2.688 sec
 * ratio c/w:    11.976 speedup
 ANC optimizer:
 * wall-time:     0 d,  0 h,  0 min, 14.949 sec
 *  cpu-time:     0 d,  0 h,  2 min, 59.357 sec
 * ratio c/w:    11.998 speedup

