      -----------------------------------------------------------      
     |                   =====================                   |     
     |                           x T B                           |     
     |                   =====================                   |     
     |                         S. Grimme                         |     
     |          Mulliken Center for Theoretical Chemistry        |     
     |                    University of Bonn                     |     
     |                Version 6.2 RC2 (SAW190805)                |     
      -----------------------------------------------------------      

   This program is distributed in the hope that it will be useful,
   but WITHOUT ANY WARRANTY; without even the implied warranty of
   MERCHANTABILITY or FITNESS FOR A PARTICULAR PURPOSE.
   
   FOR NON-COMMERCIAL, ACADEMIA USE ONLY.
   
   Cite this work as:
   * S. Grimme, C. Bannwarth, P. Shushkov, J. Chem. Theory Comput., 2017,
     13, 1989-2009. DOI: 10.1021/acs.jctc.7b00118
   * C. Bannwarth, S. Ehlert and S. Grimme., J. Chem. Theory Comput., 2019,
     15, 1652-1671. DOI: 10.1021/acs.jctc.8b01176
   * P. Pracht, E. Caldeweyher, S. Ehlert, S. Grimme, ChemRxiv, 2019, preprint.
     DOI: 10.26434/chemrxiv.8326202.v1
   
   for DFT-D4:
   * E. Caldeweyher, C. Bannwarth and S. Grimme, J. Chem. Phys., 2017,
     147, 034112. DOI: 10.1063/1.4993215
   * E. Caldeweyher, S. Ehlert, A. Hansen, H. Neugebauer, S. Spicher,
     C. Bannwarth and S. Grimme, J. Chem. Phys., 2019, 150, 154122.
     DOI: 10.1063/1.5090222
   
   for sTDA-xTB:
   * S. Grimme and C. Bannwarth, J. Chem. Phys., 2016, 145, 054103.
     DOI: 10.1063/1.4959605
   
   in the mass-spec context:
   * V. Asgeirsson, C. Bauer and S. Grimme, Chem. Sci., 2017, 8, 4879.
     DOI: 10.1039/c7sc00601b
   
   for metadynamics refer to:
   * S. Grimme, J. Chem. Theory Comput., 2019, 155, 2847-2862
     DOI: 10.1021/acs.jctc.9b00143
   
   with help from (in alphabetical order)
   C. Bannwarth, F. Bohle, G. Brandenburg, E. Caldeweyher, M. Checinski,
   S. Dohm, S. Ehlert, S. Ehrlich, F. März, H. Neugebauer, J. Pisarek,
   P. Pracht, P. Shushkov, and S. Spicher.
   
 * started run on 2021/06/03 at 17:58:55.493     

           -------------------------------------------------
          |                Calculation Setup                |
           -------------------------------------------------

          program call               : /ihome/ghutchison/geoffh/xtb/xtb /ihome/ghutchison/blp62/GA/running_GA/sequence/generations/18/188_12_800_12_627_10204.xyz -opt
          hostname                   : smp-n8
          coordinate file            : /ihome/ghutchison/blp62/GA/running_GA/sequence/generations/18/188_12_800_12_627_10204.xyz
          omp threads                :                    12
          number of atoms            :                    60
          number of electrons        :                   192
          charge                     :                     0
          spin                       :                   0.0
          first test random number   :      0.07096125466363


########################################################################
# WARNING! Please study the warnings concerning your input carefully
#  - XTBPATH is not set, using XTBHOME instead
#  - the use of '-opt' is discouraged, please use '--opt' next time
########################################################################

           ------------------------------------------------- 
          |                 G F N 2 - x T B                 |
          | Geometry, Frequencies, Noncovalent interactions |
          |            JCTC 2019 parametrisation            |
           ------------------------------------------------- 
             KAB for C  - Si     :                1.0500
             KAB for H  - Pd     :                0.9500
             k(s)              :                1.8500
             k(p)              :                2.2300
             k(d)              :                2.2300
             k(f)              :                2.0000
             kEN (H0ij)        :               -2.0000
             D4 a1             :                0.5200
             D4 a2             :                5.0000
             D4 s6             :                1.0000
             D4 s8             :                2.7000
             D4 s9             :                5.0000
             alphaj            :                2.0000

  Z AO/shell   Hii/eV     exponent
  1     Wed Apr 25 08:07:45 CEST 2018   EN: 2.200 GM2: 0.406  GM3: 0.0800  RAES: 1.40
     1s    -10.707211    1.230000
  6     Wed Apr 25 08:07:45 CEST 2018   EN: 2.550 GM2: 0.538  GM3: 0.1500  RAES: 3.00
     2s    -13.970922    2.096432
     2p    -10.063292    1.800000
  7     Wed Apr 25 08:07:45 CEST 2018   EN: 3.040 GM2: 0.461  GM3:-0.0640  RAES: 1.90
     2s    -16.686243    2.339881
     2p    -12.523956    2.014332
  8     Wed Apr 25 08:07:45 CEST 2018   EN: 3.440 GM2: 0.452  GM3:-0.0517  RAES: 1.80
     2s    -20.229985    2.439742
     2p    -15.503117    2.137023
 16     Tue Apr 24 11:44:34 CEST 2018   EN: 2.580 GM2: 0.340  GM3:-0.0502  RAES: 3.10
     3s    -20.029654    1.981333
     3p    -11.377694    2.025643
     3d     -0.420282    1.702555

           ------------------------------------------------- 
          |        Self-Consistent Charge Iterations        |
           ------------------------------------------------- 

          ...................................................
          :                      SETUP                      :
          :.................................................:
          :  # basis functions                 189          :
          :  # atomic orbitals                 187          :
          :  # shells                          101          :
          :  # electrons                       192          :
          :  max. iterations                   250          :
          :  Hamiltonian                  GFN2-xTB          :
          :  restarted?                      false          :
          :  GBSA solvation                  false          :
          :  PC potential                    false          :
          :  electronic temp.          300.0000000     K    :
          :  accuracy                    1.0000000          :
          :  -> integral cutoff          0.2500000E+02      :
          :  -> integral neglect         0.1000000E-07      :
          :  -> SCF convergence          0.1000000E-05 Eh   :
          :  -> wf. convergence          0.1000000E-03 e    :
          :  Broyden damping             0.4000000          :
          ...................................................

 iter      E             dE          RMSdq      gap      omega  full diag
   1   -107.9050818 -0.107905E+03  0.489E+00    0.95       0.0  T
   2   -108.0796386 -0.174557E+00  0.273E+00    1.04       1.0  T
   3   -108.0568608  0.227778E-01  0.140E+00    1.00       1.0  T
   4   -108.0823165 -0.254557E-01  0.745E-01    0.82       1.0  T
   5   -108.1005245 -0.182081E-01  0.240E-01    0.77       1.0  T
   6   -108.1031386 -0.261407E-02  0.963E-02    0.81       1.0  T
   7   -108.1033757 -0.237079E-03  0.503E-02    0.81       1.0  T
   8   -108.1034603 -0.845978E-04  0.234E-02    0.82       1.0  T
   9   -108.1034830 -0.227111E-04  0.104E-02    0.82       1.2  T
  10   -108.1034843 -0.133230E-05  0.513E-03    0.82       2.5  T
  11   -108.1034855 -0.120670E-05  0.178E-03    0.82       7.3  T
  12   -108.1034856 -0.713206E-07  0.854E-04    0.82      15.1  T
  13   -108.1034856 -0.173108E-07  0.483E-04    0.82      26.7  T

   *** convergence criteria satisfied after 13 iterations ***

         #    Occupation            Energy/Eh            Energy/eV
      -------------------------------------------------------------
         1        2.0000           -0.7738624             -21.0579
       ...           ...                  ...                  ...
        90        2.0000           -0.4193299             -11.4105
        91        2.0000           -0.4124504             -11.2233
        92        2.0000           -0.4058108             -11.0427
        93        2.0000           -0.3991890             -10.8625
        94        2.0000           -0.3868144             -10.5258
        95        2.0000           -0.3756548             -10.2221
        96        2.0000           -0.3668077              -9.9813 (HOMO)
        97        0.0000           -0.3365874              -9.1590 (LUMO)
        98                         -0.3331307              -9.0649
        99                         -0.2993352              -8.1453
       100                         -0.2803670              -7.6292
       101                         -0.2700313              -7.3479
       ...                                ...                  ...
       187                          0.7755631              21.1041
      -------------------------------------------------------------
                  HL-Gap            0.0302204 Eh            0.8223 eV
             Fermi-level           -0.3517098 Eh           -9.5705 eV

 SCC (total)                   0 d,  0 h,  0 min,  0.070 sec
 SCC setup                      ...        0 min,  0.001 sec (  1.095%)
 Dispersion                     ...        0 min,  0.001 sec (  2.107%)
 integral evaluation            ...        0 min,  0.007 sec (  9.992%)
 zeroth order Hamiltonian       ...        0 min,  0.000 sec (  0.615%)
 iterations                     ...        0 min,  0.054 sec ( 76.925%)
 molecular gradient             ...        0 min,  0.006 sec (  8.558%)
 printout                       ...        0 min,  0.000 sec (  0.587%)

         :::::::::::::::::::::::::::::::::::::::::::::::::::::
         ::                     SUMMARY                     ::
         :::::::::::::::::::::::::::::::::::::::::::::::::::::
         :: total energy            -106.511344294180 Eh    ::
         :: gradient norm              0.138505072201 Eh/a0 ::
         :: HOMO-LUMO gap              0.822338237717 eV    ::
         ::.................................................::
         :: SCC energy              -108.103485599114 Eh    ::
         :: -> isotropic ES            0.092571945183 Eh    ::
         :: -> anisotropic ES          0.012209631483 Eh    ::
         :: -> anisotropic XC          0.040096745744 Eh    ::
         :: -> dispersion             -0.067915610765 Eh    ::
         :: repulsion energy           1.593382052563 Eh    ::
         :: add. restraining           0.000000000000 Eh    ::
         :::::::::::::::::::::::::::::::::::::::::::::::::::::

      ----------------------------------------------------------- 
     |                   =====================                   |
     |                        A N C O P T                        |
     |                   =====================                   |
     |               Approximate Normal Coordinate               |
     |                Rational Function Optimizer                |
      ----------------------------------------------------------- 

          ...................................................
          :                      SETUP                      :
          :.................................................:
          :   optimization level            normal          :
          :   max. optcycles                   200          :
          :   ANC micro-cycles                  20          :
          :   degrees of freedom               174          :
          :.................................................:
          :   RF solver                   davidson          :
          :   input Hessian                  false          :
          :   write xtbopt.log                true          :
          :   linear?                        false          :
          :   energy convergence         0.5000000E-05 Eh   :
          :   grad. convergence          0.1000000E-02 Eh/α :
          :   maximium RF displ.         2.0000000          :
          :   Hlow (freq-cutoff)         0.5000000E-02      :
          :   Hmax (freq-cutoff)         5.0000000          :
          :   S6 in model hess.         20.0000000          :
          ...................................................

generating ANC from model Hessian ...
Using Lindh-Hessian (1995)
 Shifting diagonal of input Hessian by   4.955236928277753E-003
 Lowest  eigenvalues of input Hessian
   -0.000000   -0.000000   -0.000000   -0.000000    0.000000    0.000000
    0.005000    0.005063    0.005096    0.005190    0.005417    0.005479
    0.005656    0.005750    0.006098    0.006762    0.007580    0.007731
 Highest eigenvalues
    2.110879    2.123929    2.193460    2.272571    2.299143    2.514581
 

........................................................................
.............................. CYCLE    1 ..............................
........................................................................
   1   -108.1034856 -0.108103E+03  0.226E-04    0.82       0.0  T
   2   -108.1034856 -0.155310E-09  0.168E-04    0.82      76.6  T
   3   -108.1034856 -0.516053E-09  0.114E-04    0.82     112.8  T
     SCC iter.                  ...        0 min,  0.012 sec
     gradient                   ...        0 min,  0.006 sec
 * total energy  :  -106.5113443 Eh     change        0.1744696E-07 Eh
   gradient norm :     0.1385100 Eh/α   predicted     0.0000000E+00 (-100.00%)
   displ. norm   :     0.3418849 α      lambda       -0.2600724E-01
   maximum displ.:     0.1379614 α      in ANC's #28, #60, #26, ...

........................................................................
.............................. CYCLE    2 ..............................
........................................................................
   1   -108.1236011 -0.108124E+03  0.215E-01    0.86       0.0  T
   2   -108.1239052 -0.304137E-03  0.158E-01    0.86       1.0  T
   3   -108.1242289 -0.323713E-03  0.931E-02    0.84       1.0  T
   4   -108.1243679 -0.138960E-03  0.510E-02    0.85       1.0  T
   5   -108.1244731 -0.105153E-03  0.202E-02    0.85       1.0  T
   6   -108.1244940 -0.209925E-04  0.879E-03    0.85       1.5  T
   7   -108.1244980 -0.394196E-05  0.293E-03    0.85       4.4  T
   8   -108.1244982 -0.168701E-06  0.150E-03    0.85       8.6  T
     SCC iter.                  ...        0 min,  0.029 sec
     gradient                   ...        0 min,  0.006 sec
 * total energy  :  -106.5296636 Eh     change       -0.1831928E-01 Eh
   gradient norm :     0.0574374 Eh/α   predicted    -0.1452358E-01 ( -20.72%)
   displ. norm   :     0.4538102 α      lambda       -0.1008443E-01
   maximum displ.:     0.2714158 α      in ANC's #28, #26, #27, ...

........................................................................
.............................. CYCLE    3 ..............................
........................................................................
   1   -108.1258672 -0.108126E+03  0.207E-01    0.83       0.0  T
   2   -108.1259964 -0.129181E-03  0.135E-01    0.83       1.0  T
   3   -108.1258079  0.188505E-03  0.941E-02    0.82       1.0  T
   4   -108.1261434 -0.335483E-03  0.335E-02    0.83       1.0  T
   5   -108.1261987 -0.553400E-04  0.123E-02    0.83       1.0  T
   6   -108.1262071 -0.836181E-05  0.526E-03    0.83       2.5  T
   7   -108.1262086 -0.147545E-05  0.187E-03    0.83       6.9  T
   8   -108.1262086 -0.862791E-07  0.994E-04    0.83      13.0  T
     SCC iter.                  ...        0 min,  0.029 sec
     gradient                   ...        0 min,  0.006 sec
 * total energy  :  -106.5365333 Eh     change       -0.6869720E-02 Eh
   gradient norm :     0.0216969 Eh/α   predicted    -0.6080630E-02 ( -11.49%)
   displ. norm   :     0.5314768 α      lambda       -0.4806616E-02
   maximum displ.:     0.3264882 α      in ANC's #28, #23, #20, ...

........................................................................
.............................. CYCLE    4 ..............................
........................................................................
   1   -108.1164230 -0.108116E+03  0.209E-01    0.76       0.0  T
   2   -108.1164474 -0.243921E-04  0.124E-01    0.77       1.0  T
   3   -108.1161996  0.247806E-03  0.721E-02    0.77       1.0  T
   4   -108.1164729 -0.273324E-03  0.118E-02    0.78       1.1  T
   5   -108.1164795 -0.660110E-05  0.544E-03    0.78       2.4  T
   6   -108.1164807 -0.120003E-05  0.205E-03    0.78       6.3  T
   7   -108.1164808 -0.101742E-06  0.115E-03    0.78      11.2  T
     SCC iter.                  ...        0 min,  0.026 sec
     gradient                   ...        0 min,  0.006 sec
 * total energy  :  -106.5403810 Eh     change       -0.3847713E-02 Eh
   gradient norm :     0.0255351 Eh/α   predicted    -0.3082194E-02 ( -19.90%)
   displ. norm   :     0.6511228 α      lambda       -0.4775071E-02
   maximum displ.:     0.3805165 α      in ANC's #28, #23, #10, ...

........................................................................
.............................. CYCLE    5 ..............................
........................................................................
   1   -108.1052353 -0.108105E+03  0.264E-01    0.68       0.0  T
   2   -108.1052741 -0.387938E-04  0.155E-01    0.71       1.0  T
   3   -108.1049630  0.311066E-03  0.825E-02    0.70       1.0  T
   4   -108.1053037 -0.340703E-03  0.127E-02    0.71       1.0  T
   5   -108.1053086 -0.492458E-05  0.696E-03    0.71       1.9  T
   6   -108.1053106 -0.197640E-05  0.312E-03    0.71       4.1  T
   7   -108.1053109 -0.300310E-06  0.161E-03    0.71       8.0  T
     SCC iter.                  ...        0 min,  0.026 sec
     gradient                   ...        0 min,  0.005 sec
 * total energy  :  -106.5438327 Eh     change       -0.3451715E-02 Eh
   gradient norm :     0.0299835 Eh/α   predicted    -0.3399809E-02 (  -1.50%)
   displ. norm   :     0.5637182 α      lambda       -0.4141506E-02
   maximum displ.:     0.2803577 α      in ANC's #28, #23, #7, ...

........................................................................
.............................. CYCLE    6 ..............................
........................................................................
   1   -108.1046987 -0.108105E+03  0.244E-01    0.63       0.0  T
   2   -108.1047424 -0.437595E-04  0.144E-01    0.65       1.0  T
   3   -108.1044103  0.332154E-03  0.837E-02    0.64       1.0  T
   4   -108.1047775 -0.367166E-03  0.160E-02    0.65       1.0  T
   5   -108.1047860 -0.857673E-05  0.762E-03    0.65       1.7  T
   6   -108.1047876 -0.161980E-05  0.443E-03    0.65       2.9  T
   7   -108.1047887 -0.105109E-05  0.200E-03    0.65       6.4  T
     SCC iter.                  ...        0 min,  0.026 sec
     gradient                   ...        0 min,  0.006 sec
 * total energy  :  -106.5463180 Eh     change       -0.2485316E-02 Eh
   gradient norm :     0.0283161 Eh/α   predicted    -0.2728863E-02 (   9.80%)
   displ. norm   :     0.3949895 α      lambda       -0.2921617E-02
   maximum displ.:     0.1441437 α      in ANC's #28, #7, #17, ...

........................................................................
.............................. CYCLE    7 ..............................
........................................................................
   1   -108.1195680 -0.108120E+03  0.166E-01    0.61       0.0  T
   2   -108.1195884 -0.204012E-04  0.971E-02    0.62       1.0  T
   3   -108.1193864  0.201974E-03  0.613E-02    0.62       1.0  T
   4   -108.1196052 -0.218789E-03  0.154E-02    0.62       1.0  T
   5   -108.1196152 -0.100674E-04  0.772E-03    0.62       1.7  T
   6   -108.1196178 -0.255030E-05  0.392E-03    0.62       3.3  T
   7   -108.1196187 -0.943067E-06  0.149E-03    0.62       8.7  T
     SCC iter.                  ...        0 min,  0.026 sec
     gradient                   ...        0 min,  0.005 sec
 * total energy  :  -106.5482800 Eh     change       -0.1961977E-02 Eh
   gradient norm :     0.0190048 Eh/α   predicted    -0.1688732E-02 ( -13.93%)
   displ. norm   :     0.4756925 α      lambda       -0.1781672E-02
   maximum displ.:     0.1831327 α      in ANC's #7, #28, #10, ...

........................................................................
.............................. CYCLE    8 ..............................
........................................................................
   1   -108.1245761 -0.108125E+03  0.184E-01    0.58       0.0  T
   2   -108.1245776 -0.150598E-05  0.104E-01    0.60       1.0  T
   3   -108.1240466  0.531024E-03  0.878E-02    0.58       1.0  T
   4   -108.1246027 -0.556079E-03  0.180E-02    0.59       1.0  T
   5   -108.1246128 -0.100768E-04  0.959E-03    0.59       1.3  T
   6   -108.1246163 -0.350756E-05  0.367E-03    0.59       3.5  T
   7   -108.1246171 -0.795833E-06  0.126E-03    0.59      10.2  T
   8   -108.1246172 -0.879512E-07  0.433E-04    0.59      29.8  T
     SCC iter.                  ...        0 min,  0.029 sec
     gradient                   ...        0 min,  0.005 sec
 * total energy  :  -106.5494062 Eh     change       -0.1126242E-02 Eh
   gradient norm :     0.0206100 Eh/α   predicted    -0.1092419E-02 (  -3.00%)
   displ. norm   :     0.3940623 α      lambda       -0.1667707E-02
   maximum displ.:     0.1979972 α      in ANC's #7, #8, #17, ...

........................................................................
.............................. CYCLE    9 ..............................
........................................................................
   1   -108.1378348 -0.108138E+03  0.174E-01    0.58       0.0  T
   2   -108.1378335  0.127891E-05  0.959E-02    0.58       1.0  T
   3   -108.1372211  0.612393E-03  0.897E-02    0.58       1.0  T
   4   -108.1378742 -0.653024E-03  0.199E-02    0.58       1.0  T
   5   -108.1378851 -0.109654E-04  0.121E-02    0.58       1.1  T
   6   -108.1378906 -0.544732E-05  0.615E-03    0.58       2.1  T
   7   -108.1378930 -0.243126E-05  0.189E-03    0.58       6.8  T
   8   -108.1378932 -0.163306E-06  0.843E-04    0.58      15.3  T
     SCC iter.                  ...        0 min,  0.029 sec
     gradient                   ...        0 min,  0.005 sec
 * total energy  :  -106.5502577 Eh     change       -0.8514920E-03 Eh
   gradient norm :     0.0180411 Eh/α   predicted    -0.9633804E-03 (  13.14%)
   displ. norm   :     0.3882587 α      lambda       -0.1043916E-02
   maximum displ.:     0.1984402 α      in ANC's #7, #10, #8, ...

........................................................................
.............................. CYCLE   10 ..............................
........................................................................
   1   -108.1314455 -0.108131E+03  0.144E-01    0.57       0.0  T
   2   -108.1314415  0.392715E-05  0.827E-02    0.57       1.0  T
   3   -108.1311003  0.341248E-03  0.666E-02    0.57       1.0  T
   4   -108.1314559 -0.355608E-03  0.108E-02    0.57       1.2  T
   5   -108.1314573 -0.134965E-05  0.796E-03    0.57       1.6  T
   6   -108.1314603 -0.301629E-05  0.321E-03    0.57       4.0  T
   7   -108.1314609 -0.665539E-06  0.103E-03    0.57      12.5  T
   8   -108.1314610 -0.568589E-07  0.458E-04    0.57      28.2  T
     SCC iter.                  ...        0 min,  0.029 sec
     gradient                   ...        0 min,  0.005 sec
 * total energy  :  -106.5508418 Eh     change       -0.5841087E-03 Eh
   gradient norm :     0.0208700 Eh/α   predicted    -0.6006742E-03 (   2.84%)
   displ. norm   :     0.3596788 α      lambda       -0.1128448E-02
   maximum displ.:     0.2023821 α      in ANC's #7, #8, #10, ...

........................................................................
.............................. CYCLE   11 ..............................
........................................................................
   1   -108.1247051 -0.108125E+03  0.130E-01    0.58       0.0  T
   2   -108.1247116 -0.655132E-05  0.745E-02    0.58       1.0  T
   3   -108.1246454  0.661895E-04  0.326E-02    0.58       1.0  T
   4   -108.1247115 -0.660598E-04  0.114E-02    0.58       1.1  T
   5   -108.1247154 -0.393740E-05  0.710E-03    0.58       1.8  T
   6   -108.1247178 -0.236631E-05  0.283E-03    0.58       4.6  T
   7   -108.1247183 -0.540834E-06  0.656E-04    0.58      19.7  T
     SCC iter.                  ...        0 min,  0.026 sec
     gradient                   ...        0 min,  0.005 sec
 * total energy  :  -106.5515302 Eh     change       -0.6883645E-03 Eh
   gradient norm :     0.0168644 Eh/α   predicted    -0.6372172E-03 (  -7.43%)
   displ. norm   :     0.3665353 α      lambda       -0.1005646E-02
   maximum displ.:     0.2239372 α      in ANC's #7, #8, #10, ...

........................................................................
.............................. CYCLE   12 ..............................
........................................................................
   1   -108.1251747 -0.108125E+03  0.135E-01    0.60       0.0  T
   2   -108.1251842 -0.953319E-05  0.768E-02    0.60       1.0  T
   3   -108.1251523  0.319315E-04  0.242E-02    0.60       1.0  T
   4   -108.1251811 -0.288762E-04  0.121E-02    0.59       1.1  T
   5   -108.1251863 -0.518335E-05  0.702E-03    0.60       1.8  T
   6   -108.1251888 -0.248465E-05  0.260E-03    0.60       5.0  T
   7   -108.1251891 -0.341956E-06  0.975E-04    0.60      13.2  T
     SCC iter.                  ...        0 min,  0.026 sec
     gradient                   ...        0 min,  0.005 sec
 * total energy  :  -106.5521331 Eh     change       -0.6029293E-03 Eh
   gradient norm :     0.0114212 Eh/α   predicted    -0.5703808E-03 (  -5.40%)
   displ. norm   :     0.5098639 α      lambda       -0.1114574E-02
   maximum displ.:     0.3034478 α      in ANC's #7, #10, #8, ...

........................................................................
.............................. CYCLE   13 ..............................
........................................................................
   1   -108.1254390 -0.108125E+03  0.190E-01    0.61       0.0  T
   2   -108.1254279  0.110795E-04  0.110E-01    0.60       1.0  T
   3   -108.1246999  0.727989E-03  0.100E-01    0.63       1.0  T
   4   -108.1254706 -0.770674E-03  0.122E-02    0.61       1.1  T
   5   -108.1254712 -0.594704E-06  0.744E-03    0.60       1.7  T
   6   -108.1254727 -0.144809E-05  0.363E-03    0.60       3.6  T
   7   -108.1254734 -0.735311E-06  0.132E-03    0.61       9.8  T
   8   -108.1254735 -0.656445E-07  0.720E-04    0.61      17.9  T
     SCC iter.                  ...        0 min,  0.029 sec
     gradient                   ...        0 min,  0.006 sec
 * total energy  :  -106.5524689 Eh     change       -0.3358081E-03 Eh
   gradient norm :     0.0221887 Eh/α   predicted    -0.7021606E-03 ( 109.10%)
   displ. norm   :     0.3627023 α      lambda       -0.1200046E-02
   maximum displ.:     0.2088604 α      in ANC's #7, #10, #8, ...

........................................................................
.............................. CYCLE   14 ..............................
........................................................................
   1   -108.1252862 -0.108125E+03  0.140E-01    0.60       0.0  T
   2   -108.1252733  0.128928E-04  0.780E-02    0.60       1.0  T
   3   -108.1247824  0.490887E-03  0.797E-02    0.60       1.0  T
   4   -108.1253105 -0.528131E-03  0.124E-02    0.60       1.0  T
   5   -108.1253129 -0.237741E-05  0.779E-03    0.60       1.7  T
   6   -108.1253142 -0.128207E-05  0.419E-03    0.60       3.1  T
   7   -108.1253152 -0.104093E-05  0.105E-03    0.60      12.3  T
     SCC iter.                  ...        0 min,  0.026 sec
     gradient                   ...        0 min,  0.005 sec
 * total energy  :  -106.5530452 Eh     change       -0.5762481E-03 Eh
   gradient norm :     0.0182486 Eh/α   predicted    -0.6789584E-03 (  17.82%)
   displ. norm   :     0.3039409 α      lambda       -0.1156106E-02
   maximum displ.:     0.1613169 α      in ANC's #7, #10, #8, ...

........................................................................
.............................. CYCLE   15 ..............................
........................................................................
   1   -108.1354124 -0.108135E+03  0.119E-01    0.59       0.0  T
   2   -108.1354103  0.208373E-05  0.685E-02    0.60       1.0  T
   3   -108.1351672  0.243107E-03  0.703E-02    0.59       1.0  T
   4   -108.1354391 -0.271917E-03  0.105E-02    0.60       1.2  T
   5   -108.1354395 -0.369409E-06  0.776E-03    0.60       1.7  T
   6   -108.1354417 -0.220184E-05  0.403E-03    0.60       3.2  T
   7   -108.1354426 -0.880895E-06  0.150E-03    0.60       8.6  T
   8   -108.1354427 -0.155086E-06  0.635E-04    0.60      20.3  T
     SCC iter.                  ...        0 min,  0.029 sec
     gradient                   ...        0 min,  0.005 sec
 * total energy  :  -106.5533025 Eh     change       -0.2573143E-03 Eh
   gradient norm :     0.0182285 Eh/α   predicted    -0.6314603E-03 ( 145.40%)
   displ. norm   :     0.3455442 α      lambda       -0.9218061E-03
   maximum displ.:     0.2115256 α      in ANC's #7, #10, #8, ...

........................................................................
.............................. CYCLE   16 ..............................
........................................................................
   1   -108.1273058 -0.108127E+03  0.123E-01    0.59       0.0  T
   2   -108.1273102 -0.446225E-05  0.714E-02    0.59       1.0  T
   3   -108.1272282  0.820665E-04  0.343E-02    0.59       1.0  T
   4   -108.1273120 -0.838694E-04  0.911E-03    0.59       1.4  T
   5   -108.1273144 -0.236809E-05  0.568E-03    0.59       2.3  T
   6   -108.1273158 -0.142336E-05  0.224E-03    0.59       5.8  T
   7   -108.1273161 -0.221362E-06  0.722E-04    0.59      17.9  T
     SCC iter.                  ...        0 min,  0.026 sec
     gradient                   ...        0 min,  0.006 sec
 * total energy  :  -106.5538468 Eh     change       -0.5442426E-03 Eh
   gradient norm :     0.0101572 Eh/α   predicted    -0.5159388E-03 (  -5.20%)
   displ. norm   :     0.3607747 α      lambda       -0.6906062E-03
   maximum displ.:     0.2101101 α      in ANC's #7, #8, #10, ...

........................................................................
.............................. CYCLE   17 ..............................
........................................................................
   1   -108.1309309 -0.108131E+03  0.134E-01    0.60       0.0  T
   2   -108.1309265  0.437551E-05  0.788E-02    0.59       1.0  T
   3   -108.1306171  0.309483E-03  0.706E-02    0.61       1.0  T
   4   -108.1309450 -0.327956E-03  0.830E-03    0.60       1.6  T
   5   -108.1309452 -0.221305E-06  0.554E-03    0.60       2.3  T
   6   -108.1309461 -0.838598E-06  0.287E-03    0.60       4.5  T
   7   -108.1309466 -0.486270E-06  0.113E-03    0.60      11.4  T
     SCC iter.                  ...        0 min,  0.026 sec
     gradient                   ...        0 min,  0.005 sec
 * total energy  :  -106.5540282 Eh     change       -0.1814152E-03 Eh
   gradient norm :     0.0152521 Eh/α   predicted    -0.3902480E-03 ( 115.11%)
   displ. norm   :     0.4267554 α      lambda       -0.7818603E-03
   maximum displ.:     0.2467489 α      in ANC's #7, #10, #8, ...

........................................................................
.............................. CYCLE   18 ..............................
........................................................................
   1   -108.1211541 -0.108121E+03  0.165E-01    0.58       0.0  T
   2   -108.1211527  0.144025E-05  0.939E-02    0.59       1.0  T
   3   -108.1207611  0.391563E-03  0.791E-02    0.56       1.0  T
   4   -108.1211724 -0.411276E-03  0.113E-02    0.58       1.1  T
   5   -108.1211726 -0.189859E-06  0.805E-03    0.58       1.6  T
   6   -108.1211754 -0.279120E-05  0.326E-03    0.58       4.0  T
   7   -108.1211760 -0.681238E-06  0.125E-03    0.58      10.3  T
   8   -108.1211761 -0.833664E-07  0.653E-04    0.58      19.8  T
     SCC iter.                  ...        0 min,  0.029 sec
     gradient                   ...        0 min,  0.005 sec
 * total energy  :  -106.5542548 Eh     change       -0.2266283E-03 Eh
   gradient norm :     0.0188830 Eh/α   predicted    -0.4621270E-03 ( 103.91%)
   displ. norm   :     0.2002220 α      lambda       -0.8055702E-03
   maximum displ.:     0.1006315 α      in ANC's #7, #10, #6, ...

........................................................................
.............................. CYCLE   19 ..............................
........................................................................
   1   -108.1267891 -0.108127E+03  0.773E-02    0.57       0.0  T
   2   -108.1267915 -0.236262E-05  0.449E-02    0.58       1.0  T
   3   -108.1267140  0.774862E-04  0.362E-02    0.57       1.0  T
   4   -108.1267944 -0.804534E-04  0.763E-03    0.58       1.7  T
   5   -108.1267965 -0.203499E-05  0.417E-03    0.58       3.1  T
   6   -108.1267971 -0.618918E-06  0.189E-03    0.58       6.8  T
   7   -108.1267973 -0.234446E-06  0.657E-04    0.58      19.7  T
     SCC iter.                  ...        0 min,  0.026 sec
     gradient                   ...        0 min,  0.005 sec
 * total energy  :  -106.5545261 Eh     change       -0.2712623E-03 Eh
   gradient norm :     0.0137215 Eh/α   predicted    -0.4189355E-03 (  54.44%)
   displ. norm   :     0.1961172 α      lambda       -0.4956980E-03
   maximum displ.:     0.1031848 α      in ANC's #7, #5, #8, ...

........................................................................
.............................. CYCLE   20 ..............................
........................................................................
   1   -108.1297612 -0.108130E+03  0.774E-02    0.59       0.0  T
   2   -108.1297588  0.233696E-05  0.470E-02    0.58       1.0  T
   3   -108.1296085  0.150282E-03  0.484E-02    0.59       1.0  T
   4   -108.1297696 -0.161040E-03  0.807E-03    0.58       1.6  T
   5   -108.1297722 -0.264435E-05  0.432E-03    0.58       3.0  T
   6   -108.1297729 -0.715434E-06  0.208E-03    0.58       6.2  T
   7   -108.1297731 -0.211938E-06  0.685E-04    0.58      18.8  T
     SCC iter.                  ...        0 min,  0.026 sec
     gradient                   ...        0 min,  0.005 sec
 * total energy  :  -106.5546650 Eh     change       -0.1389760E-03 Eh
   gradient norm :     0.0135181 Eh/α   predicted    -0.2573823E-03 (  85.20%)
   displ. norm   :     0.2838882 α      lambda       -0.4653883E-03
   maximum displ.:     0.1677033 α      in ANC's #7, #10, #8, ...
 * RMSD in coord.:     0.7987271 α      energy gain  -0.4332074E-01 Eh

generating ANC from model Hessian ...
Using Lindh-Hessian (1995)
 Shifting diagonal of input Hessian by   4.936881138569433E-003
 Lowest  eigenvalues of input Hessian
   -0.000000   -0.000000   -0.000000   -0.000000   -0.000000   -0.000000
    0.005000    0.005046    0.005056    0.005288    0.005386    0.005433
    0.005586    0.005796    0.006095    0.006597    0.007654    0.007795
 Highest eigenvalues
    2.104829    2.129930    2.140894    2.280272    2.284682    2.677939
 

........................................................................
.............................. CYCLE   21 ..............................
........................................................................
   1   -108.1281684 -0.108128E+03  0.112E-01    0.58       0.0  T
   2   -108.1281736 -0.513779E-05  0.650E-02    0.58       1.0  T
   3   -108.1281139  0.596772E-04  0.295E-02    0.58       1.0  T
   4   -108.1281761 -0.622199E-04  0.827E-03    0.58       1.6  T
   5   -108.1281780 -0.185535E-05  0.506E-03    0.58       2.6  T
   6   -108.1281789 -0.916713E-06  0.286E-03    0.58       4.5  T
   7   -108.1281793 -0.415512E-06  0.881E-04    0.58      14.7  T
   8   -108.1281793 -0.232446E-07  0.509E-04    0.58      25.3  T
     SCC iter.                  ...        0 min,  0.030 sec
     gradient                   ...        0 min,  0.006 sec
 * total energy  :  -106.5548449 Eh     change       -0.1798267E-03 Eh
   gradient norm :     0.0093444 Eh/α   predicted     0.0000000E+00 (-100.00%)
   displ. norm   :     0.1014664 α      lambda       -0.2244254E-03
   maximum displ.:     0.0458918 α      in ANC's #5, #2, #10, ...

........................................................................
.............................. CYCLE   22 ..............................
........................................................................
   1   -108.1306259 -0.108131E+03  0.408E-02    0.58       0.0  T
   2   -108.1306260 -0.106065E-06  0.238E-02    0.58       1.0  T
   3   -108.1306072  0.188104E-04  0.159E-02    0.58       1.0  T
   4   -108.1306266 -0.193467E-04  0.344E-03    0.58       3.8  T
   5   -108.1306271 -0.577586E-06  0.150E-03    0.58       8.6  T
   6   -108.1306272 -0.639386E-07  0.823E-04    0.58      15.7  T
     SCC iter.                  ...        0 min,  0.024 sec
     gradient                   ...        0 min,  0.007 sec
 * total energy  :  -106.5549939 Eh     change       -0.1490374E-03 Eh
   gradient norm :     0.0026485 Eh/α   predicted    -0.1133682E-03 ( -23.93%)
   displ. norm   :     0.0841698 α      lambda       -0.7120188E-04
   maximum displ.:     0.0369212 α      in ANC's #5, #10, #2, ...

........................................................................
.............................. CYCLE   23 ..............................
........................................................................
   1   -108.1318280 -0.108132E+03  0.357E-02    0.58       0.0  T
   2   -108.1318284 -0.319972E-06  0.204E-02    0.58       1.0  T
   3   -108.1318235  0.487710E-05  0.814E-03    0.58       1.6  T
   4   -108.1318283 -0.483120E-05  0.294E-03    0.58       4.4  T
   5   -108.1318286 -0.285125E-06  0.173E-03    0.58       7.5  T
   6   -108.1318288 -0.150703E-06  0.674E-04    0.58      19.1  T
   7   -108.1318288 -0.234462E-07  0.174E-04    0.58      74.2  T
     SCC iter.                  ...        0 min,  0.026 sec
     gradient                   ...        0 min,  0.006 sec
 * total energy  :  -106.5550441 Eh     change       -0.5019463E-04 Eh
   gradient norm :     0.0016712 Eh/α   predicted    -0.3585320E-04 ( -28.57%)
   displ. norm   :     0.2236028 α      lambda       -0.7464848E-04
   maximum displ.:     0.1011272 α      in ANC's #5, #2, #10, ...

........................................................................
.............................. CYCLE   24 ..............................
........................................................................
   1   -108.1328067 -0.108133E+03  0.922E-02    0.58       0.0  T
   2   -108.1328085 -0.181043E-05  0.528E-02    0.58       1.0  T
   3   -108.1328018  0.671664E-05  0.106E-02    0.58       1.2  T
   4   -108.1328069 -0.516244E-05  0.648E-03    0.58       2.0  T
   5   -108.1328086 -0.167421E-05  0.355E-03    0.58       3.6  T
   6   -108.1328094 -0.832657E-06  0.104E-03    0.58      12.4  T
   7   -108.1328095 -0.537016E-07  0.348E-04    0.58      37.1  T
   8   -108.1328095 -0.278163E-09  0.256E-04    0.58      50.4  T
     SCC iter.                  ...        0 min,  0.029 sec
     gradient                   ...        0 min,  0.006 sec
 * total energy  :  -106.5551121 Eh     change       -0.6801631E-04 Eh
   gradient norm :     0.0051439 Eh/α   predicted    -0.3815813E-04 ( -43.90%)
   displ. norm   :     0.1781325 α      lambda       -0.8331073E-04
   maximum displ.:     0.0840892 α      in ANC's #5, #2, #10, ...

........................................................................
.............................. CYCLE   25 ..............................
........................................................................
   1   -108.1326392 -0.108133E+03  0.759E-02    0.58       0.0  T
   2   -108.1326403 -0.107750E-05  0.440E-02    0.58       1.0  T
   3   -108.1326391  0.117854E-05  0.634E-03    0.58       2.0  T
   4   -108.1326394 -0.308351E-06  0.500E-03    0.58       2.6  T
   5   -108.1326406 -0.117517E-05  0.179E-03    0.58       7.2  T
   6   -108.1326408 -0.195961E-06  0.527E-04    0.58      24.5  T
     SCC iter.                  ...        0 min,  0.022 sec
     gradient                   ...        0 min,  0.005 sec
 * total energy  :  -106.5551758 Eh     change       -0.6373676E-04 Eh
   gradient norm :     0.0046449 Eh/α   predicted    -0.4298030E-04 ( -32.57%)
   displ. norm   :     0.2923297 α      lambda       -0.1274629E-03
   maximum displ.:     0.1408961 α      in ANC's #5, #2, #10, ...

........................................................................
.............................. CYCLE   26 ..............................
........................................................................
   1   -108.1317662 -0.108132E+03  0.124E-01    0.58       0.0  T
   2   -108.1317690 -0.283959E-05  0.717E-02    0.58       1.0  T
   3   -108.1317599  0.915606E-05  0.134E-02    0.58       1.0  T
   4   -108.1317676 -0.768083E-05  0.750E-03    0.58       1.7  T
   5   -108.1317691 -0.150673E-05  0.484E-03    0.58       2.7  T
   6   -108.1317705 -0.149073E-05  0.120E-03    0.58      10.7  T
   7   -108.1317706 -0.631934E-07  0.475E-04    0.58      27.2  T
     SCC iter.                  ...        0 min,  0.025 sec
     gradient                   ...        0 min,  0.005 sec
 * total energy  :  -106.5552699 Eh     change       -0.9400753E-04 Eh
   gradient norm :     0.0030643 Eh/α   predicted    -0.6917792E-04 ( -26.41%)
   displ. norm   :     0.3148629 α      lambda       -0.1190442E-03
   maximum displ.:     0.1546392 α      in ANC's #5, #2, #10, ...

........................................................................
.............................. CYCLE   27 ..............................
........................................................................
   1   -108.1308568 -0.108131E+03  0.133E-01    0.57       0.0  T
   2   -108.1308604 -0.363195E-05  0.767E-02    0.58       1.0  T
   3   -108.1308509  0.950578E-05  0.145E-02    0.58       1.0  T
   4   -108.1308600 -0.911160E-05  0.730E-03    0.58       1.8  T
   5   -108.1308610 -0.933452E-06  0.451E-03    0.58       2.9  T
   6   -108.1308623 -0.136117E-05  0.157E-03    0.58       8.2  T
   7   -108.1308625 -0.140681E-06  0.569E-04    0.58      22.7  T
   8   -108.1308625 -0.128709E-08  0.339E-04    0.58      38.1  T
     SCC iter.                  ...        0 min,  0.029 sec
     gradient                   ...        0 min,  0.006 sec
 * total energy  :  -106.5553507 Eh     change       -0.8089073E-04 Eh
   gradient norm :     0.0049023 Eh/α   predicted    -0.6542394E-04 ( -19.12%)
   displ. norm   :     0.3150119 α      lambda        0.9973433E-05
   maximum displ.:     0.1546391 α      in ANC's #5, #2, #10, ...

........................................................................
.............................. CYCLE   28 ..............................
........................................................................
   1   -108.1284151 -0.108128E+03  0.133E-01    0.57       0.0  T
   2   -108.1284189 -0.378096E-05  0.766E-02    0.57       1.0  T
   3   -108.1284036  0.153321E-04  0.177E-02    0.57       1.0  T
   4   -108.1284194 -0.158065E-04  0.723E-03    0.57       1.8  T
   5   -108.1284193  0.624905E-07  0.550E-03    0.57       2.3  T
   6   -108.1284212 -0.188633E-05  0.191E-03    0.57       6.8  T
   7   -108.1284214 -0.213406E-06  0.582E-04    0.57      22.2  T
     SCC iter.                  ...        0 min,  0.025 sec
     gradient                   ...        0 min,  0.005 sec
 * total energy  :  -106.5553387 Eh     change        0.1204825E-04 Eh
   gradient norm :     0.0098121 Eh/α   predicted     0.5478364E-05 ( -54.53%)
   displ. norm   :     0.0634151 α      lambda       -0.1624661E-03
   maximum displ.:     0.0255068 α      in ANC's #17, #18, #2, ...

........................................................................
.............................. CYCLE   29 ..............................
........................................................................
   1   -108.1308931 -0.108131E+03  0.275E-02    0.57       0.0  T
   2   -108.1308932 -0.116555E-06  0.163E-02    0.57       1.0  T
   3   -108.1308820  0.111525E-04  0.146E-02    0.57       1.0  T
   4   -108.1308936 -0.116048E-04  0.317E-03    0.57       4.1  T
   5   -108.1308942 -0.565782E-06  0.115E-03    0.57      11.2  T
   6   -108.1308942 -0.361994E-07  0.731E-04    0.57      17.7  T
     SCC iter.                  ...        0 min,  0.022 sec
     gradient                   ...        0 min,  0.005 sec
 * total energy  :  -106.5554502 Eh     change       -0.1114805E-03 Eh
   gradient norm :     0.0064309 Eh/α   predicted    -0.8156177E-04 ( -26.84%)
   displ. norm   :     0.2026053 α      lambda       -0.1349749E-03
   maximum displ.:     0.1001912 α      in ANC's #2, #5, #3, ...

........................................................................
.............................. CYCLE   30 ..............................
........................................................................
   1   -108.1323668 -0.108132E+03  0.804E-02    0.57       0.0  T
   2   -108.1323682 -0.146675E-05  0.460E-02    0.57       1.0  T
   3   -108.1323511  0.171505E-04  0.168E-02    0.57       1.0  T
   4   -108.1323678 -0.167274E-04  0.631E-03    0.57       2.0  T
   5   -108.1323692 -0.135249E-05  0.317E-03    0.57       4.1  T
   6   -108.1323696 -0.452427E-06  0.109E-03    0.57      11.9  T
   7   -108.1323697 -0.540197E-07  0.508E-04    0.57      25.4  T
     SCC iter.                  ...        0 min,  0.025 sec
     gradient                   ...        0 min,  0.005 sec
 * total energy  :  -106.5555533 Eh     change       -0.1030864E-03 Eh
   gradient norm :     0.0035236 Eh/α   predicted    -0.7025798E-04 ( -31.85%)
   displ. norm   :     0.4547599 α      lambda       -0.1518042E-03
   maximum displ.:     0.2291256 α      in ANC's #5, #2, #6, ...

........................................................................
.............................. CYCLE   31 ..............................
........................................................................
   1   -108.1305333 -0.108131E+03  0.185E-01    0.57       0.0  T
   2   -108.1305406 -0.724662E-05  0.106E-01    0.57       1.0  T
   3   -108.1305120  0.285870E-04  0.245E-02    0.57       1.0  T
   4   -108.1305348 -0.227969E-04  0.143E-02    0.58       1.0  T
   5   -108.1305432 -0.841150E-05  0.485E-03    0.57       2.7  T
   6   -108.1305446 -0.139673E-05  0.140E-03    0.57       9.2  T
   7   -108.1305446 -0.555211E-07  0.955E-04    0.57      13.5  T
   8   -108.1305447 -0.293717E-07  0.503E-04    0.57      25.7  T
     SCC iter.                  ...        0 min,  0.030 sec
     gradient                   ...        0 min,  0.006 sec
 * total energy  :  -106.5556727 Eh     change       -0.1194361E-03 Eh
   gradient norm :     0.0035738 Eh/α   predicted    -0.9160581E-04 ( -23.30%)
   displ. norm   :     0.4983336 α      lambda       -0.1377380E-03
   maximum displ.:     0.2508728 α      in ANC's #5, #2, #6, ...

........................................................................
.............................. CYCLE   32 ..............................
........................................................................
   1   -108.1285412 -0.108129E+03  0.197E-01    0.57       0.0  T
   2   -108.1285504 -0.917265E-05  0.113E-01    0.57       1.0  T
   3   -108.1285472  0.318832E-05  0.157E-02    0.57       1.0  T
   4   -108.1285377  0.943915E-05  0.163E-02    0.57       1.0  T
   5   -108.1285525 -0.147794E-04  0.474E-03    0.57       2.7  T
   6   -108.1285540 -0.150639E-05  0.138E-03    0.57       9.4  T
   7   -108.1285541 -0.377181E-07  0.857E-04    0.57      15.1  T
   8   -108.1285541 -0.124611E-07  0.485E-04    0.57      26.6  T
     SCC iter.                  ...        0 min,  0.029 sec
     gradient                   ...        0 min,  0.006 sec
 * total energy  :  -106.5557724 Eh     change       -0.9974384E-04 Eh
   gradient norm :     0.0044431 Eh/α   predicted    -0.8597356E-04 ( -13.81%)
   displ. norm   :     0.3599090 α      lambda       -0.9441211E-04
   maximum displ.:     0.1874684 α      in ANC's #2, #5, #6, ...

........................................................................
.............................. CYCLE   33 ..............................
........................................................................
   1   -108.1287125 -0.108129E+03  0.137E-01    0.57       0.0  T
   2   -108.1287170 -0.450462E-05  0.785E-02    0.57       1.0  T
   3   -108.1287111  0.583325E-05  0.139E-02    0.57       1.0  T
   4   -108.1287116 -0.428810E-06  0.117E-02    0.57       1.1  T
   5   -108.1287181 -0.654489E-05  0.350E-03    0.57       3.7  T
   6   -108.1287189 -0.816110E-06  0.956E-04    0.57      13.5  T
   7   -108.1287189 -0.199996E-07  0.616E-04    0.57      21.0  T
     SCC iter.                  ...        0 min,  0.025 sec
     gradient                   ...        0 min,  0.005 sec
 * total energy  :  -106.5558499 Eh     change       -0.7742885E-04 Eh
   gradient norm :     0.0040705 Eh/α   predicted    -0.5332957E-04 ( -31.12%)
   displ. norm   :     0.4031639 α      lambda       -0.1335894E-03
   maximum displ.:     0.2202540 α      in ANC's #2, #5, #6, ...

........................................................................
.............................. CYCLE   34 ..............................
........................................................................
   1   -108.1317646 -0.108132E+03  0.145E-01    0.58       0.0  T
   2   -108.1317698 -0.521696E-05  0.827E-02    0.57       1.0  T
   3   -108.1317402  0.296783E-04  0.252E-02    0.58       1.0  T
   4   -108.1317687 -0.285160E-04  0.107E-02    0.57       1.2  T
   5   -108.1317706 -0.196096E-05  0.660E-03    0.58       2.0  T
   6   -108.1317732 -0.255663E-05  0.169E-03    0.57       7.6  T
   7   -108.1317734 -0.187822E-06  0.674E-04    0.58      19.2  T
     SCC iter.                  ...        0 min,  0.025 sec
     gradient                   ...        0 min,  0.005 sec
 * total energy  :  -106.5559508 Eh     change       -0.1009083E-03 Eh
   gradient norm :     0.0031972 Eh/α   predicted    -0.7766216E-04 ( -23.04%)
   displ. norm   :     0.6514431 α      lambda       -0.1535954E-03
   maximum displ.:     0.3387962 α      in ANC's #2, #5, #6, ...

........................................................................
.............................. CYCLE   35 ..............................
........................................................................
   1   -108.1267459 -0.108127E+03  0.243E-01    0.57       0.0  T
   2   -108.1267615 -0.155810E-04  0.139E-01    0.57       1.0  T
   3   -108.1267326  0.289131E-04  0.293E-02    0.58       1.0  T
   4   -108.1267600 -0.274941E-04  0.155E-02    0.57       1.0  T
   5   -108.1267623 -0.228163E-05  0.104E-02    0.58       1.2  T
   6   -108.1267688 -0.649263E-05  0.263E-03    0.57       4.9  T
   7   -108.1267692 -0.331264E-06  0.120E-03    0.57      10.8  T
   8   -108.1267692 -0.130262E-07  0.729E-04    0.57      17.7  T
   9   -108.1267692 -0.154184E-07  0.385E-04    0.57      33.5  T
     SCC iter.                  ...        0 min,  0.033 sec
     gradient                   ...        0 min,  0.006 sec
 * total energy  :  -106.5560174 Eh     change       -0.6665940E-04 Eh
   gradient norm :     0.0066728 Eh/α   predicted    -0.1093904E-03 (  64.10%)
   displ. norm   :     0.2283115 α      lambda       -0.1514980E-03
   maximum displ.:     0.1304186 α      in ANC's #2, #5, #6, ...

........................................................................
.............................. CYCLE   36 ..............................
........................................................................
   1   -108.1308772 -0.108131E+03  0.707E-02    0.58       0.0  T
   2   -108.1308796 -0.241085E-05  0.395E-02    0.58       1.0  T
   3   -108.1308649  0.147086E-04  0.186E-02    0.58       1.0  T
   4   -108.1308811 -0.161917E-04  0.524E-03    0.58       2.5  T
   5   -108.1308814 -0.326720E-06  0.356E-03    0.57       3.6  T
   6   -108.1308820 -0.536684E-06  0.154E-03    0.58       8.4  T
   7   -108.1308821 -0.133622E-06  0.436E-04    0.58      29.6  T
     SCC iter.                  ...        0 min,  0.025 sec
     gradient                   ...        0 min,  0.005 sec
 * total energy  :  -106.5561162 Eh     change       -0.9873197E-04 Eh
   gradient norm :     0.0037353 Eh/α   predicted    -0.7969883E-04 ( -19.28%)
   displ. norm   :     0.4364742 α      lambda       -0.1070316E-03
   maximum displ.:     0.2452559 α      in ANC's #2, #5, #6, ...

........................................................................
.............................. CYCLE   37 ..............................
........................................................................
   1   -108.1314576 -0.108131E+03  0.149E-01    0.57       0.0  T
   2   -108.1314636 -0.604816E-05  0.845E-02    0.57       1.0  T
   3   -108.1314581  0.553136E-05  0.142E-02    0.57       1.0  T
   4   -108.1314539  0.423028E-05  0.141E-02    0.58       1.0  T
   5   -108.1314651 -0.112387E-04  0.372E-03    0.57       3.5  T
   6   -108.1314659 -0.819563E-06  0.107E-03    0.57      12.0  T
   7   -108.1314660 -0.351944E-07  0.755E-04    0.57      17.1  T
   8   -108.1314660 -0.242512E-07  0.312E-04    0.57      41.4  T
     SCC iter.                  ...        0 min,  0.030 sec
     gradient                   ...        0 min,  0.006 sec
 * total energy  :  -106.5561912 Eh     change       -0.7500093E-04 Eh
   gradient norm :     0.0036125 Eh/α   predicted    -0.6371219E-04 ( -15.05%)
   displ. norm   :     0.5444009 α      lambda       -0.1125641E-03
   maximum displ.:     0.3071482 α      in ANC's #2, #5, #6, ...

........................................................................
.............................. CYCLE   38 ..............................
........................................................................
   1   -108.1307335 -0.108131E+03  0.183E-01    0.57       0.0  T
   2   -108.1307428 -0.933590E-05  0.103E-01    0.57       1.0  T
   3   -108.1307352  0.766699E-05  0.178E-02    0.57       1.0  T
   4   -108.1307313  0.385351E-05  0.163E-02    0.58       1.0  T
   5   -108.1307439 -0.126321E-04  0.620E-03    0.57       2.1  T
   6   -108.1307463 -0.240325E-05  0.128E-03    0.57      10.1  T
   7   -108.1307464 -0.646818E-07  0.767E-04    0.57      16.8  T
   8   -108.1307464 -0.119162E-07  0.414E-04    0.57      31.2  T
     SCC iter.                  ...        0 min,  0.029 sec
     gradient                   ...        0 min,  0.006 sec
 * total energy  :  -106.5562735 Eh     change       -0.8236174E-04 Eh
   gradient norm :     0.0030548 Eh/α   predicted    -0.7296938E-04 ( -11.40%)
   displ. norm   :     0.4175789 α      lambda       -0.8620878E-04
   maximum displ.:     0.2388980 α      in ANC's #2, #5, #6, ...

........................................................................
.............................. CYCLE   39 ..............................
........................................................................
   1   -108.1325386 -0.108133E+03  0.136E-01    0.57       0.0  T
   2   -108.1325433 -0.466110E-05  0.762E-02    0.57       1.0  T
   3   -108.1325081  0.351976E-04  0.258E-02    0.56       1.0  T
   4   -108.1325421 -0.340565E-04  0.108E-02    0.57       1.2  T
   5   -108.1325447 -0.256895E-05  0.498E-03    0.57       2.6  T
   6   -108.1325464 -0.171552E-05  0.139E-03    0.57       9.3  T
   7   -108.1325465 -0.143869E-06  0.603E-04    0.57      21.4  T
   8   -108.1325466 -0.812433E-08  0.336E-04    0.57      38.4  T
     SCC iter.                  ...        0 min,  0.029 sec
     gradient                   ...        0 min,  0.006 sec
 * total energy  :  -106.5563288 Eh     change       -0.5523738E-04 Eh
   gradient norm :     0.0030082 Eh/α   predicted    -0.5062590E-04 (  -8.35%)
   displ. norm   :     0.5323554 α      lambda       -0.7425804E-04
   maximum displ.:     0.3008523 α      in ANC's #2, #5, #6, ...

........................................................................
.............................. CYCLE   40 ..............................
........................................................................
   1   -108.1292218 -0.108129E+03  0.178E-01    0.56       0.0  T
   2   -108.1292308 -0.893167E-05  0.100E-01    0.57       1.0  T
   3   -108.1291849  0.458430E-04  0.318E-02    0.56       1.0  T
   4   -108.1292284 -0.435245E-04  0.144E-02    0.57       1.0  T
   5   -108.1292309 -0.241419E-05  0.862E-03    0.56       1.5  T
   6   -108.1292360 -0.509184E-05  0.219E-03    0.57       5.9  T
   7   -108.1292363 -0.338713E-06  0.780E-04    0.57      16.5  T
   8   -108.1292363 -0.549581E-08  0.503E-04    0.57      25.6  T
     SCC iter.                  ...        0 min,  0.029 sec
     gradient                   ...        0 min,  0.006 sec
 * total energy  :  -106.5563558 Eh     change       -0.2707937E-04 Eh
   gradient norm :     0.0048079 Eh/α   predicted    -0.4765324E-04 (  75.98%)
   displ. norm   :     0.0994258 α      lambda       -0.6801490E-04
   maximum displ.:     0.0566969 α      in ANC's #9, #10, #12, ...

........................................................................
.............................. CYCLE   41 ..............................
........................................................................
   1   -108.1351698 -0.108135E+03  0.347E-02    0.57       0.0  T
   2   -108.1351707 -0.959258E-06  0.203E-02    0.57       1.0  T
   3   -108.1351575  0.132551E-04  0.152E-02    0.57       1.0  T
   4   -108.1351707 -0.132323E-04  0.514E-03    0.57       2.5  T
   5   -108.1351722 -0.150822E-05  0.210E-03    0.57       6.2  T
   6   -108.1351723 -0.128293E-06  0.125E-03    0.57      10.3  T
     SCC iter.                  ...        0 min,  0.022 sec
     gradient                   ...        0 min,  0.005 sec
 * total energy  :  -106.5563699 Eh     change       -0.1402515E-04 Eh
   gradient norm :     0.0051092 Eh/α   predicted    -0.3435051E-04 ( 144.92%)
   displ. norm   :     0.1582777 α      lambda       -0.6689975E-04
   maximum displ.:     0.0881656 α      in ANC's #2, #5, #6, ...

........................................................................
.............................. CYCLE   42 ..............................
........................................................................
   1   -108.1320668 -0.108132E+03  0.543E-02    0.57       0.0  T
   2   -108.1320674 -0.673729E-06  0.310E-02    0.57       1.0  T
   3   -108.1320574  0.100710E-04  0.143E-02    0.57       1.0  T
   4   -108.1320678 -0.104127E-04  0.370E-03    0.57       3.5  T
   5   -108.1320677  0.355638E-07  0.277E-03    0.57       4.7  T
   6   -108.1320682 -0.433752E-06  0.954E-04    0.57      13.5  T
     SCC iter.                  ...        0 min,  0.022 sec
     gradient                   ...        0 min,  0.005 sec
 * total energy  :  -106.5563938 Eh     change       -0.2393619E-04 Eh
   gradient norm :     0.0031154 Eh/α   predicted    -0.3428973E-04 (  43.25%)
   displ. norm   :     0.1495476 α      lambda       -0.2742171E-04
   maximum displ.:     0.0859289 α      in ANC's #2, #5, #6, ...
 * RMSD in coord.:     0.7960786 α      energy gain  -0.1728778E-02 Eh

generating ANC from model Hessian ...
Using Lindh-Hessian (1995)
 Shifting diagonal of input Hessian by   4.927694615376780E-003
 Lowest  eigenvalues of input Hessian
   -0.000000   -0.000000   -0.000000   -0.000000   -0.000000    0.000000
    0.005000    0.005025    0.005045    0.005307    0.005362    0.005404
    0.005563    0.005766    0.006275    0.006396    0.007641    0.007766
 Highest eigenvalues
    2.106619    2.131272    2.142150    2.282321    2.285473    2.679269
 

........................................................................
.............................. CYCLE   43 ..............................
........................................................................
   1   -108.1315382 -0.108132E+03  0.506E-02    0.57       0.0  T
   2   -108.1315391 -0.956166E-06  0.287E-02    0.57       1.0  T
   3   -108.1315326  0.648489E-05  0.119E-02    0.57       1.1  T
   4   -108.1315394 -0.672653E-05  0.415E-03    0.57       3.1  T
   5   -108.1315396 -0.218897E-06  0.261E-03    0.57       4.9  T
   6   -108.1315398 -0.238233E-06  0.124E-03    0.57      10.4  T
   7   -108.1315399 -0.117743E-06  0.345E-04    0.57      37.4  T
   8   -108.1315399 -0.342860E-08  0.212E-04    0.57      61.0  T
     SCC iter.                  ...        0 min,  0.029 sec
     gradient                   ...        0 min,  0.006 sec
 * total energy  :  -106.5564078 Eh     change       -0.1394678E-04 Eh
   gradient norm :     0.0027149 Eh/α   predicted     0.0000000E+00 (-100.00%)
   displ. norm   :     0.0294724 α      lambda       -0.1495942E-04
   maximum displ.:     0.0148774 α      in ANC's #15, #5, #10, ...

........................................................................
.............................. CYCLE   44 ..............................
........................................................................
   1   -108.1324234 -0.108132E+03  0.146E-02    0.57       0.0  T
   2   -108.1324235 -0.376146E-07  0.880E-03    0.57       1.5  T
   3   -108.1324208  0.266956E-05  0.726E-03    0.57       1.8  T
   4   -108.1324236 -0.275973E-05  0.169E-03    0.57       7.6  T
   5   -108.1324237 -0.151696E-06  0.584E-04    0.57      22.1  T
   6   -108.1324237 -0.450204E-08  0.434E-04    0.57      29.8  T
     SCC iter.                  ...        0 min,  0.022 sec
     gradient                   ...        0 min,  0.006 sec
 * total energy  :  -106.5564187 Eh     change       -0.1089437E-04 Eh
   gradient norm :     0.0010150 Eh/α   predicted    -0.7493375E-05 ( -31.22%)
   displ. norm   :     0.0481808 α      lambda       -0.8435366E-05
   maximum displ.:     0.0264471 α      in ANC's #15, #20, #5, ...

........................................................................
.............................. CYCLE   45 ..............................
........................................................................
   1   -108.1331754 -0.108133E+03  0.238E-02    0.57       0.0  T
   2   -108.1331754 -0.353519E-07  0.142E-02    0.57       1.0  T
   3   -108.1331687  0.672535E-05  0.113E-02    0.57       1.1  T
   4   -108.1331756 -0.689533E-05  0.241E-03    0.57       5.4  T
   5   -108.1331759 -0.312664E-06  0.924E-04    0.57      14.0  T
   6   -108.1331759 -0.116027E-07  0.647E-04    0.57      19.9  T
     SCC iter.                  ...        0 min,  0.022 sec
     gradient                   ...        0 min,  0.006 sec
 * total energy  :  -106.5564263 Eh     change       -0.7678540E-05 Eh
   gradient norm :     0.0012393 Eh/α   predicted    -0.4223322E-05 ( -45.00%)
   displ. norm   :     0.0538664 α      lambda       -0.5719038E-05
   maximum displ.:     0.0252731 α      in ANC's #15, #5, #10, ...

........................................................................
.............................. CYCLE   46 ..............................
........................................................................
   1   -108.1330101 -0.108133E+03  0.261E-02    0.57       0.0  T
   2   -108.1330101 -0.404420E-07  0.155E-02    0.57       1.0  T
   3   -108.1330069  0.328843E-05  0.714E-03    0.57       1.8  T
   4   -108.1330103 -0.341757E-05  0.111E-03    0.57      11.7  T
   5   -108.1330103 -0.259895E-07  0.703E-04    0.57      18.4  T
   6   -108.1330103 -0.125292E-07  0.326E-04    0.57      39.5  T
     SCC iter.                  ...        0 min,  0.022 sec
     gradient                   ...        0 min,  0.006 sec
 * total energy  :  -106.5564318 Eh     change       -0.5505493E-05 Eh
   gradient norm :     0.0013250 Eh/α   predicted    -0.2863792E-05 ( -47.98%)
   displ. norm   :     0.0839049 α      lambda       -0.7615685E-05
   maximum displ.:     0.0359575 α      in ANC's #15, #5, #10, ...

........................................................................
.............................. CYCLE   47 ..............................
........................................................................
   1   -108.1324468 -0.108132E+03  0.401E-02    0.57       0.0  T
   2   -108.1324470 -0.173993E-06  0.238E-02    0.57       1.0  T
   3   -108.1324435  0.352205E-05  0.690E-03    0.57       1.9  T
   4   -108.1324471 -0.367826E-05  0.160E-03    0.57       8.1  T
   5   -108.1324472 -0.880325E-07  0.807E-04    0.57      16.0  T
   6   -108.1324472 -0.101039E-07  0.350E-04    0.57      36.9  T
     SCC iter.                  ...        0 min,  0.022 sec
     gradient                   ...        0 min,  0.006 sec
 * total energy  :  -106.5564363 Eh     change       -0.4433692E-05 Eh
   gradient norm :     0.0012676 Eh/α   predicted    -0.3820667E-05 ( -13.83%)
   displ. norm   :     0.0422255 α      lambda       -0.5470493E-05
   maximum displ.:     0.0206223 α      in ANC's #5, #1, #4, ...

........................................................................
.............................. CYCLE   48 ..............................
........................................................................
   1   -108.1324197 -0.108132E+03  0.187E-02    0.57       0.0  T
   2   -108.1324197 -0.623036E-07  0.110E-02    0.57       1.2  T
   3   -108.1324192  0.539097E-06  0.331E-03    0.57       3.9  T
   4   -108.1324197 -0.542396E-06  0.106E-03    0.57      12.2  T
   5   -108.1324198 -0.504535E-07  0.513E-04    0.57      25.2  T
   6   -108.1324198 -0.539535E-08  0.263E-04    0.57      49.1  T
     SCC iter.                  ...        0 min,  0.022 sec
     gradient                   ...        0 min,  0.006 sec
 * total energy  :  -106.5564404 Eh     change       -0.4164460E-05 Eh
   gradient norm :     0.0009751 Eh/α   predicted    -0.2737883E-05 ( -34.26%)
   displ. norm   :     0.0326298 α      lambda       -0.3860943E-05
   maximum displ.:     0.0168268 α      in ANC's #5, #1, #4, ...

   *** GEOMETRY OPTIMIZATION CONVERGED AFTER 48 ITERATIONS ***

------------------------------------------------------------------------
 total energy gain   :        -0.0450961 Eh      -28.2983 kcal/mol
 total RMSD          :         1.3030716 a0        0.6896 Å
 total power (kW/mol):        -2.4666646 (step)  -59.2498 (real)
------------------------------------------------------------------------

 ANCopt (total)                0 d,  0 h,  0 min,  1.998 sec
 optimizer setup                ...        0 min,  0.000 sec (  0.005%)
 model hessian                  ...        0 min,  0.022 sec (  1.081%)
 ANC generation                 ...        0 min,  0.006 sec (  0.320%)
 coordinate transformation      ...        0 min,  0.001 sec (  0.069%)
 single point calculation       ...        0 min,  1.948 sec ( 97.456%)
 optimization log               ...        0 min,  0.007 sec (  0.350%)
 hessian update                 ...        0 min,  0.001 sec (  0.060%)
 rational function              ...        0 min,  0.010 sec (  0.488%)

================
 final structure:
================
$coord
    2.34716024029453    2.75211682729167   -6.63225968078389      C 
    0.34127376393025    1.25264019816919   -6.98526827211154      O 
   -1.64052510161375    2.38436566420533   -5.86288256458044      C 
   -0.94159827560392    4.60261759306111   -4.78781676834036      C 
    1.70189556341189    4.87877218983556   -5.28117254669415      C 
    3.38140922691542    6.88162215738370   -4.56433437090112      C 
    2.67393410055122    8.97572448521044   -3.28970190931560      C 
    4.28114392326302   11.00891685320747   -2.54532519542456      C 
    6.83036344521931   11.13860957913587   -2.81598270866827      C 
    8.26942362524341   13.25473338660752   -2.03773657778754      C 
   10.82815329476379   13.39640296664303   -2.26526930370088      C 
   12.37995895135745   15.46191050431029   -1.55169738960142      C 
   11.55549677831217   17.71618372821143   -0.62285031056787      C 
   13.18373497651204   19.71952407725049    0.04504471771871      C 
   12.01049352753048   22.60759727567646    1.15947314919481      S 
   14.98505684436985   24.01203844803471    1.52176081163398      C 
   16.83252376885847   22.25416920136948    0.79809875212761      C 
   15.79449164279127   19.90799267855613   -0.01051825861896      C 
   17.63657837747893   18.28230288187608   -0.69505078252679      O 
   19.83647678412105   19.56076824832395   -0.33242630651337      C 
   22.11933219341369   18.31400525501172   -0.90265073143782      N 
   24.05703068939280   19.51299802941192   -0.55721907852551      O 
   22.00789013104038   16.16007170120986   -1.68660130390497      O 
   19.47904875489277   21.96814285146651    0.56616483078926      C 
   15.14265743074452   26.51080685160486    2.38698400001548      C 
   17.33479544734591   27.83127465599401    2.74454178861468      C 
   17.52567217545826   30.36308128052327    3.57032361579361      C 
   15.55384031495298   31.92438952584975    4.14103835371435      C 
   15.78377440279737   34.46029136190727    4.93083002272374      C 
   13.01318330443378   36.19527855047286    5.55086049134463      S 
   14.74880988618188   38.80957038008277    6.29636893050358      C 
   17.33798471671605   38.36436463468780    6.08125538472669      C 
   17.93399417373228   35.93103836390905    5.31823829216780      C 
   18.63790585154075   40.74948122275170    6.76772492537170      C 
   20.87277789162895   41.18526307606493    6.84266129650950      O 
   16.52165150602990   42.56399760019544    7.38021047976647      C 
   14.26690092454128   41.34820989376608    7.08048671894293      C 
   17.06784555519938   45.10916660055996    8.13094432658520      C 
   15.35871954243774   46.87188330727351    8.70481487940372      C 
    4.11818077431107    2.14863338178939   -7.40986507215558      H 
   -3.42617070270282    1.43174480520754   -5.95789119167577      H 
   -2.13702596332049    5.87983004420409   -3.77364333686660      H 
    5.32657709992368    6.62651501997115   -5.13356993730166      H 
    0.70424913852540    9.18066148991463   -2.78279133992449      H 
    3.34172576467878   12.59979185642173   -1.66230279718096      H 
    7.85346590256905    9.58052039026723   -3.65266809535573      H 
    7.23213167461338   14.81498320538340   -1.22095423667631      H 
   11.80398188548458   11.78366810661517   -3.06063167696058      H 
   14.39385188232167   15.21024252956302   -1.79177383966371      H 
    9.56244307659567   18.07700785555085   -0.37093309059096      H 
   20.96285703483230   23.27894271036009    0.97693010114501      H 
   13.34814550804482   27.40580664750973    2.77298373355782      H 
   19.09797266012799   26.88052135126768    2.35714055771914      H 
   19.42176763486778   31.10327659031210    3.74202897544057      H 
   13.64027165700905   31.22696519852408    3.98622428034551      H 
   19.82365307293947   35.24144150903010    5.04699594568249      H 
   12.41390576073960   42.12631372463899    7.37103648394282      H 
   19.06526873107802   45.54669350234410    8.20816659577769      H 
   13.35981483837738   46.49689557981919    8.64632415384602      H 
   15.91392375886551   48.74861036698680    9.25414034235008      H 
$end
           -------------------------------------------------
          |                Final Singlepoint                |
           -------------------------------------------------

          ...................................................
          :                      SETUP                      :
          :.................................................:
          :  # basis functions                 189          :
          :  # atomic orbitals                 187          :
          :  # shells                          101          :
          :  # electrons                       192          :
          :  max. iterations                   250          :
          :  Hamiltonian                  GFN2-xTB          :
          :  restarted?                      false          :
          :  GBSA solvation                  false          :
          :  PC potential                    false          :
          :  electronic temp.          300.0000000     K    :
          :  accuracy                    1.0000000          :
          :  -> integral cutoff          0.2500000E+02      :
          :  -> integral neglect         0.1000000E-07      :
          :  -> SCF convergence          0.1000000E-05 Eh   :
          :  -> wf. convergence          0.1000000E-03 e    :
          :  Broyden damping             0.4000000          :
          ...................................................

 iter      E             dE          RMSdq      gap      omega  full diag
   1   -108.1324198 -0.108132E+03  0.175E-04    0.57       0.0  T
   2   -108.1324198  0.406928E-09  0.790E-05    0.57     163.3  T
   3   -108.1324198  0.244484E-09  0.135E-04    0.57      95.5  T

   *** convergence criteria satisfied after 3 iterations ***

         #    Occupation            Energy/Eh            Energy/eV
      -------------------------------------------------------------
         1        2.0000           -0.7754286             -21.1005
       ...           ...                  ...                  ...
        90        2.0000           -0.4221827             -11.4882
        91        2.0000           -0.4149611             -11.2917
        92        2.0000           -0.4065825             -11.0637
        93        2.0000           -0.4054345             -11.0324
        94        2.0000           -0.3923092             -10.6753
        95        2.0000           -0.3751377             -10.2080
        96        2.0000           -0.3571922              -9.7197 (HOMO)
        97        0.0000           -0.3362664              -9.1503 (LUMO)
        98                         -0.3267650              -8.8917
        99                         -0.3097165              -8.4278
       100                         -0.2891398              -7.8679
       101                         -0.2641592              -7.1881
       ...                                ...                  ...
       187                          0.7378485              20.0779
      -------------------------------------------------------------
                  HL-Gap            0.0209258 Eh            0.5694 eV
             Fermi-level           -0.3467293 Eh           -9.4350 eV

 SCC (total)                   0 d,  0 h,  0 min,  0.026 sec
 SCC setup                      ...        0 min,  0.001 sec (  2.474%)
 Dispersion                     ...        0 min,  0.001 sec (  4.730%)
 integral evaluation            ...        0 min,  0.006 sec ( 23.878%)
 zeroth order Hamiltonian       ...        0 min,  0.000 sec (  1.382%)
 iterations                     ...        0 min,  0.011 sec ( 44.118%)
 molecular gradient             ...        0 min,  0.006 sec ( 21.704%)
 printout                       ...        0 min,  0.000 sec (  1.474%)

         :::::::::::::::::::::::::::::::::::::::::::::::::::::
         ::                     SUMMARY                     ::
         :::::::::::::::::::::::::::::::::::::::::::::::::::::
         :: total energy            -106.556440401856 Eh    ::
         :: gradient norm              0.000975053506 Eh/a0 ::
         :: HOMO-LUMO gap              0.569419777747 eV    ::
         ::.................................................::
         :: SCC energy              -108.132419794294 Eh    ::
         :: -> isotropic ES            0.090671744671 Eh    ::
         :: -> anisotropic ES          0.013984189057 Eh    ::
         :: -> anisotropic XC          0.035226864141 Eh    ::
         :: -> dispersion             -0.068218813159 Eh    ::
         :: repulsion energy           1.577398232006 Eh    ::
         :: add. restraining           0.000000000000 Eh    ::
         :::::::::::::::::::::::::::::::::::::::::::::::::::::

           -------------------------------------------------
          |                Property Printout                |
           -------------------------------------------------

    * Orbital Energies and Occupations

         #    Occupation            Energy/Eh            Energy/eV
      -------------------------------------------------------------
         1        2.0000           -0.7754286             -21.1005
       ...           ...                  ...                  ...
        84        2.0000           -0.4439908             -12.0816
        85        2.0000           -0.4424307             -12.0392
        86        2.0000           -0.4376942             -11.9103
        87        2.0000           -0.4346200             -11.8266
        88        2.0000           -0.4281700             -11.6511
        89        2.0000           -0.4242211             -11.5436
        90        2.0000           -0.4221827             -11.4882
        91        2.0000           -0.4149611             -11.2917
        92        2.0000           -0.4065825             -11.0637
        93        2.0000           -0.4054345             -11.0324
        94        2.0000           -0.3923092             -10.6753
        95        2.0000           -0.3751377             -10.2080
        96        2.0000           -0.3571922              -9.7197 (HOMO)
        97        0.0000           -0.3362664              -9.1503 (LUMO)
        98                         -0.3267650              -8.8917
        99                         -0.3097165              -8.4278
       100                         -0.2891398              -7.8679
       101                         -0.2641592              -7.1881
       102                         -0.2416791              -6.5764
       103                         -0.2385551              -6.4914
       104                         -0.2335395              -6.3549
       105                         -0.2250372              -6.1236
       106                         -0.2184659              -5.9448
       107                         -0.2145035              -5.8369
       ...                                ...                  ...
       187                          0.7378485              20.0779
      -------------------------------------------------------------
                  HL-Gap            0.0209258 Eh            0.5694 eV
             Fermi-level           -0.3467293 Eh           -9.4350 eV

     #   Z        covCN         q      C6AA      α(0)
     1   6 C      3.078     0.065    26.457     8.433
     2   8 O      1.728    -0.169    16.848     5.542
     3   6 C      3.069     0.068    26.408     8.426
     4   6 C      3.015    -0.066    29.611     8.926
     5   6 C      3.066    -0.012    28.240     8.714
     6   6 C      2.896    -0.033    28.812     8.801
     7   6 C      2.897    -0.034    28.842     8.805
     8   6 C      2.901    -0.030    28.755     8.792
     9   6 C      2.899    -0.033    28.832     8.804
    10   6 C      2.901    -0.028    28.703     8.784
    11   6 C      2.900    -0.033    28.820     8.802
    12   6 C      2.900    -0.030    28.745     8.791
    13   6 C      2.927    -0.040    28.997     8.831
    14   6 C      2.964     0.004    27.937     8.670
    15  16 S      2.411    -0.011   141.514    20.022
    16   6 C      2.971     0.021    27.535     8.607
    17   6 C      3.262    -0.026    27.442     8.462
    18   6 C      3.343     0.116    23.067     7.587
    19   8 O      1.716    -0.180    17.026     5.571
    20   6 C      3.086     0.118    25.311     8.247
    21   7 N      2.756     0.528    13.716     5.501
    22   8 O      0.933    -0.399    21.632     6.238
    23   8 O      0.931    -0.375    21.162     6.170
    24   6 C      2.980    -0.046    29.128     8.853
    25   6 C      2.941    -0.039    28.964     8.827
    26   6 C      2.899    -0.031    28.780     8.796
    27   6 C      2.898    -0.033    28.812     8.801
    28   6 C      2.939    -0.037    28.917     8.819
    29   6 C      2.998     0.023    27.480     8.599
    30  16 S      2.288     0.009   140.708    19.965
    31   6 C      3.101     0.019    27.446     8.585
    32   6 C      3.219    -0.043    28.329     8.655
    33   6 C      3.055    -0.031    28.713     8.788
    34   6 C      2.894     0.235    23.099     7.880
    35   8 O      0.856    -0.327    20.275     6.037
    36   6 C      3.043    -0.021    28.494     8.755
    37   6 C      2.970    -0.034    28.836     8.808
    38   6 C      2.889    -0.021    28.524     8.756
    39   6 C      2.840    -0.081    30.017     8.979
    40   1 H      0.926     0.051     2.301     2.372
    41   1 H      0.926     0.051     2.311     2.377
    42   1 H      0.927     0.043     2.415     2.430
    43   1 H      0.926     0.039     2.460     2.453
    44   1 H      0.925     0.041     2.436     2.441
    45   1 H      0.925     0.037     2.482     2.464
    46   1 H      0.926     0.041     2.438     2.441
    47   1 H      0.925     0.040     2.444     2.445
    48   1 H      0.925     0.043     2.407     2.426
    49   1 H      0.925     0.056     2.242     2.341
    50   1 H      0.926     0.051     2.307     2.375
    51   1 H      0.927     0.079     1.985     2.203
    52   1 H      0.926     0.053     2.287     2.365
    53   1 H      0.926     0.047     2.360     2.402
    54   1 H      0.926     0.045     2.384     2.415
    55   1 H      0.926     0.050     2.317     2.380
    56   1 H      0.926     0.060     2.194     2.316
    57   1 H      0.926     0.053     2.282     2.362
    58   1 H      0.925     0.061     2.189     2.313
    59   1 H      0.926     0.046     2.374     2.409
    60   1 H      0.926     0.049     2.328     2.386

 Mol. C6AA /au·bohr⁶  :      60047.519459
 Mol. C8AA /au·bohr⁸  :    1622244.986609
 Mol. α(0) /au        :        393.546403


Wiberg/Mayer (AO) data.
largest (>0.10) Wiberg bond orders for each atom
          total WBO             WBO to atom ...
     1  C   3.857        C    5 1.492    O    2 1.154    H   40 0.966    C    3 0.134
     2  O   2.452        C    1 1.154    C    3 1.126
     3  C   3.905        C    4 1.638    O    2 1.126    H   41 0.967    C    1 0.134
     4  C   3.971        C    3 1.638    C    5 1.225    H   42 0.973
     5  C   3.981        C    1 1.492    C    4 1.225    C    6 1.145
     6  C   3.907        C    7 1.672    C    5 1.145    H   43 0.961
     7  C   3.986        C    6 1.672    C    8 1.208    H   44 0.965
     8  C   3.908        C    9 1.609    C    7 1.208    H   45 0.966
     9  C   3.951        C    8 1.609    C   10 1.247    H   46 0.960
    10  C   3.914        C   11 1.584    C    9 1.247    H   47 0.959
    11  C   3.932        C   10 1.584    C   12 1.246    H   48 0.965
    12  C   3.937        C   13 1.573    C   11 1.246    H   49 0.963
    13  C   3.922        C   12 1.573    C   14 1.241    H   50 0.959
    14  C   3.901        C   18 1.350    C   13 1.241    S   15 1.111
    15  S   2.519        C   16 1.130    C   14 1.111
    16  C   3.898        C   25 1.292    C   17 1.277    S   15 1.130
    17  C   3.953        C   16 1.277    C   24 1.265    C   18 1.217
    18  C   3.878        C   14 1.350    C   17 1.217    O   19 1.081
    19  O   2.393        C   18 1.081    C   20 1.080
    20  C   3.886        C   24 1.507    O   19 1.080    N   21 1.022
    21  N   3.902        O   23 1.425    O   22 1.402    C   20 1.022
    22  O   1.874        N   21 1.402    O   23 0.347
    23  O   1.904        N   21 1.425    O   22 0.347
    24  C   3.978        C   20 1.507    C   17 1.265    H   51 0.964
    25  C   3.924        C   26 1.528    C   16 1.292    H   52 0.957
    26  C   3.926        C   25 1.528    C   27 1.273    H   53 0.963
    27  C   3.959        C   28 1.552    C   26 1.273    H   54 0.964
    28  C   3.901        C   27 1.552    C   29 1.254    H   55 0.958
    29  C   3.923        C   33 1.389    C   28 1.254    S   30 1.106
    30  S   2.602        C   31 1.198    C   29 1.106
    31  C   3.898        C   32 1.342    S   30 1.198    C   37 1.168
    32  C   3.970        C   33 1.390    C   31 1.342    C   34 1.000
    33  C   3.947        C   32 1.390    C   29 1.389    H   56 0.959
    34  C   3.919        O   35 1.839    C   32 1.000    C   36 0.976
    35  O   2.098        C   34 1.839
    36  C   3.929        C   37 1.600    C   38 1.154    C   34 0.976
    37  C   3.981        C   36 1.600    C   31 1.168    H   57 0.968    C   39 0.111
    38  C   3.985        C   39 1.827    C   36 1.154    H   58 0.961
    39  C   3.924        C   38 1.827    H   60 0.978    H   59 0.976    C   37 0.111
    40  H   0.997        C    1 0.966
    41  H   0.997        C    3 0.967
    42  H   0.998        C    4 0.973
    43  H   0.998        C    6 0.961
    44  H   0.998        C    7 0.965
    45  H   0.998        C    8 0.966
    46  H   0.998        C    9 0.960
    47  H   0.998        C   10 0.959
    48  H   0.997        C   11 0.965
    49  H   0.996        C   12 0.963
    50  H   0.997        C   13 0.959
    51  H   0.993        C   24 0.964
    52  H   0.997        C   25 0.957
    53  H   0.997        C   26 0.963
    54  H   0.997        C   27 0.964
    55  H   0.997        C   28 0.958
    56  H   0.996        C   33 0.959
    57  H   0.997        C   37 0.968
    58  H   0.996        C   38 0.961
    59  H   0.998        C   39 0.976
    60  H   0.997        C   39 0.978

molecular dipole:
                 x           y           z       tot (Debye)
 q only:       -3.991       0.511       0.365
   full:       -3.724       0.380       0.292       9.543
molecular quadrupole (traceless):
                xx          xy          yy          xz          yz          zz
 q only:     -146.337    -113.450      96.676       6.591      16.772      49.660
  q+dip:     -133.540    -107.879      91.937       3.902      20.460      41.603
   full:     -139.482    -107.677      88.780       5.383      14.707      50.702

           -------------------------------------------------
          |                Geometry Summary                 |
           -------------------------------------------------

      molecular mass/u    :      551.6306000
   center of mass at/Å    :        6.9091580      12.2881200       0.5521776
  moments of inertia/u·Å² :        0.3612573E+04   0.3203419E+05   0.3562506E+05
rotational constants/cm⁻¹ :        0.4666378E-02   0.5262388E-03   0.4731959E-03

 * 61 selected distances

     #   Z        #   Z                                     value/Å
     1   6 C      2   8 O                                 1.3383714
     2   8 O      3   6 C                                 1.3458257
     3   6 C      4   6 C                                 1.3558619
     1   6 C      5   6 C                                 1.3763153
     4   6 C      5   6 C                                 1.4305141
     5   6 C      6   6 C                                 1.4342589
     6   6 C      7   6 C                                 1.3502291
     7   6 C      8   6 C                                 1.4269244
     8   6 C      9   6 C                                 1.3583060
     9   6 C     10   6 C                                 1.4154420
    10   6 C     11   6 C                                 1.3614301
    11   6 C     12   6 C                                 1.4183142
    12   6 C     13   6 C                                 1.3619755
    13   6 C     14   6 C                                 1.4110902
    14   6 C     15  16 S                                 1.7518415 (max)
    15  16 S     16   6 C                                 1.7512277
    16   6 C     17   6 C                                 1.4027615
    14   6 C     18   6 C                                 1.3854602
    17   6 C     18   6 C                                 1.4234688
    18   6 C     19   8 O                                 1.3496340
    19   8 O     20   6 C                                 1.3600497
    20   6 C     21   7 N                                 1.4091428
    21   7 N     22   8 O                                 1.2195880
    21   7 N     23   8 O                                 1.2143929
    17   6 C     24   6 C                                 1.4139730
    20   6 C     24   6 C                                 1.3728732
    16   6 C     25   6 C                                 1.4017997
    25   6 C     26   6 C                                 1.3673834
    26   6 C     27   6 C                                 1.4128532
    27   6 C     28   6 C                                 1.3647767
    28   6 C     29   6 C                                 1.4107749
    30  16 S     31   6 C                                 1.7067672
    31   6 C     32   6 C                                 1.3948924
    29   6 C     33   6 C                                 1.3937194
    32   6 C     33   6 C                                 1.3858484
    34   6 C     35   8 O                                 1.2055692
    31   6 C     37   6 C                                 1.4289518
    36   6 C     37   6 C                                 1.3648131
    36   6 C     38   6 C                                 1.4336519
    38   6 C     39   6 C                                 1.3342834
     1   6 C     40   1 H                                 1.0722046
     3   6 C     41   1 H                                 1.0721611
     4   6 C     42   1 H                                 1.0700465
     6   6 C     43   1 H                                 1.0809716
     7   6 C     44   1 H                                 1.0817264
     8   6 C     45   1 H                                 1.0836018
     9   6 C     46   1 H                                 1.0811835
    10   6 C     47   1 H                                 1.0815803
    11   6 C     48   1 H                                 1.0826502
    12   6 C     49   1 H                                 1.0814833
    13   6 C     50   1 H                                 1.0800817
    24   6 C     51   1 H                                 1.0700131 (min)
    25   6 C     52   1 H                                 1.0806486
    26   6 C     53   1 H                                 1.0796779
    27   6 C     54   1 H                                 1.0809409
    28   6 C     55   1 H                                 1.0808843
    33   6 C     56   1 H                                 1.0741030
    37   6 C     57   1 H                                 1.0745629
    38   6 C     58   1 H                                 1.0828229
    39   6 C     59   1 H                                 1.0766718
    39   6 C     60   1 H                                 1.0756906

 * 6 distinct bonds (by element types)

   Z      Z             #   av. dist./Å        max./Å        min./Å
   1 H    6 C          21     1.0782718     1.0836018     1.0700131
   6 C    6 C          29     1.3928602     1.4342589     1.3342834
   6 C    7 N           1     1.4091428     1.4091428     1.4091428
   6 C    8 O           5     1.3198900     1.3600497     1.2055692
   7 N    8 O           2     1.2169904     1.2195880     1.2143929
   6 C   16 S           3     1.7366122     1.7518415     1.7067672


optimized geometry written to: xtbopt.xyz


           -------------------------------------------------
          | TOTAL ENERGY             -106.556440401856 Eh   |
          | GRADIENT NORM               0.000975053506 Eh/α |
          | HOMO-LUMO GAP               0.569419777747 eV   |
           -------------------------------------------------

------------------------------------------------------------------------
 * finished run on 2021/06/03 at 17:58:57.632     
------------------------------------------------------------------------
 total:
 * wall-time:     0 d,  0 h,  0 min,  2.139 sec
 *  cpu-time:     0 d,  0 h,  0 min, 25.534 sec
 * ratio c/w:    11.937 speedup
 SCF:
 * wall-time:     0 d,  0 h,  0 min,  0.071 sec
 *  cpu-time:     0 d,  0 h,  0 min,  0.834 sec
 * ratio c/w:    11.832 speedup
 ANC optimizer:
 * wall-time:     0 d,  0 h,  0 min,  2.025 sec
 *  cpu-time:     0 d,  0 h,  0 min, 24.298 sec
 * ratio c/w:    11.999 speedup

