      -----------------------------------------------------------      
     |                   =====================                   |     
     |                           x T B                           |     
     |                   =====================                   |     
     |                         S. Grimme                         |     
     |          Mulliken Center for Theoretical Chemistry        |     
     |                    University of Bonn                     |     
     |                Version 6.2 RC2 (SAW190805)                |     
      -----------------------------------------------------------      

   This program is distributed in the hope that it will be useful,
   but WITHOUT ANY WARRANTY; without even the implied warranty of
   MERCHANTABILITY or FITNESS FOR A PARTICULAR PURPOSE.
   
   FOR NON-COMMERCIAL, ACADEMIA USE ONLY.
   
   Cite this work as:
   * S. Grimme, C. Bannwarth, P. Shushkov, J. Chem. Theory Comput., 2017,
     13, 1989-2009. DOI: 10.1021/acs.jctc.7b00118
   * C. Bannwarth, S. Ehlert and S. Grimme., J. Chem. Theory Comput., 2019,
     15, 1652-1671. DOI: 10.1021/acs.jctc.8b01176
   * P. Pracht, E. Caldeweyher, S. Ehlert, S. Grimme, ChemRxiv, 2019, preprint.
     DOI: 10.26434/chemrxiv.8326202.v1
   
   for DFT-D4:
   * E. Caldeweyher, C. Bannwarth and S. Grimme, J. Chem. Phys., 2017,
     147, 034112. DOI: 10.1063/1.4993215
   * E. Caldeweyher, S. Ehlert, A. Hansen, H. Neugebauer, S. Spicher,
     C. Bannwarth and S. Grimme, J. Chem. Phys., 2019, 150, 154122.
     DOI: 10.1063/1.5090222
   
   for sTDA-xTB:
   * S. Grimme and C. Bannwarth, J. Chem. Phys., 2016, 145, 054103.
     DOI: 10.1063/1.4959605
   
   in the mass-spec context:
   * V. Asgeirsson, C. Bauer and S. Grimme, Chem. Sci., 2017, 8, 4879.
     DOI: 10.1039/c7sc00601b
   
   for metadynamics refer to:
   * S. Grimme, J. Chem. Theory Comput., 2019, 155, 2847-2862
     DOI: 10.1021/acs.jctc.9b00143
   
   with help from (in alphabetical order)
   C. Bannwarth, F. Bohle, G. Brandenburg, E. Caldeweyher, M. Checinski,
   S. Dohm, S. Ehlert, S. Ehrlich, F. März, H. Neugebauer, J. Pisarek,
   P. Pracht, P. Shushkov, and S. Spicher.
   
 * started run on 2021/06/03 at 14:48:17.853     

           -------------------------------------------------
          |                Calculation Setup                |
           -------------------------------------------------

          program call               : /ihome/ghutchison/geoffh/xtb/xtb /ihome/ghutchison/blp62/GA/running_GA/sequence/generations/12/188_47_800_47_800_10204.xyz -opt
          hostname                   : smp-n16
          coordinate file            : /ihome/ghutchison/blp62/GA/running_GA/sequence/generations/12/188_47_800_47_800_10204.xyz
          omp threads                :                    12
          number of atoms            :                    77
          number of electrons        :                   270
          charge                     :                     0
          spin                       :                   0.0
          first test random number   :      0.39889503545411


########################################################################
# WARNING! Please study the warnings concerning your input carefully
#  - XTBPATH is not set, using XTBHOME instead
#  - the use of '-opt' is discouraged, please use '--opt' next time
########################################################################

           ------------------------------------------------- 
          |                 G F N 2 - x T B                 |
          | Geometry, Frequencies, Noncovalent interactions |
          |            JCTC 2019 parametrisation            |
           ------------------------------------------------- 
             KAB for C  - Si     :                1.0500
             KAB for H  - Pd     :                0.9500
             k(s)              :                1.8500
             k(p)              :                2.2300
             k(d)              :                2.2300
             k(f)              :                2.0000
             kEN (H0ij)        :               -2.0000
             D4 a1             :                0.5200
             D4 a2             :                5.0000
             D4 s6             :                1.0000
             D4 s8             :                2.7000
             D4 s9             :                5.0000
             alphaj            :                2.0000

  Z AO/shell   Hii/eV     exponent
  1     Wed Apr 25 08:07:45 CEST 2018   EN: 2.200 GM2: 0.406  GM3: 0.0800  RAES: 1.40
     1s    -10.707211    1.230000
  6     Wed Apr 25 08:07:45 CEST 2018   EN: 2.550 GM2: 0.538  GM3: 0.1500  RAES: 3.00
     2s    -13.970922    2.096432
     2p    -10.063292    1.800000
  7     Wed Apr 25 08:07:45 CEST 2018   EN: 3.040 GM2: 0.461  GM3:-0.0640  RAES: 1.90
     2s    -16.686243    2.339881
     2p    -12.523956    2.014332
  8     Wed Apr 25 08:07:45 CEST 2018   EN: 3.440 GM2: 0.452  GM3:-0.0517  RAES: 1.80
     2s    -20.229985    2.439742
     2p    -15.503117    2.137023
 16     Tue Apr 24 11:44:34 CEST 2018   EN: 2.580 GM2: 0.340  GM3:-0.0502  RAES: 3.10
     3s    -20.029654    1.981333
     3p    -11.377694    2.025643
     3d     -0.420282    1.702555

           ------------------------------------------------- 
          |        Self-Consistent Charge Iterations        |
           ------------------------------------------------- 

          ...................................................
          :                      SETUP                      :
          :.................................................:
          :  # basis functions                 278          :
          :  # atomic orbitals                 272          :
          :  # shells                          138          :
          :  # electrons                       270          :
          :  max. iterations                   250          :
          :  Hamiltonian                  GFN2-xTB          :
          :  restarted?                      false          :
          :  GBSA solvation                  false          :
          :  PC potential                    false          :
          :  electronic temp.          300.0000000     K    :
          :  accuracy                    1.0000000          :
          :  -> integral cutoff          0.2500000E+02      :
          :  -> integral neglect         0.1000000E-07      :
          :  -> SCF convergence          0.1000000E-05 Eh   :
          :  -> wf. convergence          0.1000000E-03 e    :
          :  Broyden damping             0.4000000          :
          ...................................................

 iter      E             dE          RMSdq      gap      omega  full diag
   1   -151.9295086 -0.151930E+03  0.508E+00    1.32       0.0  T
   2   -152.2171574 -0.287649E+00  0.273E+00    0.84       1.0  T
   3   -152.1485474  0.686100E-01  0.151E+00    0.47       1.0  T
   4   -152.1742189 -0.256716E-01  0.112E+00    0.33       1.0  T
   5   -152.2334786 -0.592597E-01  0.517E-01    0.21       1.0  T
   6   -152.2575408 -0.240622E-01  0.156E-01    0.24       1.0  T
   7   -152.2580395 -0.498622E-03  0.110E-01    0.30       1.0  T
   8   -152.2589378 -0.898380E-03  0.361E-02    0.27       1.0  T
   9   -152.2590038 -0.659386E-04  0.209E-02    0.27       1.0  T
  10   -152.2590268 -0.230556E-04  0.989E-03    0.27       1.2  T
  11   -152.2590293 -0.250652E-05  0.505E-03    0.27       2.3  T
  12   -152.2590299 -0.591885E-06  0.271E-03    0.27       4.2  T
  13   -152.2590304 -0.455136E-06  0.126E-03    0.27       9.0  T
  14   -152.2590304 -0.585788E-07  0.673E-04    0.27      16.9  T
  15   -152.2590305 -0.814327E-08  0.322E-04    0.27      35.4  T

   *** convergence criteria satisfied after 15 iterations ***

         #    Occupation            Energy/Eh            Energy/eV
      -------------------------------------------------------------
         1        2.0000           -0.7702008             -20.9582
       ...           ...                  ...                  ...
       129        2.0000           -0.4009355             -10.9100
       130        2.0000           -0.3942368             -10.7277
       131        2.0000           -0.3896312             -10.6024
       132        2.0000           -0.3796647             -10.3312
       133        2.0000           -0.3693038             -10.0493
       134        2.0000           -0.3650077              -9.9324
       135        1.9890           -0.3425517              -9.3213 (HOMO)
       136        0.0109           -0.3326674              -9.0523 (LUMO)
       137        0.0000           -0.3266789              -8.8894
       138                         -0.3140640              -8.5461
       139                         -0.2992808              -8.1438
       140                         -0.2760976              -7.5130
       ...                                ...                  ...
       272                          0.7751601              21.0932
      -------------------------------------------------------------
                  HL-Gap            0.0098843 Eh            0.2690 eV
             Fermi-level           -0.3376104 Eh           -9.1868 eV

 SCC (total)                   0 d,  0 h,  0 min,  0.137 sec
 SCC setup                      ...        0 min,  0.001 sec (  0.992%)
 Dispersion                     ...        0 min,  0.003 sec (  1.822%)
 integral evaluation            ...        0 min,  0.014 sec ( 10.083%)
 zeroth order Hamiltonian       ...        0 min,  0.001 sec (  0.594%)
 iterations                     ...        0 min,  0.107 sec ( 77.867%)
 molecular gradient             ...        0 min,  0.011 sec (  8.142%)
 printout                       ...        0 min,  0.001 sec (  0.440%)

         :::::::::::::::::::::::::::::::::::::::::::::::::::::
         ::                     SUMMARY                     ::
         :::::::::::::::::::::::::::::::::::::::::::::::::::::
         :: total energy            -150.231629881635 Eh    ::
         :: gradient norm              0.180985196116 Eh/a0 ::
         :: HOMO-LUMO gap              0.268965659126 eV    ::
         ::.................................................::
         :: SCC energy              -152.259030456456 Eh    ::
         :: -> isotropic ES            0.127349229715 Eh    ::
         :: -> anisotropic ES          0.024279057867 Eh    ::
         :: -> anisotropic XC          0.043000606763 Eh    ::
         :: -> dispersion             -0.107562382294 Eh    ::
         :: repulsion energy           2.026539385292 Eh    ::
         :: add. restraining           0.000000000000 Eh    ::
         :::::::::::::::::::::::::::::::::::::::::::::::::::::

      ----------------------------------------------------------- 
     |                   =====================                   |
     |                        A N C O P T                        |
     |                   =====================                   |
     |               Approximate Normal Coordinate               |
     |                Rational Function Optimizer                |
      ----------------------------------------------------------- 

          ...................................................
          :                      SETUP                      :
          :.................................................:
          :   optimization level            normal          :
          :   max. optcycles                   231          :
          :   ANC micro-cycles                  20          :
          :   degrees of freedom               225          :
          :.................................................:
          :   RF solver                   davidson          :
          :   input Hessian                  false          :
          :   write xtbopt.log                true          :
          :   linear?                        false          :
          :   energy convergence         0.5000000E-05 Eh   :
          :   grad. convergence          0.1000000E-02 Eh/α :
          :   maximium RF displ.         2.0000000          :
          :   Hlow (freq-cutoff)         0.5000000E-02      :
          :   Hmax (freq-cutoff)         5.0000000          :
          :   S6 in model hess.         20.0000000          :
          ...................................................

generating ANC from model Hessian ...
Using Lindh-Hessian (1995)
 Shifting diagonal of input Hessian by   4.983341509373587E-003
 Lowest  eigenvalues of input Hessian
   -0.000000   -0.000000    0.000000    0.000000    0.000000    0.000000
    0.005000    0.005030    0.005041    0.005089    0.005142    0.005150
    0.005305    0.005328    0.005524    0.005712    0.005881    0.006241
 Highest eigenvalues
    2.158518    2.171999    2.253934    2.256107    2.485154    2.506891
 

........................................................................
.............................. CYCLE    1 ..............................
........................................................................
   1   -152.2590305 -0.152259E+03  0.177E-04    0.27       0.0  T
   2   -152.2590305  0.448324E-09  0.165E-04    0.27      69.1  T
   3   -152.2590305 -0.166006E-08  0.866E-05    0.27     131.6  T
     SCC iter.                  ...        0 min,  0.022 sec
     gradient                   ...        0 min,  0.011 sec
 * total energy  :  -150.2316299 Eh     change       -0.2309281E-07 Eh
   gradient norm :     0.1809855 Eh/α   predicted     0.0000000E+00 (-100.00%)
   displ. norm   :     0.4040167 α      lambda       -0.4114599E-01
   maximum displ.:     0.1145400 α      in ANC's #76, #74, #44, ...

........................................................................
.............................. CYCLE    2 ..............................
........................................................................
   1   -152.2953878 -0.152295E+03  0.431E-01    0.40       0.0  T
   2   -152.2959283 -0.540542E-03  0.228E-01    0.33       1.0  T
   3   -152.2930638  0.286451E-02  0.197E-01    0.31       1.0  T
   4   -152.2960112 -0.294738E-02  0.847E-02    0.31       1.0  T
   5   -152.2965763 -0.565099E-03  0.359E-02    0.32       1.0  T
   6   -152.2966326 -0.562611E-04  0.194E-02    0.31       1.0  T
   7   -152.2966499 -0.173660E-04  0.983E-03    0.32       1.2  T
   8   -152.2966549 -0.500014E-05  0.501E-03    0.32       2.3  T
   9   -152.2966570 -0.207796E-05  0.174E-03    0.31       6.6  T
     SCC iter.                  ...        0 min,  0.061 sec
     gradient                   ...        0 min,  0.010 sec
 * total energy  :  -150.2610770 Eh     change       -0.2944712E-01 Eh
   gradient norm :     0.0839718 Eh/α   predicted    -0.2393115E-01 ( -18.73%)
   displ. norm   :     0.4433442 α      lambda       -0.1653374E-01
   maximum displ.:     0.1477766 α      in ANC's #43, #44, #17, ...

........................................................................
.............................. CYCLE    3 ..............................
........................................................................
   1   -152.3057910 -0.152306E+03  0.383E-01    0.40       0.0  T
   2   -152.3058321 -0.411152E-04  0.208E-01    0.37       1.0  T
   3   -152.3011126  0.471948E-02  0.228E-01    0.36       1.0  T
   4   -152.3060966 -0.498398E-02  0.677E-02    0.35       1.0  T
   5   -152.3064522 -0.355619E-03  0.274E-02    0.36       1.0  T
   6   -152.3064434  0.884991E-05  0.231E-02    0.35       1.0  T
   7   -152.3064850 -0.415779E-04  0.889E-03    0.36       1.3  T
   8   -152.3064906 -0.559983E-05  0.404E-03    0.36       2.8  T
   9   -152.3064919 -0.130794E-05  0.147E-03    0.36       7.7  T
     SCC iter.                  ...        0 min,  0.061 sec
     gradient                   ...        0 min,  0.010 sec
 * total energy  :  -150.2710500 Eh     change       -0.9973002E-02 Eh
   gradient norm :     0.0286929 Eh/α   predicted    -0.9891761E-02 (  -0.81%)
   displ. norm   :     0.4832496 α      lambda       -0.6205062E-02
   maximum displ.:     0.1956814 α      in ANC's #17, #43, #45, ...

........................................................................
.............................. CYCLE    4 ..............................
........................................................................
   1   -152.2955973 -0.152296E+03  0.377E-01    0.34       0.0  T
   2   -152.2956883 -0.909576E-04  0.197E-01    0.34       1.0  T
   3   -152.2936440  0.204426E-02  0.144E-01    0.35       1.0  T
   4   -152.2956935 -0.204945E-02  0.464E-02    0.35       1.0  T
   5   -152.2958253 -0.131840E-03  0.208E-02    0.35       1.0  T
   6   -152.2958206  0.466137E-05  0.149E-02    0.35       1.0  T
   7   -152.2958391 -0.185001E-04  0.678E-03    0.35       1.7  T
   8   -152.2958435 -0.437488E-05  0.218E-03    0.35       5.2  T
   9   -152.2958437 -0.192708E-06  0.129E-03    0.35       8.9  T
     SCC iter.                  ...        0 min,  0.061 sec
     gradient                   ...        0 min,  0.010 sec
 * total energy  :  -150.2747270 Eh     change       -0.3676972E-02 Eh
   gradient norm :     0.0314994 Eh/α   predicted    -0.3827069E-02 (   4.08%)
   displ. norm   :     0.5451556 α      lambda       -0.5180829E-02
   maximum displ.:     0.2250415 α      in ANC's #17, #43, #26, ...

........................................................................
.............................. CYCLE    5 ..............................
........................................................................
   1   -152.2817288 -0.152282E+03  0.369E-01    0.31       0.0  T
   2   -152.2818941 -0.165260E-03  0.195E-01    0.34       1.0  T
   3   -152.2797585  0.213562E-02  0.150E-01    0.33       1.0  T
   4   -152.2816678 -0.190936E-02  0.684E-02    0.34       1.0  T
   5   -152.2820803 -0.412500E-03  0.211E-02    0.34       1.0  T
   6   -152.2820651  0.152079E-04  0.183E-02    0.34       1.0  T
   7   -152.2820909 -0.257522E-04  0.770E-03    0.34       1.5  T
   8   -152.2820960 -0.516142E-05  0.355E-03    0.34       3.2  T
   9   -152.2820971 -0.108969E-05  0.148E-03    0.34       7.7  T
     SCC iter.                  ...        0 min,  0.060 sec
     gradient                   ...        0 min,  0.010 sec
 * total energy  :  -150.2784558 Eh     change       -0.3728784E-02 Eh
   gradient norm :     0.0317097 Eh/α   predicted    -0.3360309E-02 (  -9.88%)
   displ. norm   :     0.5425745 α      lambda       -0.4160514E-02
   maximum displ.:     0.2265187 α      in ANC's #17, #43, #19, ...

........................................................................
.............................. CYCLE    6 ..............................
........................................................................
   1   -152.2813887 -0.152281E+03  0.316E-01    0.29       0.0  T
   2   -152.2815092 -0.120435E-03  0.169E-01    0.33       1.0  T
   3   -152.2804987  0.101049E-02  0.105E-01    0.31       1.0  T
   4   -152.2811651 -0.666453E-03  0.644E-02    0.33       1.0  T
   5   -152.2815681 -0.402950E-03  0.212E-02    0.32       1.0  T
   6   -152.2815380  0.301253E-04  0.234E-02    0.32       1.0  T
   7   -152.2815976 -0.596354E-04  0.493E-03    0.32       2.3  T
   8   -152.2815994 -0.179206E-05  0.210E-03    0.32       5.4  T
   9   -152.2815996 -0.259084E-06  0.105E-03    0.32      10.9  T
     SCC iter.                  ...        0 min,  0.060 sec
     gradient                   ...        0 min,  0.010 sec
 * total energy  :  -150.2816610 Eh     change       -0.3205253E-02 Eh
   gradient norm :     0.0320744 Eh/α   predicted    -0.2692668E-02 ( -15.99%)
   displ. norm   :     0.6108389 α      lambda       -0.4486992E-02
   maximum displ.:     0.2577999 α      in ANC's #17, #19, #16, ...

........................................................................
.............................. CYCLE    7 ..............................
........................................................................
   1   -152.2912132 -0.152291E+03  0.371E-01    0.28       0.0  T
   2   -152.2913771 -0.163973E-03  0.194E-01    0.31       1.0  T
   3   -152.2909996  0.377587E-03  0.755E-02    0.31       1.0  T
   4   -152.2912183 -0.218747E-03  0.487E-02    0.31       1.0  T
   5   -152.2913718 -0.153507E-03  0.293E-02    0.31       1.0  T
   6   -152.2914247 -0.528438E-04  0.149E-02    0.31       1.0  T
   7   -152.2914365 -0.118567E-04  0.843E-03    0.31       1.4  T
   8   -152.2914439 -0.737395E-05  0.336E-03    0.31       3.4  T
   9   -152.2914449 -0.987108E-06  0.136E-03    0.31       8.4  T
  10   -152.2914449 -0.771247E-07  0.784E-04    0.31      14.5  T
     SCC iter.                  ...        0 min,  0.067 sec
     gradient                   ...        0 min,  0.010 sec
 * total energy  :  -150.2847175 Eh     change       -0.3056434E-02 Eh
   gradient norm :     0.0281773 Eh/α   predicted    -0.3080604E-02 (   0.79%)
   displ. norm   :     0.6295514 α      lambda       -0.4474420E-02
   maximum displ.:     0.2614530 α      in ANC's #17, #16, #13, ...

........................................................................
.............................. CYCLE    8 ..............................
........................................................................
   1   -152.3043298 -0.152304E+03  0.417E-01    0.31       0.0  T
   2   -152.3044898 -0.160073E-03  0.215E-01    0.34       1.0  T
   3   -152.3034030  0.108683E-02  0.114E-01    0.30       1.0  T
   4   -152.3042192 -0.816203E-03  0.619E-02    0.33       1.0  T
   5   -152.3044468 -0.227597E-03  0.419E-02    0.33       1.0  T
   6   -152.3045888 -0.142003E-03  0.188E-02    0.33       1.0  T
   7   -152.3046157 -0.268517E-04  0.774E-03    0.33       1.5  T
   8   -152.3046214 -0.570083E-05  0.268E-03    0.33       4.3  T
   9   -152.3046218 -0.405557E-06  0.157E-03    0.33       7.2  T
     SCC iter.                  ...        0 min,  0.061 sec
     gradient                   ...        0 min,  0.010 sec
 * total energy  :  -150.2879341 Eh     change       -0.3216625E-02 Eh
   gradient norm :     0.0279896 Eh/α   predicted    -0.3123899E-02 (  -2.88%)
   displ. norm   :     0.6525251 α      lambda       -0.3846657E-02
   maximum displ.:     0.2404056 α      in ANC's #13, #17, #19, ...

........................................................................
.............................. CYCLE    9 ..............................
........................................................................
   1   -152.3118746 -0.152312E+03  0.413E-01    0.33       0.0  T
   2   -152.3120005 -0.125963E-03  0.207E-01    0.36       1.0  T
   3   -152.3104364  0.156410E-02  0.129E-01    0.34       1.0  T
   4   -152.3116977 -0.126130E-02  0.622E-02    0.35       1.0  T
   5   -152.3119898 -0.292061E-03  0.366E-02    0.36       1.0  T
   6   -152.3120873 -0.975298E-04  0.163E-02    0.35       1.0  T
   7   -152.3121055 -0.182348E-04  0.768E-03    0.35       1.5  T
   8   -152.3121113 -0.577973E-05  0.269E-03    0.35       4.2  T
   9   -152.3121119 -0.562539E-06  0.126E-03    0.35       9.0  T
     SCC iter.                  ...        0 min,  0.061 sec
     gradient                   ...        0 min,  0.010 sec
 * total energy  :  -150.2911515 Eh     change       -0.3217361E-02 Eh
   gradient norm :     0.0256360 Eh/α   predicted    -0.2742291E-02 ( -14.77%)
   displ. norm   :     0.7683464 α      lambda       -0.4831628E-02
   maximum displ.:     0.2911244 α      in ANC's #13, #17, #26, ...

........................................................................
.............................. CYCLE   10 ..............................
........................................................................
   1   -152.3115372 -0.152312E+03  0.463E-01    0.34       0.0  T
   2   -152.3116545 -0.117262E-03  0.242E-01    0.40       1.0  T
   3   -152.3056336  0.602092E-02  0.241E-01    0.34       1.0  T
   4   -152.3109801 -0.534656E-02  0.950E-02    0.39       1.0  T
   5   -152.3118076 -0.827500E-03  0.504E-02    0.40       1.0  T
   6   -152.3120174 -0.209741E-03  0.237E-02    0.39       1.0  T
   7   -152.3120506 -0.331730E-04  0.105E-02    0.38       1.1  T
   8   -152.3120591 -0.858418E-05  0.527E-03    0.38       2.2  T
   9   -152.3120617 -0.254783E-05  0.210E-03    0.39       5.4  T
  10   -152.3120620 -0.279611E-06  0.116E-03    0.39       9.8  T
     SCC iter.                  ...        0 min,  0.071 sec
     gradient                   ...        0 min,  0.012 sec
 * total energy  :  -150.2949406 Eh     change       -0.3789141E-02 Eh
   gradient norm :     0.0316635 Eh/α   predicted    -0.3842013E-02 (   1.40%)
   displ. norm   :     0.6955896 α      lambda       -0.5639832E-02
   maximum displ.:     0.2978422 α      in ANC's #13, #19, #8, ...

........................................................................
.............................. CYCLE   11 ..............................
........................................................................
   1   -152.3255733 -0.152326E+03  0.419E-01    0.39       0.0  T
   2   -152.3258454 -0.272110E-03  0.219E-01    0.44       1.0  T
   3   -152.3182183  0.762711E-02  0.272E-01    0.36       1.0  T
   4   -152.3257113 -0.749295E-02  0.864E-02    0.42       1.0  T
   5   -152.3258690 -0.157705E-03  0.718E-02    0.43       1.0  T
   6   -152.3264514 -0.582449E-03  0.238E-02    0.42       1.0  T
   7   -152.3264774 -0.259877E-04  0.162E-02    0.41       1.0  T
   8   -152.3265047 -0.273371E-04  0.650E-03    0.41       1.8  T
   9   -152.3265079 -0.317514E-05  0.237E-03    0.42       4.8  T
  10   -152.3265083 -0.343883E-06  0.116E-03    0.42       9.8  T
     SCC iter.                  ...        0 min,  0.066 sec
     gradient                   ...        0 min,  0.010 sec
 * total energy  :  -150.2957816 Eh     change       -0.8409771E-03 Eh
   gradient norm :     0.0672992 Eh/α   predicted    -0.4184326E-02 ( 397.56%)
   displ. norm   :     0.5050212 α      lambda       -0.8330505E-02
   maximum displ.:     0.1880213 α      in ANC's #17, #16, #9, ...

........................................................................
.............................. CYCLE   12 ..............................
........................................................................
   1   -152.3014957 -0.152301E+03  0.323E-01    0.36       0.0  T
   2   -152.3018901 -0.394452E-03  0.169E-01    0.39       1.0  T
   3   -152.3007013  0.118879E-02  0.115E-01    0.39       1.0  T
   4   -152.3014799 -0.778567E-03  0.713E-02    0.40       1.0  T
   5   -152.3017988 -0.318875E-03  0.466E-02    0.39       1.0  T
   6   -152.3019947 -0.195926E-03  0.205E-02    0.40       1.0  T
   7   -152.3020347 -0.399818E-04  0.972E-03    0.39       1.2  T
   8   -152.3020394 -0.469623E-05  0.688E-03    0.39       1.7  T
   9   -152.3020444 -0.498590E-05  0.197E-03    0.39       5.8  T
  10   -152.3020447 -0.300631E-06  0.998E-04    0.39      11.4  T
     SCC iter.                  ...        0 min,  0.066 sec
     gradient                   ...        0 min,  0.010 sec
 * total energy  :  -150.3009895 Eh     change       -0.5207928E-02 Eh
   gradient norm :     0.0252195 Eh/α   predicted    -0.5227588E-02 (   0.38%)
   displ. norm   :     0.6755151 α      lambda       -0.4466983E-02
   maximum displ.:     0.2602981 α      in ANC's #13, #17, #9, ...

........................................................................
.............................. CYCLE   13 ..............................
........................................................................
   1   -152.3008365 -0.152301E+03  0.413E-01    0.34       0.0  T
   2   -152.3010129 -0.176464E-03  0.211E-01    0.37       1.0  T
   3   -152.2984932  0.251975E-02  0.144E-01    0.35       1.0  T
   4   -152.3006803 -0.218707E-02  0.690E-02    0.38       1.0  T
   5   -152.3011335 -0.453294E-03  0.302E-02    0.38       1.0  T
   6   -152.3011348 -0.126006E-05  0.245E-02    0.37       1.0  T
   7   -152.3011920 -0.572131E-04  0.124E-02    0.37       1.0  T
   8   -152.3012075 -0.154411E-04  0.530E-03    0.37       2.2  T
   9   -152.3012102 -0.274618E-05  0.174E-03    0.37       6.5  T
  10   -152.3012105 -0.247585E-06  0.870E-04    0.37      13.1  T
     SCC iter.                  ...        0 min,  0.066 sec
     gradient                   ...        0 min,  0.010 sec
 * total energy  :  -150.3035421 Eh     change       -0.2552607E-02 Eh
   gradient norm :     0.0425759 Eh/α   predicted    -0.3252694E-02 (  27.43%)
   displ. norm   :     0.6245760 α      lambda       -0.4968566E-02
   maximum displ.:     0.2513712 α      in ANC's #9, #13, #8, ...

........................................................................
.............................. CYCLE   14 ..............................
........................................................................
   1   -152.2997577 -0.152300E+03  0.339E-01    0.34       0.0  T
   2   -152.2986993  0.105841E-02  0.195E-01    0.37       1.0  T
   3   -152.2738986  0.248006E-01  0.422E-01    0.33       1.0  T
   4   -152.2997769 -0.258782E-01  0.559E-02    0.37       1.0  T
   5   -152.2999154 -0.138487E-03  0.429E-02    0.36       1.0  T
   6   -152.3000773 -0.161915E-03  0.221E-02    0.36       1.0  T
   7   -152.3001055 -0.282313E-04  0.119E-02    0.36       1.0  T
   8   -152.3001205 -0.149777E-04  0.379E-03    0.36       3.0  T
   9   -152.3001208 -0.367485E-06  0.213E-03    0.36       5.4  T
  10   -152.3001212 -0.373916E-06  0.919E-04    0.36      12.4  T
     SCC iter.                  ...        0 min,  0.066 sec
     gradient                   ...        0 min,  0.010 sec
 * total energy  :  -150.3069926 Eh     change       -0.3450524E-02 Eh
   gradient norm :     0.0323708 Eh/α   predicted    -0.3453403E-02 (   0.08%)
   displ. norm   :     0.5280370 α      lambda       -0.5063193E-02
   maximum displ.:     0.1917953 α      in ANC's #8, #9, #13, ...

........................................................................
.............................. CYCLE   15 ..............................
........................................................................
   1   -152.3379649 -0.152338E+03  0.279E-01    0.37       0.0  T
   2   -152.3378888  0.761008E-04  0.150E-01    0.37       1.0  T
   3   -152.3314721  0.641675E-02  0.216E-01    0.34       1.0  T
   4   -152.3378183 -0.634617E-02  0.642E-02    0.37       1.0  T
   5   -152.3378823 -0.639963E-04  0.575E-02    0.37       1.0  T
   6   -152.3382440 -0.361746E-03  0.215E-02    0.37       1.0  T
   7   -152.3382897 -0.456650E-04  0.810E-03    0.37       1.4  T
   8   -152.3382945 -0.477861E-05  0.398E-03    0.37       2.9  T
   9   -152.3382957 -0.128382E-05  0.168E-03    0.37       6.8  T
     SCC iter.                  ...        0 min,  0.059 sec
     gradient                   ...        0 min,  0.010 sec
 * total energy  :  -150.3086856 Eh     change       -0.1692917E-02 Eh
   gradient norm :     0.0403577 Eh/α   predicted    -0.3237472E-02 (  91.24%)
   displ. norm   :     0.6447463 α      lambda       -0.5757295E-02
   maximum displ.:     0.2499972 α      in ANC's #19, #9, #8, ...

........................................................................
.............................. CYCLE   16 ..............................
........................................................................
   1   -152.3081976 -0.152308E+03  0.387E-01    0.35       0.0  T
   2   -152.3071266  0.107102E-02  0.214E-01    0.37       1.0  T
   3   -152.2704930  0.366336E-01  0.483E-01    0.34       1.0  T
   4   -152.3077656 -0.372727E-01  0.857E-02    0.36       1.0  T
   5   -152.3085023 -0.736684E-03  0.434E-02    0.36       1.0  T
   6   -152.3085997 -0.973816E-04  0.268E-02    0.35       1.0  T
   7   -152.3086218 -0.221035E-04  0.202E-02    0.35       1.0  T
   8   -152.3086635 -0.416940E-04  0.820E-03    0.35       1.4  T
   9   -152.3086712 -0.774086E-05  0.434E-03    0.35       2.6  T
  10   -152.3086736 -0.232675E-05  0.180E-03    0.35       6.3  T
  11   -152.3086738 -0.218952E-06  0.760E-04    0.35      15.0  T
     SCC iter.                  ...        0 min,  0.073 sec
     gradient                   ...        0 min,  0.010 sec
 * total energy  :  -150.3105007 Eh     change       -0.1815184E-02 Eh
   gradient norm :     0.0513067 Eh/α   predicted    -0.4075308E-02 ( 124.51%)
   displ. norm   :     0.4131520 α      lambda       -0.6895683E-02
   maximum displ.:     0.1548844 α      in ANC's #8, #9, #13, ...

........................................................................
.............................. CYCLE   17 ..............................
........................................................................
   1   -152.3156770 -0.152316E+03  0.285E-01    0.29       0.0  T
   2   -152.3156201  0.568184E-04  0.164E-01    0.32       1.0  T
   3   -152.3014683  0.141519E-01  0.304E-01    0.36       1.0  T
   4   -152.3148346 -0.133663E-01  0.121E-01    0.32       1.0  T
   5   -152.3159261 -0.109153E-02  0.696E-02    0.33       1.0  T
   6   -152.3164496 -0.523460E-03  0.303E-02    0.33       1.0  T
   7   -152.3165473 -0.976920E-04  0.117E-02    0.33       1.0  T
   8   -152.3165487 -0.144241E-05  0.826E-03    0.32       1.4  T
   9   -152.3165587 -0.994936E-05  0.301E-03    0.32       3.8  T
  10   -152.3165596 -0.929385E-06  0.160E-03    0.32       7.1  T
  11   -152.3165597 -0.141619E-06  0.812E-04    0.32      14.0  T
     SCC iter.                  ...        0 min,  0.072 sec
     gradient                   ...        0 min,  0.010 sec
 * total energy  :  -150.3108103 Eh     change       -0.3095466E-03 Eh
   gradient norm :     0.0589823 Eh/α   predicted    -0.4036375E-02 (1203.96%)
   displ. norm   :     0.4313511 α      lambda       -0.8160852E-02
   maximum displ.:     0.1325681 α      in ANC's #13, #8, #17, ...

........................................................................
.............................. CYCLE   18 ..............................
........................................................................
   1   -152.3084719 -0.152308E+03  0.216E-01    0.28       0.0  T
   2   -152.3083133  0.158615E-03  0.128E-01    0.30       1.0  T
   3   -152.3017736  0.653970E-02  0.216E-01    0.32       1.0  T
   4   -152.3059777 -0.420410E-02  0.138E-01    0.30       1.0  T
   5   -152.3082828 -0.230515E-02  0.648E-02    0.31       1.0  T
   6   -152.3088333 -0.550454E-03  0.230E-02    0.30       1.0  T
   7   -152.3088770 -0.437463E-04  0.122E-02    0.30       1.0  T
   8   -152.3088895 -0.124675E-04  0.563E-03    0.30       2.0  T
   9   -152.3088933 -0.381684E-05  0.304E-03    0.30       3.7  T
  10   -152.3088947 -0.146089E-05  0.118E-03    0.30       9.6  T
     SCC iter.                  ...        0 min,  0.066 sec
     gradient                   ...        0 min,  0.010 sec
 * total energy  :  -150.3118544 Eh     change       -0.1044127E-02 Eh
   gradient norm :     0.0572207 Eh/α   predicted    -0.4839652E-02 ( 363.51%)
   displ. norm   :     0.3256843 α      lambda       -0.8432193E-02
   maximum displ.:     0.1169831 α      in ANC's #9, #26, #8, ...

........................................................................
.............................. CYCLE   19 ..............................
........................................................................
   1   -152.3351361 -0.152335E+03  0.253E-01    0.35       0.0  T
   2   -152.3356571 -0.521061E-03  0.142E-01    0.35       1.0  T
   3   -152.3274107  0.824644E-02  0.231E-01    0.33       1.0  T
   4   -152.3334832 -0.607252E-02  0.142E-01    0.35       1.0  T
   5   -152.3357895 -0.230630E-02  0.627E-02    0.34       1.0  T
   6   -152.3361248 -0.335257E-03  0.325E-02    0.34       1.0  T
   7   -152.3362422 -0.117464E-03  0.135E-02    0.34       1.0  T
   8   -152.3362586 -0.163296E-04  0.699E-03    0.34       1.6  T
   9   -152.3362639 -0.534884E-05  0.287E-03    0.34       4.0  T
  10   -152.3362644 -0.494317E-06  0.140E-03    0.34       8.1  T
     SCC iter.                  ...        0 min,  0.066 sec
     gradient                   ...        0 min,  0.010 sec
 * total energy  :  -150.3129448 Eh     change       -0.1090355E-02 Eh
   gradient norm :     0.0579680 Eh/α   predicted    -0.4663295E-02 ( 327.69%)
   displ. norm   :     0.4134425 α      lambda       -0.7116740E-02
   maximum displ.:     0.1411847 α      in ANC's #8, #9, #13, ...

........................................................................
.............................. CYCLE   20 ..............................
........................................................................
   1   -152.3233117 -0.152323E+03  0.268E-01    0.32       0.0  T
   2   -152.3232302  0.815039E-04  0.147E-01    0.32       1.0  T
   3   -152.3114330  0.117973E-01  0.291E-01    0.33       1.0  T
   4   -152.3214379 -0.100049E-01  0.119E-01    0.33       1.0  T
   5   -152.3235905 -0.215257E-02  0.378E-02    0.32       1.0  T
   6   -152.3237622 -0.171693E-03  0.180E-02    0.32       1.0  T
   7   -152.3237577  0.451557E-05  0.154E-02    0.32       1.0  T
   8   -152.3237849 -0.272491E-04  0.638E-03    0.32       1.8  T
   9   -152.3237884 -0.347099E-05  0.302E-03    0.32       3.8  T
  10   -152.3237893 -0.877431E-06  0.181E-03    0.32       6.3  T
     SCC iter.                  ...        0 min,  0.066 sec
     gradient                   ...        0 min,  0.010 sec
 * total energy  :  -150.3141312 Eh     change       -0.1186391E-02 Eh
   gradient norm :     0.0529495 Eh/α   predicted    -0.4166617E-02 ( 251.20%)
   displ. norm   :     0.3700345 α      lambda       -0.7186708E-02
   maximum displ.:     0.1192081 α      in ANC's #36, #8, #43, ...
 * RMSD in coord.:     0.9706584 α      energy gain  -0.8250128E-01 Eh

generating ANC from model Hessian ...
Using Lindh-Hessian (1995)
 Shifting diagonal of input Hessian by   4.980791514936682E-003
 Lowest  eigenvalues of input Hessian
   -0.000000   -0.000000   -0.000000   -0.000000   -0.000000    0.000000
    0.005000    0.005036    0.005038    0.005099    0.005138    0.005182
    0.005264    0.005406    0.005536    0.005657    0.005960    0.006264
 Highest eigenvalues
    2.128196    2.139207    2.210366    2.275981    2.560058    2.697929
 

........................................................................
.............................. CYCLE   21 ..............................
........................................................................
   1   -152.3086872 -0.152309E+03  0.259E-01    0.25       0.0  T
   2   -152.2986537  0.100335E-01  0.283E-01    0.30       1.0  T
   3   -152.2876368  0.110169E-01  0.379E-01    0.34       1.0  T
   4   -152.3087552 -0.211184E-01  0.115E-01    0.30       1.0  T
   5   -152.3095908 -0.835583E-03  0.727E-02    0.29       1.0  T
   6   -152.3101565 -0.565729E-03  0.291E-02    0.29       1.0  T
   7   -152.3101862 -0.297074E-04  0.194E-02    0.29       1.0  T
   8   -152.3102250 -0.387915E-04  0.718E-03    0.29       1.6  T
   9   -152.3102270 -0.199933E-05  0.363E-03    0.29       3.1  T
  10   -152.3102265  0.493672E-06  0.275E-03    0.29       4.1  T
  11   -152.3102277 -0.119013E-05  0.121E-03    0.29       9.4  T
  12   -152.3102278 -0.147070E-06  0.640E-04    0.29      17.8  T
  13   -152.3102278 -0.685912E-08  0.390E-04    0.29      29.2  T
     SCC iter.                  ...        0 min,  0.086 sec
     gradient                   ...        0 min,  0.011 sec
 * total energy  :  -150.3141693 Eh     change       -0.3809834E-04 Eh
   gradient norm :     0.0599544 Eh/α   predicted     0.0000000E+00 (-100.00%)
   displ. norm   :     0.2912551 α      lambda       -0.5018341E-02
   maximum displ.:     0.1059628 α      in ANC's #8, #12, #9, ...

........................................................................
.............................. CYCLE   22 ..............................
........................................................................
   1   -152.3249422 -0.152325E+03  0.181E-01    0.31       0.0  T
   2   -152.3243448  0.597371E-03  0.116E-01    0.31       1.0  T
   3   -152.3100623  0.142825E-01  0.298E-01    0.31       1.0  T
   4   -152.3240059 -0.139436E-01  0.882E-02    0.31       1.0  T
   5   -152.3249460 -0.940044E-03  0.438E-02    0.30       1.0  T
   6   -152.3251763 -0.230313E-03  0.145E-02    0.30       1.0  T
   7   -152.3251897 -0.133494E-04  0.785E-03    0.30       1.5  T
   8   -152.3251949 -0.528103E-05  0.478E-03    0.30       2.4  T
   9   -152.3251977 -0.281346E-05  0.135E-03    0.30       8.5  T
     SCC iter.                  ...        0 min,  0.060 sec
     gradient                   ...        0 min,  0.010 sec
 * total energy  :  -150.3176329 Eh     change       -0.3463596E-02 Eh
   gradient norm :     0.0194542 Eh/α   predicted    -0.2722023E-02 ( -21.41%)
   displ. norm   :     0.3309467 α      lambda       -0.1765691E-02
   maximum displ.:     0.1203444 α      in ANC's #8, #12, #18, ...

........................................................................
.............................. CYCLE   23 ..............................
........................................................................
   1   -152.3320361 -0.152332E+03  0.202E-01    0.31       0.0  T
   2   -152.3319064  0.129641E-03  0.108E-01    0.31       1.0  T
   3   -152.3213902  0.105162E-01  0.250E-01    0.31       1.0  T
   4   -152.3314672 -0.100770E-01  0.672E-02    0.31       1.0  T
   5   -152.3319985 -0.531264E-03  0.343E-02    0.31       1.0  T
   6   -152.3321379 -0.139411E-03  0.116E-02    0.31       1.0  T
   7   -152.3321461 -0.828124E-05  0.452E-03    0.31       2.5  T
   8   -152.3321471 -0.937247E-06  0.309E-03    0.31       3.7  T
   9   -152.3321485 -0.137250E-05  0.935E-04    0.31      12.2  T
  10   -152.3321485 -0.535118E-07  0.598E-04    0.31      19.0  T
     SCC iter.                  ...        0 min,  0.067 sec
     gradient                   ...        0 min,  0.010 sec
 * total energy  :  -150.3187377 Eh     change       -0.1104812E-02 Eh
   gradient norm :     0.0105639 Eh/α   predicted    -0.9795404E-03 ( -11.34%)
   displ. norm   :     0.4376136 α      lambda       -0.1349581E-02
   maximum displ.:     0.1701818 α      in ANC's #8, #12, #9, ...

........................................................................
.............................. CYCLE   24 ..............................
........................................................................
   1   -152.3332019 -0.152333E+03  0.254E-01    0.31       0.0  T
   2   -152.3331724  0.294538E-04  0.133E-01    0.31       1.0  T
   3   -152.3288263  0.434611E-02  0.168E-01    0.30       1.0  T
   4   -152.3323073 -0.348096E-02  0.780E-02    0.31       1.0  T
   5   -152.3331126 -0.805348E-03  0.376E-02    0.31       1.0  T
   6   -152.3332706 -0.157946E-03  0.138E-02    0.31       1.0  T
   7   -152.3332877 -0.171266E-04  0.543E-03    0.31       2.1  T
   8   -152.3332909 -0.317981E-05  0.221E-03    0.31       5.1  T
   9   -152.3332914 -0.538027E-06  0.959E-04    0.31      11.9  T
  10   -152.3332915 -0.381445E-07  0.600E-04    0.31      19.0  T
     SCC iter.                  ...        0 min,  0.067 sec
     gradient                   ...        0 min,  0.010 sec
 * total energy  :  -150.3196376 Eh     change       -0.8999157E-03 Eh
   gradient norm :     0.0193035 Eh/α   predicted    -0.8040202E-03 ( -10.66%)
   displ. norm   :     0.5110425 α      lambda       -0.1291878E-02
   maximum displ.:     0.2126637 α      in ANC's #8, #12, #9, ...

........................................................................
.............................. CYCLE   25 ..............................
........................................................................
   1   -152.3297153 -0.152330E+03  0.268E-01    0.30       0.0  T
   2   -152.3296878  0.274830E-04  0.139E-01    0.30       1.0  T
   3   -152.3223827  0.730519E-02  0.212E-01    0.31       1.0  T
   4   -152.3294656 -0.708298E-02  0.513E-02    0.30       1.0  T
   5   -152.3297044 -0.238744E-03  0.291E-02    0.31       1.0  T
   6   -152.3297395 -0.350843E-04  0.185E-02    0.30       1.0  T
   7   -152.3297880 -0.484830E-04  0.406E-03    0.30       2.8  T
   8   -152.3297897 -0.177127E-05  0.154E-03    0.30       7.4  T
   9   -152.3297899 -0.180684E-06  0.678E-04    0.30      16.8  T
     SCC iter.                  ...        0 min,  0.060 sec
     gradient                   ...        0 min,  0.010 sec
 * total energy  :  -150.3207448 Eh     change       -0.1107232E-02 Eh
   gradient norm :     0.0161447 Eh/α   predicted    -0.8146380E-03 ( -26.43%)
   displ. norm   :     0.6374611 α      lambda       -0.1484148E-02
   maximum displ.:     0.2873801 α      in ANC's #8, #9, #12, ...

........................................................................
.............................. CYCLE   26 ..............................
........................................................................
   1   -152.3273197 -0.152327E+03  0.299E-01    0.29       0.0  T
   2   -152.3269997  0.319990E-03  0.163E-01    0.29       1.0  T
   3   -152.2969877  0.300120E-01  0.424E-01    0.34       1.0  T
   4   -152.3273203 -0.303326E-01  0.446E-02    0.29       1.0  T
   5   -152.3273958 -0.755121E-04  0.259E-02    0.30       1.0  T
   6   -152.3274357 -0.399511E-04  0.950E-03    0.29       1.2  T
   7   -152.3274385 -0.272712E-05  0.450E-03    0.29       2.5  T
   8   -152.3274399 -0.140386E-05  0.276E-03    0.29       4.1  T
   9   -152.3274410 -0.114976E-05  0.131E-03    0.29       8.7  T
     SCC iter.                  ...        0 min,  0.060 sec
     gradient                   ...        0 min,  0.010 sec
 * total energy  :  -150.3219009 Eh     change       -0.1156092E-02 Eh
   gradient norm :     0.0099254 Eh/α   predicted    -0.1043621E-02 (  -9.73%)
   displ. norm   :     0.6211678 α      lambda       -0.1030326E-02
   maximum displ.:     0.2973737 α      in ANC's #8, #9, #12, ...

........................................................................
.............................. CYCLE   27 ..............................
........................................................................
   1   -152.3265002 -0.152327E+03  0.267E-01    0.28       0.0  T
   2   -152.3265325 -0.322935E-04  0.141E-01    0.29       1.0  T
   3   -152.3249645  0.156801E-02  0.103E-01    0.29       1.0  T
   4   -152.3250490 -0.845108E-04  0.970E-02    0.28       1.0  T
   5   -152.3264640 -0.141500E-02  0.316E-02    0.29       1.0  T
   6   -152.3265100 -0.459897E-04  0.214E-02    0.29       1.0  T
   7   -152.3265682 -0.582498E-04  0.732E-03    0.29       1.6  T
   8   -152.3265747 -0.643725E-05  0.181E-03    0.29       6.3  T
   9   -152.3265749 -0.228889E-06  0.102E-03    0.29      11.1  T
  10   -152.3265749 -0.455347E-07  0.561E-04    0.29      20.3  T
     SCC iter.                  ...        0 min,  0.067 sec
     gradient                   ...        0 min,  0.010 sec
 * total energy  :  -150.3227475 Eh     change       -0.8465564E-03 Eh
   gradient norm :     0.0111650 Eh/α   predicted    -0.7139441E-03 ( -15.66%)
   displ. norm   :     0.6237809 α      lambda       -0.1033981E-02
   maximum displ.:     0.3198206 α      in ANC's #8, #9, #7, ...

........................................................................
.............................. CYCLE   28 ..............................
........................................................................
   1   -152.3303962 -0.152330E+03  0.245E-01    0.27       0.0  T
   2   -152.3299901  0.406134E-03  0.141E-01    0.28       1.0  T
   3   -152.2947754  0.352147E-01  0.455E-01    0.33       1.0  T
   4   -152.3303582 -0.355829E-01  0.395E-02    0.28       1.0  T
   5   -152.3304083 -0.501027E-04  0.258E-02    0.28       1.0  T
   6   -152.3304114 -0.302307E-05  0.197E-02    0.28       1.0  T
   7   -152.3304614 -0.500021E-04  0.813E-03    0.28       1.4  T
   8   -152.3304699 -0.851114E-05  0.259E-03    0.28       4.4  T
   9   -152.3304704 -0.476241E-06  0.170E-03    0.28       6.7  T
  10   -152.3304707 -0.327518E-06  0.939E-04    0.28      12.1  T
     SCC iter.                  ...        0 min,  0.067 sec
     gradient                   ...        0 min,  0.010 sec
 * total energy  :  -150.3235388 Eh     change       -0.7913268E-03 Eh
   gradient norm :     0.0111854 Eh/α   predicted    -0.7181561E-03 (  -9.25%)
   displ. norm   :     0.6309745 α      lambda       -0.1053312E-02
   maximum displ.:     0.3392660 α      in ANC's #8, #7, #9, ...

........................................................................
.............................. CYCLE   29 ..............................
........................................................................
   1   -152.3369171 -0.152337E+03  0.236E-01    0.27       0.0  T
   2   -152.3363346  0.582481E-03  0.143E-01    0.27       1.0  T
   3   -152.2970206  0.393140E-01  0.475E-01    0.31       1.0  T
   4   -152.3364321 -0.394114E-01  0.632E-02    0.27       1.0  T
   5   -152.3368104 -0.378329E-03  0.395E-02    0.27       1.0  T
   6   -152.3370005 -0.190060E-03  0.129E-02    0.27       1.0  T
   7   -152.3369511  0.493938E-04  0.172E-02    0.27       1.0  T
   8   -152.3370126 -0.615617E-04  0.340E-03    0.27       3.4  T
   9   -152.3370132 -0.580027E-06  0.185E-03    0.27       6.2  T
  10   -152.3370135 -0.301836E-06  0.810E-04    0.27      14.1  T
     SCC iter.                  ...        0 min,  0.067 sec
     gradient                   ...        0 min,  0.010 sec
 * total energy  :  -150.3242600 Eh     change       -0.7212362E-03 Eh
   gradient norm :     0.0129573 Eh/α   predicted    -0.7363335E-03 (   2.09%)
   displ. norm   :     0.6151001 α      lambda       -0.7920690E-03
   maximum displ.:     0.3346602 α      in ANC's #8, #7, #9, ...

........................................................................
.............................. CYCLE   30 ..............................
........................................................................
   1   -152.3327421 -0.152333E+03  0.234E-01    0.26       0.0  T
   2   -152.3327477 -0.557373E-05  0.129E-01    0.26       1.0  T
   3   -152.3311378  0.160988E-02  0.105E-01    0.26       1.0  T
   4   -152.3315983 -0.460516E-03  0.835E-02    0.26       1.0  T
   5   -152.3323833 -0.785031E-03  0.494E-02    0.26       1.0  T
   6   -152.3327794 -0.396068E-03  0.136E-02    0.26       1.0  T
   7   -152.3327944 -0.150308E-04  0.479E-03    0.26       2.4  T
   8   -152.3327967 -0.226414E-05  0.166E-03    0.26       6.9  T
   9   -152.3327969 -0.146095E-06  0.991E-04    0.26      11.5  T
     SCC iter.                  ...        0 min,  0.060 sec
     gradient                   ...        0 min,  0.010 sec
 * total energy  :  -150.3248893 Eh     change       -0.6292467E-03 Eh
   gradient norm :     0.0115326 Eh/α   predicted    -0.5458778E-03 ( -13.25%)
   displ. norm   :     0.5928086 α      lambda       -0.1023215E-02
   maximum displ.:     0.3302667 α      in ANC's #8, #7, #4, ...

........................................................................
.............................. CYCLE   31 ..............................
........................................................................
   1   -152.3421320 -0.152342E+03  0.215E-01    0.26       0.0  T
   2   -152.3419137  0.218304E-03  0.123E-01    0.26       1.0  T
   3   -152.3163802  0.255335E-01  0.388E-01    0.29       1.0  T
   4   -152.3409478 -0.245676E-01  0.837E-02    0.26       1.0  T
   5   -152.3419857 -0.103796E-02  0.387E-02    0.26       1.0  T
   6   -152.3422017 -0.215933E-03  0.118E-02    0.26       1.0  T
   7   -152.3421966  0.503243E-05  0.774E-03    0.26       1.5  T
   8   -152.3422041 -0.740097E-05  0.434E-03    0.26       2.6  T
   9   -152.3422081 -0.401852E-05  0.130E-03    0.26       8.8  T
  10   -152.3422082 -0.172138E-06  0.732E-04    0.26      15.6  T
  11   -152.3422083 -0.292015E-07  0.363E-04    0.26      31.4  T
     SCC iter.                  ...        0 min,  0.076 sec
     gradient                   ...        0 min,  0.012 sec
 * total energy  :  -150.3255820 Eh     change       -0.6927399E-03 Eh
   gradient norm :     0.0134685 Eh/α   predicted    -0.6913994E-03 (  -0.19%)
   displ. norm   :     0.7000412 α      lambda       -0.9505478E-03
   maximum displ.:     0.3759342 α      in ANC's #8, #7, #9, ...

........................................................................
.............................. CYCLE   32 ..............................
........................................................................
   1   -152.3363939 -0.152336E+03  0.269E-01    0.25       0.0  T
   2   -152.3361932  0.200700E-03  0.152E-01    0.26       1.0  T
   3   -152.3044750  0.317182E-01  0.417E-01    0.29       1.0  T
   4   -152.3359497 -0.314747E-01  0.589E-02    0.26       1.0  T
   5   -152.3362701 -0.320365E-03  0.383E-02    0.26       1.0  T
   6   -152.3364438 -0.173681E-03  0.147E-02    0.25       1.0  T
   7   -152.3364422  0.159495E-05  0.104E-02    0.25       1.1  T
   8   -152.3364625 -0.202688E-04  0.194E-03    0.25       5.9  T
   9   -152.3364626 -0.178196E-06  0.109E-03    0.25      10.5  T
  10   -152.3364626  0.722689E-07  0.896E-04    0.25      12.7  T
     SCC iter.                  ...        0 min,  0.066 sec
     gradient                   ...        0 min,  0.010 sec
 * total energy  :  -150.3263580 Eh     change       -0.7759890E-03 Eh
   gradient norm :     0.0145690 Eh/α   predicted    -0.7081866E-03 (  -8.74%)
   displ. norm   :     0.6347872 α      lambda       -0.1039976E-02
   maximum displ.:     0.3085328 α      in ANC's #7, #8, #9, ...

........................................................................
.............................. CYCLE   33 ..............................
........................................................................
   1   -152.3314162 -0.152331E+03  0.267E-01    0.26       0.0  T
   2   -152.3308922  0.523930E-03  0.153E-01    0.26       1.0  T
   3   -152.2824799  0.484124E-01  0.517E-01    0.32       1.0  T
   4   -152.3312501 -0.487702E-01  0.479E-02    0.26       1.0  T
   5   -152.3312926 -0.425414E-04  0.388E-02    0.26       1.0  T
   6   -152.3314702 -0.177607E-03  0.180E-02    0.25       1.0  T
   7   -152.3314480  0.222011E-04  0.160E-02    0.26       1.0  T
   8   -152.3314993 -0.512717E-04  0.288E-03    0.26       4.0  T
   9   -152.3315000 -0.755275E-06  0.129E-03    0.26       8.9  T
  10   -152.3315000  0.417705E-07  0.103E-03    0.26      11.1  T
     SCC iter.                  ...        0 min,  0.067 sec
     gradient                   ...        0 min,  0.010 sec
 * total energy  :  -150.3271591 Eh     change       -0.8011193E-03 Eh
   gradient norm :     0.0117322 Eh/α   predicted    -0.7295296E-03 (  -8.94%)
   displ. norm   :     0.6083184 α      lambda       -0.9118978E-03
   maximum displ.:     0.2965963 α      in ANC's #7, #8, #4, ...

........................................................................
.............................. CYCLE   34 ..............................
........................................................................
   1   -152.3324447 -0.152332E+03  0.269E-01    0.26       0.0  T
   2   -152.3324611 -0.163750E-04  0.140E-01    0.26       1.0  T
   3   -152.3270610  0.540008E-02  0.172E-01    0.26       1.0  T
   4   -152.3315625 -0.450149E-02  0.765E-02    0.26       1.0  T
   5   -152.3323109 -0.748460E-03  0.393E-02    0.26       1.0  T
   6   -152.3325061 -0.195112E-03  0.126E-02    0.26       1.0  T
   7   -152.3325175 -0.114269E-04  0.304E-03    0.26       3.8  T
   8   -152.3325178 -0.363463E-06  0.176E-03    0.26       6.5  T
   9   -152.3325181 -0.293280E-06  0.805E-04    0.26      14.1  T
     SCC iter.                  ...        0 min,  0.060 sec
     gradient                   ...        0 min,  0.010 sec
 * total energy  :  -150.3278046 Eh     change       -0.6454882E-03 Eh
   gradient norm :     0.0132267 Eh/α   predicted    -0.6246743E-03 (  -3.22%)
   displ. norm   :     0.6363268 α      lambda       -0.8948082E-03
   maximum displ.:     0.3321412 α      in ANC's #7, #8, #4, ...

........................................................................
.............................. CYCLE   35 ..............................
........................................................................
   1   -152.3312600 -0.152331E+03  0.261E-01    0.26       0.0  T
   2   -152.3312758 -0.157856E-04  0.137E-01    0.26       1.0  T
   3   -152.3286483  0.262754E-02  0.130E-01    0.26       1.0  T
   4   -152.3296272 -0.978969E-03  0.971E-02    0.26       1.0  T
   5   -152.3309971 -0.136990E-02  0.445E-02    0.26       1.0  T
   6   -152.3313030 -0.305876E-03  0.156E-02    0.26       1.0  T
   7   -152.3313150 -0.119931E-04  0.736E-03    0.26       1.5  T
   8   -152.3313247 -0.975250E-05  0.193E-03    0.26       5.9  T
   9   -152.3313253 -0.565763E-06  0.717E-04    0.26      15.9  T
  10   -152.3313253 -0.815731E-08  0.475E-04    0.26      24.0  T
     SCC iter.                  ...        0 min,  0.066 sec
     gradient                   ...        0 min,  0.010 sec
 * total energy  :  -150.3284138 Eh     change       -0.6091488E-03 Eh
   gradient norm :     0.0117885 Eh/α   predicted    -0.6285636E-03 (   3.19%)
   displ. norm   :     0.6093356 α      lambda       -0.7691598E-03
   maximum displ.:     0.3121718 α      in ANC's #7, #8, #4, ...

........................................................................
.............................. CYCLE   36 ..............................
........................................................................
   1   -152.3326986 -0.152333E+03  0.232E-01    0.26       0.0  T
   2   -152.3325415  0.157047E-03  0.127E-01    0.26       1.0  T
   3   -152.3074358  0.251057E-01  0.378E-01    0.29       1.0  T
   4   -152.3326131 -0.251773E-01  0.351E-02    0.26       1.0  T
   5   -152.3326185 -0.545786E-05  0.304E-02    0.26       1.0  T
   6   -152.3327012 -0.826413E-04  0.177E-02    0.26       1.0  T
   7   -152.3327468 -0.456430E-04  0.358E-03    0.26       3.2  T
   8   -152.3327471 -0.252512E-06  0.253E-03    0.26       4.5  T
   9   -152.3327481 -0.101385E-05  0.103E-03    0.26      11.0  T
     SCC iter.                  ...        0 min,  0.060 sec
     gradient                   ...        0 min,  0.010 sec
 * total energy  :  -150.3290245 Eh     change       -0.6107713E-03 Eh
   gradient norm :     0.0090815 Eh/α   predicted    -0.5273743E-03 ( -13.65%)
   displ. norm   :     0.5600397 α      lambda       -0.8038821E-03
   maximum displ.:     0.2766379 α      in ANC's #7, #8, #4, ...

........................................................................
.............................. CYCLE   37 ..............................
........................................................................
   1   -152.3464938 -0.152346E+03  0.215E-01    0.27       0.0  T
   2   -152.3452108  0.128298E-02  0.140E-01    0.27       1.0  T
   3   -152.2969208  0.482900E-01  0.535E-01    0.34       1.0  T
   4   -152.3462166 -0.492958E-01  0.531E-02    0.27       1.0  T
   5   -152.3465386 -0.322001E-03  0.211E-02    0.27       1.0  T
   6   -152.3465243  0.143852E-04  0.208E-02    0.27       1.0  T
   7   -152.3465739 -0.496471E-04  0.727E-03    0.27       1.6  T
   8   -152.3465794 -0.545510E-05  0.277E-03    0.27       4.1  T
   9   -152.3465801 -0.719764E-06  0.115E-03    0.27       9.9  T
  10   -152.3465801 -0.220251E-07  0.749E-04    0.27      15.2  T
     SCC iter.                  ...        0 min,  0.066 sec
     gradient                   ...        0 min,  0.010 sec
 * total energy  :  -150.3294060 Eh     change       -0.3815089E-03 Eh
   gradient norm :     0.0129569 Eh/α   predicted    -0.5280103E-03 (  38.40%)
   displ. norm   :     0.7051520 α      lambda       -0.8491981E-03
   maximum displ.:     0.3415873 α      in ANC's #8, #7, #9, ...

........................................................................
.............................. CYCLE   38 ..............................
........................................................................
   1   -152.3324371 -0.152332E+03  0.259E-01    0.26       0.0  T
   2   -152.3320519  0.385181E-03  0.150E-01    0.26       1.0  T
   3   -152.2898698  0.421821E-01  0.485E-01    0.31       1.0  T
   4   -152.3323363 -0.424665E-01  0.410E-02    0.26       1.0  T
   5   -152.3323413 -0.506586E-05  0.336E-02    0.26       1.0  T
   6   -152.3324641 -0.122765E-03  0.201E-02    0.26       1.0  T
   7   -152.3324555  0.856325E-05  0.168E-02    0.26       1.0  T
   8   -152.3325127 -0.571978E-04  0.243E-03    0.26       4.7  T
   9   -152.3325130 -0.255247E-06  0.142E-03    0.26       8.0  T
  10   -152.3325130 -0.167061E-07  0.102E-03    0.26      11.2  T
     SCC iter.                  ...        0 min,  0.067 sec
     gradient                   ...        0 min,  0.010 sec
 * total energy  :  -150.3298451 Eh     change       -0.4390371E-03 Eh
   gradient norm :     0.0155391 Eh/α   predicted    -0.6357291E-03 (  44.80%)
   displ. norm   :     0.3883021 α      lambda       -0.7798782E-03
   maximum displ.:     0.2027167 α      in ANC's #7, #4, #3, ...

........................................................................
.............................. CYCLE   39 ..............................
........................................................................
   1   -152.3368102 -0.152337E+03  0.161E-01    0.26       0.0  T
   2   -152.3364679  0.342250E-03  0.975E-02    0.26       1.0  T
   3   -152.3144306  0.220373E-01  0.360E-01    0.29       1.0  T
   4   -152.3362729 -0.218423E-01  0.628E-02    0.26       1.0  T
   5   -152.3366876 -0.414750E-03  0.368E-02    0.26       1.0  T
   6   -152.3368919 -0.204243E-03  0.120E-02    0.26       1.0  T
   7   -152.3368980 -0.616392E-05  0.722E-03    0.26       1.6  T
   8   -152.3369026 -0.452089E-05  0.285E-03    0.26       4.0  T
   9   -152.3369033 -0.730864E-06  0.150E-03    0.26       7.6  T
  10   -152.3369036 -0.291697E-06  0.673E-04    0.26      16.9  T
     SCC iter.                  ...        0 min,  0.066 sec
     gradient                   ...        0 min,  0.010 sec
 * total energy  :  -150.3299146 Eh     change       -0.6949023E-04 Eh
   gradient norm :     0.0209085 Eh/α   predicted    -0.4487362E-03 ( 545.75%)
   displ. norm   :     0.3228363 α      lambda       -0.9672449E-03
   maximum displ.:     0.1487556 α      in ANC's #7, #8, #4, ...

........................................................................
.............................. CYCLE   40 ..............................
........................................................................
   1   -152.3347614 -0.152335E+03  0.113E-01    0.26       0.0  T
   2   -152.3347775 -0.160738E-04  0.611E-02    0.26       1.0  T
   3   -152.3346887  0.887532E-04  0.324E-02    0.26       1.0  T
   4   -152.3344194  0.269273E-03  0.472E-02    0.26       1.0  T
   5   -152.3346406 -0.221176E-03  0.268E-02    0.26       1.0  T
   6   -152.3347718 -0.131137E-03  0.838E-03    0.26       1.4  T
   7   -152.3347846 -0.128718E-04  0.260E-03    0.26       4.4  T
   8   -152.3347853 -0.639875E-06  0.165E-03    0.26       6.9  T
   9   -152.3347856 -0.355403E-06  0.693E-04    0.26      16.4  T
     SCC iter.                  ...        0 min,  0.060 sec
     gradient                   ...        0 min,  0.010 sec
 * total energy  :  -150.3304436 Eh     change       -0.5290754E-03 Eh
   gradient norm :     0.0106904 Eh/α   predicted    -0.5340280E-03 (   0.94%)
   displ. norm   :     0.4099289 α      lambda       -0.6866506E-03
   maximum displ.:     0.1622660 α      in ANC's #7, #4, #8, ...

........................................................................
.............................. CYCLE   41 ..............................
........................................................................
   1   -152.3416851 -0.152342E+03  0.161E-01    0.26       0.0  T
   2   -152.3402649  0.142024E-02  0.124E-01    0.26       1.0  T
   3   -152.3121106  0.281543E-01  0.410E-01    0.30       1.0  T
   4   -152.3416930 -0.295823E-01  0.395E-02    0.26       1.0  T
   5   -152.3417482 -0.552005E-04  0.202E-02    0.26       1.0  T
   6   -152.3417846 -0.364673E-04  0.123E-02    0.26       1.0  T
   7   -152.3417924 -0.781036E-05  0.920E-03    0.26       1.2  T
   8   -152.3418024 -0.993508E-05  0.455E-03    0.26       2.5  T
   9   -152.3418046 -0.223821E-05  0.136E-03    0.26       8.4  T
  10   -152.3418046  0.320811E-07  0.117E-03    0.26       9.8  T
     SCC iter.                  ...        0 min,  0.066 sec
     gradient                   ...        0 min,  0.010 sec
 * total energy  :  -150.3305694 Eh     change       -0.1257702E-03 Eh
   gradient norm :     0.0211330 Eh/α   predicted    -0.4010194E-03 ( 218.85%)
   displ. norm   :     0.4186776 α      lambda       -0.7897800E-03
   maximum displ.:     0.1934039 α      in ANC's #7, #4, #8, ...

........................................................................
.............................. CYCLE   42 ..............................
........................................................................
   1   -152.3378112 -0.152338E+03  0.157E-01    0.26       0.0  T
   2   -152.3378466 -0.354434E-04  0.858E-02    0.26       1.0  T
   3   -152.3375226  0.323975E-03  0.527E-02    0.26       1.0  T
   4   -152.3371092  0.413415E-03  0.672E-02    0.26       1.0  T
   5   -152.3373945 -0.285239E-03  0.499E-02    0.26       1.0  T
   6   -152.3378456 -0.451157E-03  0.136E-02    0.26       1.0  T
   7   -152.3378646 -0.189866E-04  0.624E-03    0.26       1.8  T
   8   -152.3378690 -0.436079E-05  0.190E-03    0.26       6.0  T
   9   -152.3378692 -0.237646E-06  0.900E-04    0.26      12.7  T
     SCC iter.                  ...        0 min,  0.061 sec
     gradient                   ...        0 min,  0.010 sec
 * total energy  :  -150.3309582 Eh     change       -0.3887952E-03 Eh
   gradient norm :     0.0137085 Eh/α   predicted    -0.4641110E-03 (  19.37%)
   displ. norm   :     0.3812663 α      lambda       -0.7815909E-03
   maximum displ.:     0.1758228 α      in ANC's #7, #4, #6, ...
 * RMSD in coord.:     1.1675626 α      energy gain  -0.1682705E-01 Eh

generating ANC from model Hessian ...
Using Lindh-Hessian (1995)
 Shifting diagonal of input Hessian by   4.986024168710740E-003
 Lowest  eigenvalues of input Hessian
   -0.000000   -0.000000   -0.000000   -0.000000    0.000000    0.000000
    0.005000    0.005044    0.005045    0.005084    0.005119    0.005211
    0.005266    0.005423    0.005527    0.005611    0.005893    0.006310
 Highest eigenvalues
    2.129769    2.131456    2.252762    2.296761    2.685891    2.691838
 

........................................................................
.............................. CYCLE   43 ..............................
........................................................................
   1   -152.3368143 -0.152337E+03  0.161E-01    0.26       0.0  T
   2   -152.3368075  0.677829E-05  0.891E-02    0.26       1.0  T
   3   -152.3329893  0.381823E-02  0.147E-01    0.26       1.0  T
   4   -152.3339225 -0.933221E-03  0.128E-01    0.26       1.0  T
   5   -152.3367237 -0.280120E-02  0.339E-02    0.26       1.0  T
   6   -152.3368777 -0.153993E-03  0.102E-02    0.26       1.1  T
   7   -152.3368837 -0.597929E-05  0.460E-03    0.26       2.5  T
   8   -152.3368850 -0.125358E-05  0.209E-03    0.26       5.4  T
   9   -152.3368853 -0.365646E-06  0.846E-04    0.26      13.5  T
  10   -152.3368854 -0.402208E-07  0.453E-04    0.26      25.2  T
     SCC iter.                  ...        0 min,  0.071 sec
     gradient                   ...        0 min,  0.012 sec
 * total energy  :  -150.3311389 Eh     change       -0.1807043E-03 Eh
   gradient norm :     0.0190270 Eh/α   predicted     0.0000000E+00 (-100.00%)
   displ. norm   :     0.1718223 α      lambda       -0.5930534E-03
   maximum displ.:     0.0842006 α      in ANC's #10, #9, #15, ...

........................................................................
.............................. CYCLE   44 ..............................
........................................................................
   1   -152.3418582 -0.152342E+03  0.686E-02    0.26       0.0  T
   2   -152.3416583  0.199965E-03  0.504E-02    0.26       1.0  T
   3   -152.3347911  0.686719E-02  0.198E-01    0.26       1.0  T
   4   -152.3418458 -0.705467E-02  0.181E-02    0.26       1.0  T
   5   -152.3418620 -0.162539E-04  0.912E-03    0.26       1.3  T
   6   -152.3418712 -0.915457E-05  0.489E-03    0.26       2.3  T
   7   -152.3418730 -0.188137E-05  0.312E-03    0.26       3.7  T
   8   -152.3418740 -0.985515E-06  0.116E-03    0.26       9.8  T
   9   -152.3418742 -0.122275E-06  0.512E-04    0.26      22.3  T
     SCC iter.                  ...        0 min,  0.060 sec
     gradient                   ...        0 min,  0.010 sec
 * total energy  :  -150.3315634 Eh     change       -0.4244999E-03 Eh
   gradient norm :     0.0060810 Eh/α   predicted    -0.3052820E-03 ( -28.08%)
   displ. norm   :     0.1711763 α      lambda       -0.2793259E-03
   maximum displ.:     0.0772734 α      in ANC's #10, #9, #15, ...

........................................................................
.............................. CYCLE   45 ..............................
........................................................................
   1   -152.3443675 -0.152344E+03  0.773E-02    0.25       0.0  T
   2   -152.3443155  0.520480E-04  0.476E-02    0.25       1.0  T
   3   -152.3372124  0.710306E-02  0.197E-01    0.26       1.0  T
   4   -152.3443406 -0.712819E-02  0.172E-02    0.25       1.0  T
   5   -152.3443677 -0.271036E-04  0.845E-03    0.25       1.3  T
   6   -152.3443750 -0.727934E-05  0.451E-03    0.25       2.5  T
   7   -152.3443761 -0.112766E-05  0.269E-03    0.25       4.2  T
   8   -152.3443771 -0.965631E-06  0.999E-04    0.25      11.4  T
     SCC iter.                  ...        0 min,  0.053 sec
     gradient                   ...        0 min,  0.010 sec
 * total energy  :  -150.3317527 Eh     change       -0.1893057E-03 Eh
   gradient norm :     0.0053368 Eh/α   predicted    -0.1437557E-03 ( -24.06%)
   displ. norm   :     0.3001916 α      lambda       -0.3256129E-03
   maximum displ.:     0.1356537 α      in ANC's #10, #9, #15, ...

........................................................................
.............................. CYCLE   46 ..............................
........................................................................
   1   -152.3450275 -0.152345E+03  0.130E-01    0.25       0.0  T
   2   -152.3449150  0.112475E-03  0.771E-02    0.25       1.0  T
   3   -152.3271041  0.178109E-01  0.312E-01    0.27       1.0  T
   4   -152.3450078 -0.179037E-01  0.208E-02    0.25       1.0  T
   5   -152.3450267 -0.189015E-04  0.125E-02    0.25       1.0  T
   6   -152.3450387 -0.120041E-04  0.756E-03    0.25       1.5  T
   7   -152.3450446 -0.592466E-05  0.456E-03    0.25       2.5  T
   8   -152.3450468 -0.222460E-05  0.162E-03    0.25       7.0  T
   9   -152.3450471 -0.269113E-06  0.829E-04    0.25      13.7  T
     SCC iter.                  ...        0 min,  0.060 sec
     gradient                   ...        0 min,  0.010 sec
 * total energy  :  -150.3319819 Eh     change       -0.2292042E-03 Eh
   gradient norm :     0.0117113 Eh/α   predicted    -0.1774781E-03 ( -22.57%)
   displ. norm   :     0.3823079 α      lambda       -0.3530766E-03
   maximum displ.:     0.1748351 α      in ANC's #10, #9, #15, ...

........................................................................
.............................. CYCLE   47 ..............................
........................................................................
   1   -152.3432077 -0.152343E+03  0.155E-01    0.25       0.0  T
   2   -152.3431998  0.788046E-05  0.892E-02    0.25       1.0  T
   3   -152.3382968  0.490305E-02  0.165E-01    0.25       1.0  T
   4   -152.3431102 -0.481344E-02  0.267E-02    0.25       1.0  T
   5   -152.3431945 -0.842794E-04  0.147E-02    0.25       1.0  T
   6   -152.3432196 -0.250623E-04  0.660E-03    0.25       1.7  T
   7   -152.3432236 -0.398564E-05  0.330E-03    0.25       3.5  T
   8   -152.3432248 -0.129342E-05  0.131E-03    0.25       8.7  T
   9   -152.3432250 -0.176157E-06  0.703E-04    0.25      16.2  T
     SCC iter.                  ...        0 min,  0.060 sec
     gradient                   ...        0 min,  0.010 sec
 * total energy  :  -150.3322806 Eh     change       -0.2986351E-03 Eh
   gradient norm :     0.0125655 Eh/α   predicted    -0.2023416E-03 ( -32.24%)
   displ. norm   :     0.5300661 α      lambda       -0.5342034E-03
   maximum displ.:     0.2422859 α      in ANC's #10, #9, #7, ...

........................................................................
.............................. CYCLE   48 ..............................
........................................................................
   1   -152.3399747 -0.152340E+03  0.201E-01    0.25       0.0  T
   2   -152.3398880  0.867188E-04  0.118E-01    0.25       1.0  T
   3   -152.3188531  0.210348E-01  0.339E-01    0.27       1.0  T
   4   -152.3397866 -0.209335E-01  0.366E-02    0.25       1.0  T
   5   -152.3399286 -0.142008E-03  0.214E-02    0.25       1.0  T
   6   -152.3399893 -0.607202E-04  0.106E-02    0.25       1.1  T
   7   -152.3400084 -0.191147E-04  0.397E-03    0.25       2.9  T
   8   -152.3400098 -0.133341E-05  0.189E-03    0.25       6.0  T
   9   -152.3400101 -0.285200E-06  0.113E-03    0.25      10.1  T
     SCC iter.                  ...        0 min,  0.061 sec
     gradient                   ...        0 min,  0.010 sec
 * total energy  :  -150.3326754 Eh     change       -0.3948468E-03 Eh
   gradient norm :     0.0089283 Eh/α   predicted    -0.3421509E-03 ( -13.35%)
   displ. norm   :     0.4237840 α      lambda       -0.4192309E-03
   maximum displ.:     0.1799693 α      in ANC's #10, #9, #7, ...

........................................................................
.............................. CYCLE   49 ..............................
........................................................................
   1   -152.3396905 -0.152340E+03  0.140E-01    0.25       0.0  T
   2   -152.3397003 -0.981560E-05  0.800E-02    0.25       1.0  T
   3   -152.3393961  0.304209E-03  0.430E-02    0.25       1.0  T
   4   -152.3388438  0.552313E-03  0.688E-02    0.25       1.0  T
   5   -152.3396528 -0.808986E-03  0.185E-02    0.25       1.0  T
   6   -152.3396962 -0.433938E-04  0.898E-03    0.25       1.3  T
   7   -152.3397072 -0.109899E-04  0.242E-03    0.25       4.7  T
   8   -152.3397077 -0.515960E-06  0.106E-03    0.25      10.8  T
   9   -152.3397078 -0.874337E-07  0.628E-04    0.25      18.2  T
     SCC iter.                  ...        0 min,  0.061 sec
     gradient                   ...        0 min,  0.010 sec
 * total energy  :  -150.3329835 Eh     change       -0.3080931E-03 Eh
   gradient norm :     0.0085088 Eh/α   predicted    -0.2472746E-03 ( -19.74%)
   displ. norm   :     0.4910403 α      lambda       -0.4643562E-03
   maximum displ.:     0.1988518 α      in ANC's #7, #10, #2, ...

........................................................................
.............................. CYCLE   50 ..............................
........................................................................
   1   -152.3409164 -0.152341E+03  0.150E-01    0.25       0.0  T
   2   -152.3408648  0.515845E-04  0.866E-02    0.25       1.0  T
   3   -152.3272366  0.136282E-01  0.270E-01    0.26       1.0  T
   4   -152.3408469 -0.136103E-01  0.303E-02    0.25       1.0  T
   5   -152.3409207 -0.738275E-04  0.128E-02    0.25       1.0  T
   6   -152.3409398 -0.191263E-04  0.737E-03    0.25       1.5  T
   7   -152.3409444 -0.458098E-05  0.387E-03    0.25       2.9  T
   8   -152.3409464 -0.198888E-05  0.160E-03    0.25       7.1  T
   9   -152.3409467 -0.288731E-06  0.749E-04    0.25      15.2  T
     SCC iter.                  ...        0 min,  0.061 sec
     gradient                   ...        0 min,  0.010 sec
 * total energy  :  -150.3333190 Eh     change       -0.3354996E-03 Eh
   gradient norm :     0.0103600 Eh/α   predicted    -0.2881627E-03 ( -14.11%)
   displ. norm   :     0.6069478 α      lambda       -0.5289025E-03
   maximum displ.:     0.2448620 α      in ANC's #7, #2, #10, ...

........................................................................
.............................. CYCLE   51 ..............................
........................................................................
   1   -152.3410555 -0.152341E+03  0.190E-01    0.25       0.0  T
   2   -152.3401398  0.915712E-03  0.128E-01    0.25       1.0  T
   3   -152.2900366  0.501032E-01  0.532E-01    0.32       1.0  T
   4   -152.3407355 -0.506990E-01  0.497E-02    0.25       1.0  T
   5   -152.3410385 -0.302937E-03  0.217E-02    0.25       1.0  T
   6   -152.3410919 -0.534271E-04  0.135E-02    0.25       1.0  T
   7   -152.3411045 -0.125523E-04  0.838E-03    0.25       1.4  T
   8   -152.3411133 -0.880374E-05  0.295E-03    0.25       3.9  T
   9   -152.3411142 -0.971307E-06  0.144E-03    0.25       7.9  T
  10   -152.3411144 -0.137041E-06  0.891E-04    0.25      12.8  T
     SCC iter.                  ...        0 min,  0.067 sec
     gradient                   ...        0 min,  0.010 sec
 * total energy  :  -150.3337441 Eh     change       -0.4250598E-03 Eh
   gradient norm :     0.0102308 Eh/α   predicted    -0.3618720E-03 ( -14.87%)
   displ. norm   :     0.5802135 α      lambda       -0.6588705E-03
   maximum displ.:     0.2560705 α      in ANC's #2, #7, #1, ...

........................................................................
.............................. CYCLE   52 ..............................
........................................................................
   1   -152.3501220 -0.152350E+03  0.182E-01    0.25       0.0  T
   2   -152.3480136  0.210841E-02  0.145E-01    0.25       1.0  T
   3   -152.3079514  0.400621E-01  0.487E-01    0.30       1.0  T
   4   -152.3498361 -0.418847E-01  0.548E-02    0.25       1.0  T
   5   -152.3501945 -0.358398E-03  0.155E-02    0.25       1.0  T
   6   -152.3501948 -0.274762E-06  0.123E-02    0.25       1.0  T
   7   -152.3502041 -0.925170E-05  0.622E-03    0.25       1.8  T
   8   -152.3502075 -0.344132E-05  0.357E-03    0.25       3.2  T
   9   -152.3502093 -0.180482E-05  0.191E-03    0.25       6.0  T
  10   -152.3502097 -0.412555E-06  0.130E-03    0.25       8.7  T
     SCC iter.                  ...        0 min,  0.067 sec
     gradient                   ...        0 min,  0.010 sec
 * total energy  :  -150.3341245 Eh     change       -0.3804051E-03 Eh
   gradient norm :     0.0136598 Eh/α   predicted    -0.4403397E-03 (  15.76%)
   displ. norm   :     0.7180776 α      lambda       -0.7893413E-03
   maximum displ.:     0.2896894 α      in ANC's #2, #9, #10, ...

........................................................................
.............................. CYCLE   53 ..............................
........................................................................
   1   -152.3435301 -0.152344E+03  0.238E-01    0.25       0.0  T
   2   -152.3432597  0.270433E-03  0.140E-01    0.25       1.0  T
   3   -152.3008253  0.424343E-01  0.479E-01    0.31       1.0  T
   4   -152.3434045 -0.425792E-01  0.426E-02    0.25       1.0  T
   5   -152.3434781 -0.736058E-04  0.256E-02    0.25       1.0  T
   6   -152.3435582 -0.801057E-04  0.145E-02    0.25       1.0  T
   7   -152.3435778 -0.195350E-04  0.673E-03    0.25       1.7  T
[...]
         :: -> dispersion             -0.119916661045 Eh    ::
         :: repulsion energy           2.007849416335 Eh    ::
         :: add. restraining           0.000000000000 Eh    ::
         :::::::::::::::::::::::::::::::::::::::::::::::::::::

           -------------------------------------------------
          |                Property Printout                |
           -------------------------------------------------

    * Orbital Energies and Occupations

         #    Occupation            Energy/Eh            Energy/eV
      -------------------------------------------------------------
         1        2.0000           -0.7636227             -20.7792
       ...           ...                  ...                  ...
       123        2.0000           -0.4169208             -11.3450
       124        2.0000           -0.4113056             -11.1922
       125        2.0000           -0.4089042             -11.1269
       126        2.0000           -0.4062278             -11.0540
       127        2.0000           -0.4037124             -10.9856
       128        2.0000           -0.4004069             -10.8956
       129        2.0000           -0.3986699             -10.8484
       130        2.0000           -0.3970666             -10.8047
       131        2.0000           -0.3903199             -10.6211
       132        2.0000           -0.3822529             -10.4016
       133        2.0000           -0.3712861             -10.1032
       134        2.0000           -0.3526873              -9.5971
       135        1.9714           -0.3316526              -9.0247 (HOMO)
       136        0.0286           -0.3236064              -8.8058 (LUMO)
       137        0.0000           -0.3139933              -8.5442
       138                         -0.3086619              -8.3991
       139                         -0.2957277              -8.0472
       140                         -0.2743609              -7.4657
       141                         -0.2616963              -7.1211
       142                         -0.2467635              -6.7148
       143                         -0.2336932              -6.3591
       144                         -0.2236861              -6.0868
       145                         -0.2232487              -6.0749
       146                         -0.2217221              -6.0334
       ...                                ...                  ...
       272                          0.7281111              19.8129
      -------------------------------------------------------------
                  HL-Gap            0.0080462 Eh            0.2189 eV
             Fermi-level           -0.3276295 Eh           -8.9153 eV

     #   Z        covCN         q      C6AA      α(0)
     1   6 C      3.062     0.068    26.420     8.429
     2   8 O      1.728    -0.173    16.915     5.553
     3   6 C      3.060     0.065    26.478     8.438
     4   6 C      3.008    -0.064    29.587     8.923
     5   6 C      3.066    -0.008    28.151     8.700
     6   6 C      2.898    -0.028    28.690     8.782
     7   6 C      2.898    -0.033    28.830     8.804
     8   6 C      2.900    -0.027    28.680     8.781
     9   6 C      2.904    -0.033    28.827     8.804
    10   6 C      2.940    -0.038    28.944     8.824
    11   6 C      2.986     0.031    27.297     8.570
    12   6 C      3.072    -0.043    28.999     8.829
    13   6 C      3.068    -0.043    28.983     8.828
    14   6 C      3.039     0.023    27.444     8.593
    15  16 S      2.398    -0.016   141.709    20.036
    16   6 C      3.042     0.019    27.547     8.608
    17   6 C      3.067    -0.042    28.983     8.828
    18   6 C      3.086    -0.046    29.035     8.833
    19   6 C      2.979     0.032    27.290     8.569
    20  16 S      2.401    -0.010   141.467    20.018
    21   6 C      2.967    -0.052    29.278     8.875
    22   6 C      2.953     0.012    27.737     8.638
    23  16 S      2.413    -0.065   143.751    20.179
    24   6 C      2.961     0.029    27.355     8.579
    25   6 C      3.229    -0.021    27.705     8.548
    26   6 C      3.333     0.122    23.137     7.624
    27   8 O      1.729    -0.164    16.773     5.530
    28   6 C      3.080     0.118    25.318     8.249
    29   7 N      2.756     0.531    13.684     5.494
    30   8 O      0.933    -0.422    22.086     6.303
    31   8 O      0.931    -0.386    21.370     6.200
    32   6 C      2.987    -0.044    29.073     8.845
    33   6 C      2.993    -0.051    29.249     8.871
    34   6 C      2.977     0.032    27.288     8.569
    35   6 C      3.096    -0.045    28.989     8.824
    36   6 C      3.073    -0.044    29.024     8.833
    37   6 C      3.044     0.023    27.451     8.593
    38  16 S      2.433    -0.025   142.068    20.061
    39   6 C      3.045     0.021    27.506     8.602
    40   6 C      3.065    -0.041    28.945     8.822
    41   6 C      3.080    -0.046    29.058     8.837
    42   6 C      2.978     0.034    27.226     8.559
    43  16 S      2.425    -0.023   141.997    20.056
    44   6 C      2.967    -0.056    29.385     8.892
    45   6 C      2.961     0.004    27.928     8.668
    46  16 S      2.385     0.001   141.008    19.986
    47   6 C      2.919    -0.039    28.962     8.825
    48   6 C      3.286    -0.017    26.860     8.328
    49   6 C      3.319     0.113    23.567     7.731
    50   8 O      1.727    -0.167    16.824     5.538
    51   6 C      3.076     0.125    25.191     8.229
    52   7 N      2.756     0.546    13.526     5.462
    53   8 O      0.933    -0.399    21.624     6.236
    54   8 O      0.931    -0.381    21.267     6.185
    55   6 C      2.967    -0.052    29.294     8.878
    56   1 H      0.926     0.090     1.882     2.145
    57   1 H      0.926     0.046     2.367     2.406
    58   1 H      0.926     0.041     2.439     2.442
    59   1 H      0.926     0.060     2.194     2.316
    60   1 H      0.925     0.040     2.448     2.446
    61   1 H      0.925     0.038     2.481     2.463
    62   1 H      0.925     0.063     2.165     2.301
    63   1 H      0.925     0.045     2.380     2.413
    64   1 H      0.926     0.043     2.409     2.427
    65   1 H      0.926     0.041     2.433     2.439
    66   1 H      0.926     0.042     2.418     2.432
    67   1 H      0.926     0.043     2.403     2.424
    68   1 H      0.925     0.058     2.224     2.332
    69   1 H      0.927     0.105     1.736     2.060
    70   1 H      0.925     0.058     2.226     2.333
    71   1 H      0.926     0.043     2.410     2.428
    72   1 H      0.926     0.042     2.425     2.435
    73   1 H      0.926     0.043     2.415     2.430
    74   1 H      0.926     0.043     2.406     2.426
    75   1 H      0.925     0.056     2.248     2.344
    76   1 H      0.927     0.061     2.188     2.313
    77   1 H      0.927     0.093     1.848     2.126

 Mol. C6AA /au·bohr⁶  :     124920.440837
 Mol. C8AA /au·bohr⁸  :    3692088.872781
 Mol. α(0) /au        :        570.282705


Wiberg/Mayer (AO) data.
largest (>0.10) Wiberg bond orders for each atom
          total WBO             WBO to atom ...
     1  C   3.834        C    5 1.477    O    2 1.160    H   56 0.955    C    3 0.130
     2  O   2.448        C    1 1.160    C    3 1.114
     3  C   3.901        C    4 1.646    O    2 1.114    H   57 0.967    C    1 0.130
     4  C   3.969        C    3 1.646    C    5 1.217    H   58 0.973
     5  C   3.977        C    1 1.477    C    4 1.217    C    6 1.165
     6  C   3.880        C    7 1.615    C    5 1.165    H   59 0.957
     7  C   3.979        C    6 1.615    C    8 1.257    H   60 0.965
     8  C   3.841        C    9 1.512    C    7 1.257    H   61 0.967
     9  C   3.956        C    8 1.512    C   10 1.345    H   62 0.946
    10  C   3.852        C   11 1.404    C    9 1.345    H   63 0.957
    11  C   3.939        C   10 1.404    C   12 1.278    S   15 1.088
    12  C   3.910        C   13 1.524    C   11 1.278    H   64 0.964
    13  C   3.944        C   12 1.524    C   14 1.297    H   65 0.964
    14  C   3.892        C   16 1.305    C   13 1.297    S   15 1.128
    15  S   2.523        C   14 1.128    C   11 1.088
    16  C   3.911        C   17 1.309    C   14 1.305    S   20 1.121
    17  C   3.944        C   18 1.511    C   16 1.309    H   66 0.964
    18  C   3.925        C   17 1.511    C   19 1.288    H   67 0.964
    19  C   3.917        C   21 1.363    C   18 1.288    S   20 1.112
    20  S   2.561        C   16 1.121    C   19 1.112
    21  C   3.894        C   22 1.377    C   19 1.363    H   68 0.955
    22  C   3.899        C   21 1.377    C   26 1.270    S   23 1.075
    23  S   2.418        C   22 1.075    C   24 1.074
    24  C   3.895        C   33 1.443    C   25 1.204    S   23 1.074
    25  C   3.949        C   32 1.294    C   26 1.260    C   24 1.204
    26  C   3.867        C   22 1.270    C   25 1.260    O   27 1.101
    27  O   2.430        C   26 1.101    C   28 1.073
    28  C   3.872        C   32 1.475    O   27 1.073    N   29 1.040
    29  N   3.895        O   31 1.416    O   30 1.384    C   28 1.040
    30  O   1.848        N   29 1.384    O   31 0.331
    31  O   1.888        N   29 1.416    O   30 0.331
    32  C   3.973        C   28 1.475    C   25 1.294    H   69 0.950
    33  C   3.916        C   24 1.443    C   34 1.327    H   70 0.952
    34  C   3.905        C   33 1.327    C   35 1.311    S   38 1.111
    35  C   3.935        C   36 1.491    C   34 1.311    H   71 0.964
    36  C   3.932        C   35 1.491    C   37 1.321    H   72 0.964
    37  C   3.921        C   36 1.321    C   39 1.301    S   38 1.112
    38  S   2.547        C   37 1.112    C   34 1.111
    39  C   3.872        C   37 1.301    C   40 1.299    S   43 1.120
    40  C   3.954        C   41 1.529    C   39 1.299    H   73 0.964
    41  C   3.894        C   40 1.529    C   42 1.257    H   74 0.964
    42  C   3.948        C   44 1.426    C   41 1.257    S   43 1.095
    43  S   2.543        C   39 1.120    C   42 1.095
    44  C   3.829        C   42 1.426    C   45 1.284    H   75 0.956
    45  C   3.940        C   49 1.350    C   44 1.284    S   46 1.098
    46  S   2.549        C   47 1.211    C   45 1.098
    47  C   3.795        C   48 1.428    S   46 1.211    H   76 0.968
    48  C   3.980        C   47 1.428    C   55 1.213    C   49 1.188
    49  C   3.854        C   45 1.350    C   48 1.188    O   50 1.082
    50  O   2.428        C   49 1.082    C   51 1.077    C   55 0.100
    51  C   3.896        C   55 1.531    O   50 1.077    N   52 1.017
    52  N   3.910        O   54 1.430    O   53 1.408    C   51 1.017
    53  O   1.885        N   52 1.408    O   54 0.343
    54  O   1.908        N   52 1.430    O   53 0.343
    55  C   3.953        C   51 1.531    C   48 1.213    H   77 0.960    O   50 0.100
    56  H   0.992        C    1 0.955
    57  H   0.997        C    3 0.967
    58  H   0.998        C    4 0.973
    59  H   0.996        C    6 0.957
    60  H   0.998        C    7 0.965
    61  H   0.998        C    8 0.967
    62  H   0.996        C    9 0.946
    63  H   0.997        C   10 0.957
    64  H   0.997        C   12 0.964
    65  H   0.998        C   13 0.964
    66  H   0.997        C   17 0.964
    67  H   0.997        C   18 0.964
    68  H   0.996        C   21 0.955
    69  H   0.988        C   32 0.950
    70  H   0.996        C   33 0.952
    71  H   0.997        C   35 0.964
    72  H   0.998        C   36 0.964
    73  H   0.997        C   40 0.964
    74  H   0.997        C   41 0.964
    75  H   0.996        C   44 0.956
    76  H   0.996        C   47 0.968
    77  H   0.991        C   55 0.960

molecular dipole:
                 x           y           z       tot (Debye)
 q only:        0.145      -0.162       0.493
   full:        0.207       0.124       0.389       1.164
molecular quadrupole (traceless):
                xx          xy          yy          xz          yz          zz
 q only:       15.305       9.504      13.974     -29.903       8.135     -29.279
  q+dip:       25.277      11.068      18.030     -35.534       9.436     -43.307
   full:       21.770      11.706      12.844     -30.110       9.735     -34.615

           -------------------------------------------------
          |                Geometry Summary                 |
           -------------------------------------------------

      molecular mass/u    :      834.9830000
   center of mass at/Å    :       -1.9884876       6.6374834       0.2767720
  moments of inertia/u·Å² :        0.1071164E+05   0.1786201E+05   0.2813941E+05
rotational constants/cm⁻¹ :        0.1573768E-02   0.9437700E-03   0.5990755E-03

 * 83 selected distances

     #   Z        #   Z                                     value/Å
     1   6 C      2   8 O                                 1.3387247
     2   8 O      3   6 C                                 1.3490358
     3   6 C      4   6 C                                 1.3548000
     1   6 C      5   6 C                                 1.3788290
     4   6 C      5   6 C                                 1.4319283
     5   6 C      6   6 C                                 1.4285151
     6   6 C      7   6 C                                 1.3577720
     7   6 C      8   6 C                                 1.4175869
     8   6 C      9   6 C                                 1.3693648
     9   6 C     10   6 C                                 1.3960188
    10   6 C     11   6 C                                 1.3824309
    11   6 C     12   6 C                                 1.4089034
    12   6 C     13   6 C                                 1.3706634
    13   6 C     14   6 C                                 1.4043556
    11   6 C     15  16 S                                 1.7541107
    14   6 C     15  16 S                                 1.7402851
    14   6 C     16   6 C                                 1.3945141
    16   6 C     17   6 C                                 1.4012644
    17   6 C     18   6 C                                 1.3716693
    18   6 C     19   6 C                                 1.4083062
    16   6 C     20  16 S                                 1.7435802
    19   6 C     20  16 S                                 1.7450401
    19   6 C     21   6 C                                 1.3881747
    21   6 C     22   6 C                                 1.3868683
    22   6 C     23  16 S                                 1.7631318 (max)
    24   6 C     25   6 C                                 1.4214406
    22   6 C     26   6 C                                 1.4007840
    25   6 C     26   6 C                                 1.4176880
    26   6 C     27   8 O                                 1.3419728
    27   8 O     28   6 C                                 1.3588137
    28   6 C     29   7 N                                 1.4026589
    29   7 N     30   8 O                                 1.2237949
    29   7 N     31   8 O                                 1.2167952
    25   6 C     32   6 C                                 1.4116044
    28   6 C     32   6 C                                 1.3767207
    24   6 C     33   6 C                                 1.3776765
    33   6 C     34   6 C                                 1.3934233
    34   6 C     35   6 C                                 1.4047151
    35   6 C     36   6 C                                 1.3751819
    36   6 C     37   6 C                                 1.3989472
    34   6 C     38  16 S                                 1.7391786
    37   6 C     38  16 S                                 1.7439355
    37   6 C     39   6 C                                 1.3947882
    39   6 C     40   6 C                                 1.4026957
    40   6 C     41   6 C                                 1.3696764
    41   6 C     42   6 C                                 1.4140494
    39   6 C     43  16 S                                 1.7431693
    42   6 C     43  16 S                                 1.7486683
    42   6 C     44   6 C                                 1.3780275
    44   6 C     45   6 C                                 1.4045721
    46  16 S     47   6 C                                 1.7202936
    47   6 C     48   6 C                                 1.3744775
    45   6 C     49   6 C                                 1.3887133
    48   6 C     49   6 C                                 1.4294733
    49   6 C     50   8 O                                 1.3485271
    50   8 O     51   6 C                                 1.3590756
    51   6 C     52   7 N                                 1.4109344
    52   7 N     53   8 O                                 1.2179063
    52   7 N     54   8 O                                 1.2136276
    48   6 C     55   6 C                                 1.4227730
    51   6 C     55   6 C                                 1.3694981
     1   6 C     56   1 H                                 1.0736253
     3   6 C     57   1 H                                 1.0722681
     4   6 C     58   1 H                                 1.0704843
     6   6 C     59   1 H                                 1.0801274
     7   6 C     60   1 H                                 1.0820355
     8   6 C     61   1 H                                 1.0830740
     9   6 C     62   1 H                                 1.0816660
    10   6 C     63   1 H                                 1.0821852
    12   6 C     64   1 H                                 1.0760290
    13   6 C     65   1 H                                 1.0755619
    17   6 C     66   1 H                                 1.0753638
    18   6 C     67   1 H                                 1.0759404
    21   6 C     68   1 H                                 1.0825774
    32   6 C     69   1 H                                 1.0682359 (min)
    33   6 C     70   1 H                                 1.0841615
    35   6 C     71   1 H                                 1.0759740
    36   6 C     72   1 H                                 1.0753686
    40   6 C     73   1 H                                 1.0756833
    41   6 C     74   1 H                                 1.0756955
    44   6 C     75   1 H                                 1.0815924
    47   6 C     76   1 H                                 1.0693959
    55   6 C     77   1 H                                 1.0699612

 * 6 distinct bonds (by element types)

   Z      Z             #   av. dist./Å        max./Å        min./Å
   1 H    6 C          22     1.0766821     1.0841615     1.0682359
   6 C    6 C          39     1.3943305     1.4319283     1.3548000
   6 C    7 N           2     1.4067966     1.4109344     1.4026589
   6 C    8 O           6     1.3493583     1.3590756     1.3387247
   7 N    8 O           4     1.2180310     1.2237949     1.2136276
   6 C   16 S          10     1.7441393     1.7631318     1.7202936


optimized geometry written to: xtbopt.xyz


           -------------------------------------------------
          | TOTAL ENERGY             -150.359754770401 Eh   |
          | GRADIENT NORM               0.001002524313 Eh/α |
          | HOMO-LUMO GAP               0.218948939242 eV   |
           -------------------------------------------------

------------------------------------------------------------------------
 * finished run on 2021/06/03 at 14:48:40.234     
------------------------------------------------------------------------
 total:
 * wall-time:     0 d,  0 h,  0 min, 22.381 sec
 *  cpu-time:     0 d,  0 h,  4 min, 28.366 sec
 * ratio c/w:    11.991 speedup
 SCF:
 * wall-time:     0 d,  0 h,  0 min,  0.138 sec
 *  cpu-time:     0 d,  0 h,  0 min,  1.631 sec
 * ratio c/w:    11.837 speedup
 ANC optimizer:
 * wall-time:     0 d,  0 h,  0 min, 22.192 sec
 *  cpu-time:     0 d,  0 h,  4 min, 26.288 sec
 * ratio c/w:    11.999 speedup

