      -----------------------------------------------------------      
     |                   =====================                   |     
     |                           x T B                           |     
     |                   =====================                   |     
     |                         S. Grimme                         |     
     |          Mulliken Center for Theoretical Chemistry        |     
     |                    University of Bonn                     |     
     |                Version 6.2 RC2 (SAW190805)                |     
      -----------------------------------------------------------      

   This program is distributed in the hope that it will be useful,
   but WITHOUT ANY WARRANTY; without even the implied warranty of
   MERCHANTABILITY or FITNESS FOR A PARTICULAR PURPOSE.
   
   FOR NON-COMMERCIAL, ACADEMIA USE ONLY.
   
   Cite this work as:
   * S. Grimme, C. Bannwarth, P. Shushkov, J. Chem. Theory Comput., 2017,
     13, 1989-2009. DOI: 10.1021/acs.jctc.7b00118
   * C. Bannwarth, S. Ehlert and S. Grimme., J. Chem. Theory Comput., 2019,
     15, 1652-1671. DOI: 10.1021/acs.jctc.8b01176
   * P. Pracht, E. Caldeweyher, S. Ehlert, S. Grimme, ChemRxiv, 2019, preprint.
     DOI: 10.26434/chemrxiv.8326202.v1
   
   for DFT-D4:
   * E. Caldeweyher, C. Bannwarth and S. Grimme, J. Chem. Phys., 2017,
     147, 034112. DOI: 10.1063/1.4993215
   * E. Caldeweyher, S. Ehlert, A. Hansen, H. Neugebauer, S. Spicher,
     C. Bannwarth and S. Grimme, J. Chem. Phys., 2019, 150, 154122.
     DOI: 10.1063/1.5090222
   
   for sTDA-xTB:
   * S. Grimme and C. Bannwarth, J. Chem. Phys., 2016, 145, 054103.
     DOI: 10.1063/1.4959605
   
   in the mass-spec context:
   * V. Asgeirsson, C. Bauer and S. Grimme, Chem. Sci., 2017, 8, 4879.
     DOI: 10.1039/c7sc00601b
   
   for metadynamics refer to:
   * S. Grimme, J. Chem. Theory Comput., 2019, 155, 2847-2862
     DOI: 10.1021/acs.jctc.9b00143
   
   with help from (in alphabetical order)
   C. Bannwarth, F. Bohle, G. Brandenburg, E. Caldeweyher, M. Checinski,
   S. Dohm, S. Ehlert, S. Ehrlich, F. März, H. Neugebauer, J. Pisarek,
   P. Pracht, P. Shushkov, and S. Spicher.
   
 * started run on 2021/06/01 at 23:52:57.153     

           -------------------------------------------------
          |                Calculation Setup                |
           -------------------------------------------------

          program call               : /ihome/ghutchison/geoffh/xtb/xtb /ihome/ghutchison/blp62/GA/running_GA/sequence/generations/2/189_857_857_857_189_10001.xyz -opt
          hostname                   : smp-n5
          coordinate file            : /ihome/ghutchison/blp62/GA/running_GA/sequence/generations/2/189_857_857_857_189_10001.xyz
          omp threads                :                    12
          number of atoms            :                    69
          number of electrons        :                   220
          charge                     :                     0
          spin                       :                   0.0
          first test random number   :      0.58736230103569


########################################################################
# WARNING! Please study the warnings concerning your input carefully
#  - XTBPATH is not set, using XTBHOME instead
#  - the use of '-opt' is discouraged, please use '--opt' next time
########################################################################

           ------------------------------------------------- 
          |                 G F N 2 - x T B                 |
          | Geometry, Frequencies, Noncovalent interactions |
          |            JCTC 2019 parametrisation            |
           ------------------------------------------------- 
             KAB for C  - Si     :                1.0500
             KAB for H  - Pd     :                0.9500
             k(s)              :                1.8500
             k(p)              :                2.2300
             k(d)              :                2.2300
             k(f)              :                2.0000
             kEN (H0ij)        :               -2.0000
             D4 a1             :                0.5200
             D4 a2             :                5.0000
             D4 s6             :                1.0000
             D4 s8             :                2.7000
             D4 s9             :                5.0000
             alphaj            :                2.0000

  Z AO/shell   Hii/eV     exponent
  1     Wed Apr 25 08:07:45 CEST 2018   EN: 2.200 GM2: 0.406  GM3: 0.0800  RAES: 1.40
     1s    -10.707211    1.230000
  6     Wed Apr 25 08:07:45 CEST 2018   EN: 2.550 GM2: 0.538  GM3: 0.1500  RAES: 3.00
     2s    -13.970922    2.096432
     2p    -10.063292    1.800000
  7     Wed Apr 25 08:07:45 CEST 2018   EN: 3.040 GM2: 0.461  GM3:-0.0640  RAES: 1.90
     2s    -16.686243    2.339881
     2p    -12.523956    2.014332
 16     Tue Apr 24 11:44:34 CEST 2018   EN: 2.580 GM2: 0.340  GM3:-0.0502  RAES: 3.10
     3s    -20.029654    1.981333
     3p    -11.377694    2.025643
     3d     -0.420282    1.702555

           ------------------------------------------------- 
          |        Self-Consistent Charge Iterations        |
           ------------------------------------------------- 

          ...................................................
          :                      SETUP                      :
          :.................................................:
          :  # basis functions                 228          :
          :  # atomic orbitals                 225          :
          :  # shells                          119          :
          :  # electrons                       220          :
          :  max. iterations                   250          :
          :  Hamiltonian                  GFN2-xTB          :
          :  restarted?                      false          :
          :  GBSA solvation                  false          :
          :  PC potential                    false          :
          :  electronic temp.          300.0000000     K    :
          :  accuracy                    1.0000000          :
          :  -> integral cutoff          0.2500000E+02      :
          :  -> integral neglect         0.1000000E-07      :
          :  -> SCF convergence          0.1000000E-05 Eh   :
          :  -> wf. convergence          0.1000000E-03 e    :
          :  Broyden damping             0.4000000          :
          ...................................................

 iter      E             dE          RMSdq      gap      omega  full diag
   1   -120.0889709 -0.120089E+03  0.507E+00    1.73       0.0  T
   2   -120.1423143 -0.533434E-01  0.303E+00    1.63       1.0  T
   3   -120.0658443  0.764700E-01  0.120E+00    1.29       1.0  T
   4   -120.1480673 -0.822229E-01  0.443E-01    1.36       1.0  T
   5   -120.1593438 -0.112765E-01  0.190E-01    1.37       1.0  T
   6   -120.1609542 -0.161040E-02  0.766E-02    1.38       1.0  T
   7   -120.1613370 -0.382868E-03  0.235E-02    1.38       1.0  T
   8   -120.1613480 -0.109601E-04  0.120E-02    1.38       1.0  T
   9   -120.1613507 -0.274591E-05  0.522E-03    1.38       2.3  T
  10   -120.1613517 -0.970884E-06  0.218E-03    1.38       5.5  T
  11   -120.1613518 -0.751429E-07  0.111E-03    1.38      10.8  T
  12   -120.1613518 -0.607473E-07  0.507E-04    1.38      23.7  T
  13   -120.1613518 -0.342935E-08  0.269E-04    1.38      44.8  T

   *** convergence criteria satisfied after 13 iterations ***

         #    Occupation            Energy/Eh            Energy/eV
      -------------------------------------------------------------
         1        2.0000           -0.7391928             -20.1145
       ...           ...                  ...                  ...
       104        2.0000           -0.4013680             -10.9218
       105        2.0000           -0.3943633             -10.7312
       106        2.0000           -0.3857890             -10.4979
       107        2.0000           -0.3744101             -10.1882
       108        2.0000           -0.3627999              -9.8723
       109        2.0000           -0.3593086              -9.7773
       110        2.0000           -0.3592076              -9.7745 (HOMO)
       111                         -0.3084999              -8.3947 (LUMO)
       112                         -0.3081630              -8.3855
       113                         -0.2913191              -7.9272
       114                         -0.2793791              -7.6023
       115                         -0.2674937              -7.2789
       ...                                ...                  ...
       225                          1.4645668              39.8529
      -------------------------------------------------------------
                  HL-Gap            0.0507077 Eh            1.3798 eV
             Fermi-level           -0.3337957 Eh           -9.0830 eV

 SCC (total)                   0 d,  0 h,  0 min,  0.095 sec
 SCC setup                      ...        0 min,  0.001 sec (  1.014%)
 Dispersion                     ...        0 min,  0.002 sec (  2.141%)
 integral evaluation            ...        0 min,  0.012 sec ( 12.128%)
 zeroth order Hamiltonian       ...        0 min,  0.000 sec (  0.519%)
 iterations                     ...        0 min,  0.072 sec ( 75.937%)
 molecular gradient             ...        0 min,  0.007 sec (  7.662%)
 printout                       ...        0 min,  0.000 sec (  0.513%)

         :::::::::::::::::::::::::::::::::::::::::::::::::::::
         ::                     SUMMARY                     ::
         :::::::::::::::::::::::::::::::::::::::::::::::::::::
         :: total energy            -118.008075573687 Eh    ::
         :: gradient norm              0.199467967429 Eh/a0 ::
         :: HOMO-LUMO gap              1.379826653151 eV    ::
         ::.................................................::
         :: SCC energy              -120.161351838123 Eh    ::
         :: -> isotropic ES            0.032965257177 Eh    ::
         :: -> anisotropic ES          0.008276074898 Eh    ::
         :: -> anisotropic XC          0.096348415877 Eh    ::
         :: -> dispersion             -0.083071761683 Eh    ::
         :: repulsion energy           2.155080768757 Eh    ::
         :: add. restraining           0.000000000000 Eh    ::
         :::::::::::::::::::::::::::::::::::::::::::::::::::::

      ----------------------------------------------------------- 
     |                   =====================                   |
     |                        A N C O P T                        |
     |                   =====================                   |
     |               Approximate Normal Coordinate               |
     |                Rational Function Optimizer                |
      ----------------------------------------------------------- 

          ...................................................
          :                      SETUP                      :
          :.................................................:
          :   optimization level            normal          :
          :   max. optcycles                   207          :
          :   ANC micro-cycles                  20          :
          :   degrees of freedom               201          :
          :.................................................:
          :   RF solver                   davidson          :
          :   input Hessian                  false          :
          :   write xtbopt.log                true          :
          :   linear?                        false          :
          :   energy convergence         0.5000000E-05 Eh   :
          :   grad. convergence          0.1000000E-02 Eh/α :
          :   maximium RF displ.         2.0000000          :
          :   Hlow (freq-cutoff)         0.5000000E-02      :
          :   Hmax (freq-cutoff)         5.0000000          :
          :   S6 in model hess.         20.0000000          :
          ...................................................

generating ANC from model Hessian ...
Using Lindh-Hessian (1995)
 Shifting diagonal of input Hessian by   4.982623642213738E-003
 Lowest  eigenvalues of input Hessian
   -0.000000   -0.000000   -0.000000   -0.000000    0.000000    0.000000
    0.005000    0.005035    0.005050    0.005104    0.005195    0.005274
    0.005299    0.005335    0.005495    0.005630    0.005863    0.005990
 Highest eigenvalues
    2.090752    2.188470    2.189648    2.663201    2.670160    2.677273
 

........................................................................
.............................. CYCLE    1 ..............................
........................................................................
   1   -120.1613518 -0.120161E+03  0.144E-04    1.38       0.0  T
   2   -120.1613518  0.105274E-09  0.125E-04    1.38      96.6  T
   3   -120.1613518 -0.804562E-09  0.660E-05    1.38     182.3  T
     SCC iter.                  ...        0 min,  0.016 sec
     gradient                   ...        0 min,  0.007 sec
 * total energy  :  -118.0080756 Eh     change       -0.1057151E-07 Eh
   gradient norm :     0.1994676 Eh/α   predicted     0.0000000E+00 (-100.00%)
   displ. norm   :     0.2968063 α      lambda       -0.2841701E-01
   maximum displ.:     0.1018939 α      in ANC's #38, #43, #21, ...

........................................................................
.............................. CYCLE    2 ..............................
........................................................................
   1   -120.1914987 -0.120191E+03  0.258E-01    1.43       0.0  T
   2   -120.1917793 -0.280551E-03  0.140E-01    1.43       1.0  T
   3   -120.1916021  0.177179E-03  0.776E-02    1.43       1.0  T
   4   -120.1919679 -0.365814E-03  0.250E-02    1.43       1.0  T
   5   -120.1919778 -0.989212E-05  0.161E-02    1.43       1.0  T
   6   -120.1919882 -0.103338E-04  0.645E-03    1.43       1.9  T
   7   -120.1919904 -0.225162E-05  0.190E-03    1.43       6.3  T
   8   -120.1919906 -0.188612E-06  0.837E-04    1.43      14.4  T
     SCC iter.                  ...        0 min,  0.040 sec
     gradient                   ...        0 min,  0.007 sec
 * total energy  :  -118.0281851 Eh     change       -0.2010952E-01 Eh
   gradient norm :     0.0856062 Eh/α   predicted    -0.1546019E-01 ( -23.12%)
   displ. norm   :     0.3385426 α      lambda       -0.1126036E-01
   maximum displ.:     0.1634047 α      in ANC's #21, #38, #43, ...

........................................................................
.............................. CYCLE    3 ..............................
........................................................................
   1   -120.2286391 -0.120229E+03  0.226E-01    1.40       0.0  T
   2   -120.2288327 -0.193587E-03  0.124E-01    1.41       1.0  T
   3   -120.2286908  0.141901E-03  0.680E-02    1.41       1.0  T
   4   -120.2289464 -0.255639E-03  0.196E-02    1.41       1.0  T
   5   -120.2289526 -0.620313E-05  0.116E-02    1.41       1.0  T
   6   -120.2289583 -0.565604E-05  0.483E-03    1.41       2.5  T
   7   -120.2289595 -0.121237E-05  0.174E-03    1.41       6.9  T
     SCC iter.                  ...        0 min,  0.036 sec
     gradient                   ...        0 min,  0.007 sec
 * total energy  :  -118.0346480 Eh     change       -0.6462903E-02 Eh
   gradient norm :     0.0222415 Eh/α   predicted    -0.6275463E-02 (  -2.90%)
   displ. norm   :     0.3616288 α      lambda       -0.2272940E-02
   maximum displ.:     0.2282799 α      in ANC's #21, #19, #20, ...

........................................................................
.............................. CYCLE    4 ..............................
........................................................................
   1   -120.2280145 -0.120228E+03  0.203E-01    1.38       0.0  T
   2   -120.2280428 -0.283764E-04  0.112E-01    1.38       1.0  T
   3   -120.2279918  0.510172E-04  0.333E-02    1.38       1.0  T
   4   -120.2280433 -0.514839E-04  0.155E-02    1.38       1.0  T
   5   -120.2280490 -0.570308E-05  0.876E-03    1.38       1.4  T
   6   -120.2280541 -0.507973E-05  0.240E-03    1.38       5.0  T
   7   -120.2280544 -0.286897E-06  0.734E-04    1.38      16.4  T
     SCC iter.                  ...        0 min,  0.036 sec
     gradient                   ...        0 min,  0.007 sec
 * total energy  :  -118.0362085 Eh     change       -0.1560477E-02 Eh
   gradient norm :     0.0182351 Eh/α   predicted    -0.1285093E-02 ( -17.65%)
   displ. norm   :     0.5368473 α      lambda       -0.2724188E-02
   maximum displ.:     0.2874614 α      in ANC's #21, #19, #16, ...

........................................................................
.............................. CYCLE    5 ..............................
........................................................................
   1   -120.2226107 -0.120223E+03  0.293E-01    1.36       0.0  T
   2   -120.2226564 -0.456918E-04  0.162E-01    1.35       1.0  T
   3   -120.2225835  0.729810E-04  0.414E-02    1.35       1.0  T
   4   -120.2226483 -0.648225E-04  0.228E-02    1.35       1.0  T
   5   -120.2226638 -0.154777E-04  0.115E-02    1.35       1.0  T
   6   -120.2226724 -0.861227E-05  0.316E-03    1.35       3.8  T
   7   -120.2226729 -0.566085E-06  0.989E-04    1.35      12.2  T
   8   -120.2226730 -0.387902E-07  0.525E-04    1.35      23.0  T
     SCC iter.                  ...        0 min,  0.039 sec
     gradient                   ...        0 min,  0.007 sec
 * total energy  :  -118.0373827 Eh     change       -0.1174233E-02 Eh
   gradient norm :     0.0228892 Eh/α   predicted    -0.1754680E-02 (  49.43%)
   displ. norm   :     0.2898219 α      lambda       -0.1513552E-02
   maximum displ.:     0.1697078 α      in ANC's #21, #19, #20, ...

........................................................................
.............................. CYCLE    6 ..............................
........................................................................
   1   -120.2202467 -0.120220E+03  0.179E-01    1.35       0.0  T
   2   -120.2202553 -0.858045E-05  0.103E-01    1.35       1.0  T
   3   -120.2202098  0.455381E-04  0.283E-02    1.35       1.0  T
   4   -120.2202553 -0.455317E-04  0.115E-02    1.35       1.0  T
   5   -120.2202582 -0.286396E-05  0.605E-03    1.35       2.0  T
   6   -120.2202610 -0.277744E-05  0.144E-03    1.35       8.3  T
   7   -120.2202611 -0.104856E-06  0.590E-04    1.35      20.4  T
     SCC iter.                  ...        0 min,  0.036 sec
     gradient                   ...        0 min,  0.007 sec
 * total energy  :  -118.0382066 Eh     change       -0.8238935E-03 Eh
   gradient norm :     0.0196031 Eh/α   predicted    -0.8203442E-03 (  -0.43%)
   displ. norm   :     0.3467757 α      lambda       -0.1739632E-02
   maximum displ.:     0.1312851 α      in ANC's #20, #9, #18, ...

........................................................................
.............................. CYCLE    7 ..............................
........................................................................
   1   -120.2298462 -0.120230E+03  0.189E-01    1.36       0.0  T
   2   -120.2298599 -0.137239E-04  0.108E-01    1.37       1.0  T
   3   -120.2298216  0.382987E-04  0.276E-02    1.37       1.0  T
   4   -120.2298571 -0.354916E-04  0.144E-02    1.37       1.0  T
   5   -120.2298641 -0.697622E-05  0.638E-03    1.37       1.9  T
   6   -120.2298662 -0.210169E-05  0.221E-03    1.37       5.4  T
   7   -120.2298664 -0.231646E-06  0.101E-03    1.37      11.9  T
     SCC iter.                  ...        0 min,  0.035 sec
     gradient                   ...        0 min,  0.007 sec
 * total energy  :  -118.0387943 Eh     change       -0.5876531E-03 Eh
   gradient norm :     0.0176562 Eh/α   predicted    -0.9744204E-03 (  65.82%)
   displ. norm   :     0.2884978 α      lambda       -0.1075758E-02
   maximum displ.:     0.1495044 α      in ANC's #21, #16, #19, ...

........................................................................
.............................. CYCLE    8 ..............................
........................................................................
   1   -120.2290292 -0.120229E+03  0.129E-01    1.36       0.0  T
   2   -120.2290341 -0.485309E-05  0.726E-02    1.36       1.0  T
   3   -120.2290283  0.582972E-05  0.137E-02    1.36       1.0  T
   4   -120.2290326 -0.431049E-05  0.863E-03    1.36       1.4  T
   5   -120.2290353 -0.276333E-05  0.299E-03    1.36       4.0  T
   6   -120.2290360 -0.648644E-06  0.847E-04    1.36      14.2  T
     SCC iter.                  ...        0 min,  0.030 sec
     gradient                   ...        0 min,  0.007 sec
 * total energy  :  -118.0395440 Eh     change       -0.7497708E-03 Eh
   gradient norm :     0.0132185 Eh/α   predicted    -0.5826510E-03 ( -22.29%)
   displ. norm   :     0.3658007 α      lambda       -0.9121682E-03
   maximum displ.:     0.1453744 α      in ANC's #21, #9, #16, ...

........................................................................
.............................. CYCLE    9 ..............................
........................................................................
   1   -120.2306029 -0.120231E+03  0.158E-01    1.35       0.0  T
   2   -120.2306135 -0.105717E-04  0.880E-02    1.36       1.0  T
   3   -120.2305634  0.500794E-04  0.295E-02    1.36       1.0  T
   4   -120.2306172 -0.537890E-04  0.106E-02    1.35       1.1  T
   5   -120.2306185 -0.126547E-05  0.580E-03    1.35       2.1  T
   6   -120.2306205 -0.201281E-05  0.170E-03    1.35       7.1  T
   7   -120.2306206 -0.146141E-06  0.665E-04    1.35      18.1  T
     SCC iter.                  ...        0 min,  0.035 sec
     gradient                   ...        0 min,  0.007 sec
 * total energy  :  -118.0399983 Eh     change       -0.4542827E-03 Eh
   gradient norm :     0.0098020 Eh/α   predicted    -0.5171135E-03 (  13.83%)
   displ. norm   :     0.4119189 α      lambda       -0.6632115E-03
   maximum displ.:     0.1906688 α      in ANC's #21, #9, #16, ...

........................................................................
.............................. CYCLE   10 ..............................
........................................................................
   1   -120.2281091 -0.120228E+03  0.166E-01    1.35       0.0  T
   2   -120.2281194 -0.103634E-04  0.908E-02    1.35       1.0  T
   3   -120.2280989  0.205427E-04  0.219E-02    1.35       1.0  T
   4   -120.2281190 -0.200667E-04  0.121E-02    1.35       1.0  T
   5   -120.2281230 -0.403491E-05  0.477E-03    1.35       2.5  T
   6   -120.2281245 -0.148553E-05  0.152E-03    1.35       7.9  T
   7   -120.2281246 -0.949624E-07  0.859E-04    1.35      14.0  T
     SCC iter.                  ...        0 min,  0.035 sec
     gradient                   ...        0 min,  0.007 sec
 * total energy  :  -118.0402867 Eh     change       -0.2884319E-03 Eh
   gradient norm :     0.0112236 Eh/α   predicted    -0.3878760E-03 (  34.48%)
   displ. norm   :     0.1841606 α      lambda       -0.3956278E-03
   maximum displ.:     0.0941797 α      in ANC's #9, #10, #6, ...

........................................................................
.............................. CYCLE   11 ..............................
........................................................................
   1   -120.2319618 -0.120232E+03  0.736E-02    1.35       0.0  T
   2   -120.2319644 -0.257174E-05  0.412E-02    1.35       1.0  T
   3   -120.2319554  0.895488E-05  0.134E-02    1.35       1.0  T
   4   -120.2319646 -0.914185E-05  0.587E-03    1.35       2.1  T
   5   -120.2319654 -0.768890E-06  0.281E-03    1.35       4.3  T
   6   -120.2319658 -0.491410E-06  0.900E-04    1.35      13.4  T
     SCC iter.                  ...        0 min,  0.030 sec
     gradient                   ...        0 min,  0.007 sec
 * total energy  :  -118.0405494 Eh     change       -0.2627006E-03 Eh
   gradient norm :     0.0062732 Eh/α   predicted    -0.2045261E-03 ( -22.14%)
   displ. norm   :     0.3095891 α      lambda       -0.2974260E-03
   maximum displ.:     0.1473530 α      in ANC's #9, #6, #10, ...

........................................................................
.............................. CYCLE   12 ..............................
........................................................................
   1   -120.2328600 -0.120233E+03  0.104E-01    1.35       0.0  T
   2   -120.2328650 -0.499942E-05  0.574E-02    1.35       1.0  T
   3   -120.2328610  0.396772E-05  0.122E-02    1.35       1.0  T
   4   -120.2328656 -0.458862E-05  0.669E-03    1.35       1.8  T
   5   -120.2328666 -0.100590E-05  0.229E-03    1.35       5.3  T
   6   -120.2328669 -0.328645E-06  0.986E-04    1.35      12.2  T
     SCC iter.                  ...        0 min,  0.030 sec
     gradient                   ...        0 min,  0.007 sec
 * total energy  :  -118.0407219 Eh     change       -0.1724349E-03 Eh
   gradient norm :     0.0059686 Eh/α   predicted    -0.1629734E-03 (  -5.49%)
   displ. norm   :     0.3610345 α      lambda       -0.2752055E-03
   maximum displ.:     0.1979745 α      in ANC's #9, #6, #10, ...

........................................................................
.............................. CYCLE   13 ..............................
........................................................................
   1   -120.2356739 -0.120236E+03  0.118E-01    1.35       0.0  T
   2   -120.2356813 -0.737820E-05  0.648E-02    1.35       1.0  T
   3   -120.2356692  0.121208E-04  0.170E-02    1.35       1.0  T
   4   -120.2356827 -0.135545E-04  0.786E-03    1.34       1.5  T
   5   -120.2356836 -0.912899E-06  0.406E-03    1.35       3.0  T
   6   -120.2356847 -0.104796E-05  0.128E-03    1.35       9.4  T
   7   -120.2356848 -0.718738E-07  0.611E-04    1.35      19.7  T
     SCC iter.                  ...        0 min,  0.035 sec
     gradient                   ...        0 min,  0.007 sec
 * total energy  :  -118.0408162 Eh     change       -0.9434874E-04 Eh
   gradient norm :     0.0104030 Eh/α   predicted    -0.1555425E-03 (  64.86%)
   displ. norm   :     0.2563702 α      lambda       -0.2721915E-03
   maximum displ.:     0.1221814 α      in ANC's #9, #6, #10, ...

........................................................................
.............................. CYCLE   14 ..............................
........................................................................
   1   -120.2361094 -0.120236E+03  0.890E-02    1.34       0.0  T
   2   -120.2361134 -0.401696E-05  0.491E-02    1.34       1.0  T
   3   -120.2360925  0.209447E-04  0.183E-02    1.34       1.0  T
   4   -120.2361156 -0.231206E-04  0.610E-03    1.34       2.0  T
   5   -120.2361159 -0.254833E-06  0.354E-03    1.34       3.4  T
   6   -120.2361165 -0.641224E-06  0.116E-03    1.34      10.4  T
   7   -120.2361166 -0.850365E-07  0.466E-04    1.34      25.8  T
     SCC iter.                  ...        0 min,  0.035 sec
     gradient                   ...        0 min,  0.007 sec
 * total energy  :  -118.0409647 Eh     change       -0.1484610E-03 Eh
   gradient norm :     0.0084317 Eh/α   predicted    -0.1450412E-03 (  -2.30%)
   displ. norm   :     0.2525297 α      lambda       -0.2525313E-03
   maximum displ.:     0.1288409 α      in ANC's #6, #9, #21, ...

........................................................................
.............................. CYCLE   15 ..............................
........................................................................
   1   -120.2302705 -0.120230E+03  0.851E-02    1.34       0.0  T
   2   -120.2302742 -0.372707E-05  0.474E-02    1.34       1.0  T
   3   -120.2302594  0.148252E-04  0.157E-02    1.34       1.0  T
   4   -120.2302753 -0.159444E-04  0.585E-03    1.34       2.1  T
   5   -120.2302761 -0.788442E-06  0.286E-03    1.34       4.2  T
   6   -120.2302765 -0.403997E-06  0.101E-03    1.34      11.9  T
     SCC iter.                  ...        0 min,  0.030 sec
     gradient                   ...        0 min,  0.007 sec
 * total energy  :  -118.0410151 Eh     change       -0.5038681E-04 Eh
   gradient norm :     0.0074714 Eh/α   predicted    -0.1343191E-03 ( 166.58%)
   displ. norm   :     0.2247387 α      lambda       -0.3434795E-03
   maximum displ.:     0.0927222 α      in ANC's #6, #9, #18, ...

........................................................................
.............................. CYCLE   16 ..............................
........................................................................
   1   -120.2367049 -0.120237E+03  0.111E-01    1.35       0.0  T
   2   -120.2367107 -0.579204E-05  0.593E-02    1.35       1.0  T
   3   -120.2367077  0.296644E-05  0.116E-02    1.35       1.0  T
   4   -120.2367087 -0.101769E-05  0.846E-03    1.35       1.4  T
   5   -120.2367119 -0.318492E-05  0.311E-03    1.35       3.9  T
   6   -120.2367126 -0.685872E-06  0.630E-04    1.35      19.1  T
   7   -120.2367126 -0.200315E-07  0.296E-04    1.35      40.7  T
     SCC iter.                  ...        0 min,  0.034 sec
     gradient                   ...        0 min,  0.007 sec
 * total energy  :  -118.0411703 Eh     change       -0.1552601E-03 Eh
   gradient norm :     0.0101881 Eh/α   predicted    -0.1804146E-03 (  16.20%)
   displ. norm   :     0.2811721 α      lambda       -0.3176109E-03
   maximum displ.:     0.1489057 α      in ANC's #9, #6, #12, ...

........................................................................
.............................. CYCLE   17 ..............................
........................................................................
   1   -120.2358200 -0.120236E+03  0.115E-01    1.35       0.0  T
   2   -120.2358268 -0.678814E-05  0.621E-02    1.35       1.0  T
   3   -120.2358077  0.190835E-04  0.186E-02    1.35       1.0  T
   4   -120.2358281 -0.204312E-04  0.811E-03    1.35       1.5  T
   5   -120.2358298 -0.164133E-05  0.324E-03    1.35       3.7  T
   6   -120.2358303 -0.531333E-06  0.111E-03    1.35      10.9  T
   7   -120.2358304 -0.781103E-07  0.419E-04    1.35      28.7  T
     SCC iter.                  ...        0 min,  0.035 sec
     gradient                   ...        0 min,  0.007 sec
 * total energy  :  -118.0413390 Eh     change       -0.1686773E-03 Eh
   gradient norm :     0.0069346 Eh/α   predicted    -0.1713625E-03 (   1.59%)
   displ. norm   :     0.3465787 α      lambda       -0.1893107E-03
   maximum displ.:     0.2004237 α      in ANC's #6, #9, #3, ...

........................................................................
.............................. CYCLE   18 ..............................
........................................................................
   1   -120.2331374 -0.120233E+03  0.132E-01    1.35       0.0  T
   2   -120.2331460 -0.863391E-05  0.702E-02    1.35       1.0  T
   3   -120.2331462 -0.140877E-06  0.115E-02    1.35       1.0  T
   4   -120.2331430  0.319306E-05  0.927E-03    1.35       1.3  T
   5   -120.2331485 -0.550408E-05  0.214E-03    1.35       5.6  T
   6   -120.2331488 -0.289062E-06  0.732E-04    1.35      16.5  T
   7   -120.2331488 -0.118210E-07  0.443E-04    1.35      27.2  T
     SCC iter.                  ...        0 min,  0.034 sec
     gradient                   ...        0 min,  0.008 sec
 * total energy  :  -118.0414915 Eh     change       -0.1524637E-03 Eh
   gradient norm :     0.0053245 Eh/α   predicted    -0.1060295E-03 ( -30.46%)
   displ. norm   :     0.3579311 α      lambda       -0.2126219E-03
   maximum displ.:     0.2153163 α      in ANC's #6, #9, #3, ...

........................................................................
.............................. CYCLE   19 ..............................
........................................................................
   1   -120.2316223 -0.120232E+03  0.137E-01    1.35       0.0  T
   2   -120.2316313 -0.904492E-05  0.729E-02    1.35       1.0  T
   3   -120.2316236  0.766800E-05  0.155E-02    1.35       1.0  T
   4   -120.2316294 -0.575174E-05  0.104E-02    1.35       1.2  T
   5   -120.2316342 -0.476531E-05  0.328E-03    1.35       3.7  T
   6   -120.2316348 -0.655291E-06  0.847E-04    1.35      14.2  T
   7   -120.2316348 -0.197480E-07  0.488E-04    1.35      24.7  T
     SCC iter.                  ...        0 min,  0.034 sec
     gradient                   ...        0 min,  0.007 sec
 * total energy  :  -118.0416490 Eh     change       -0.1574848E-03 Eh
   gradient norm :     0.0043478 Eh/α   predicted    -0.1199331E-03 ( -23.84%)
   displ. norm   :     0.4303491 α      lambda       -0.1862990E-03
   maximum displ.:     0.2611179 α      in ANC's #6, #9, #3, ...

........................................................................
.............................. CYCLE   20 ..............................
........................................................................
   1   -120.2309738 -0.120231E+03  0.157E-01    1.34       0.0  T
   2   -120.2309866 -0.127472E-04  0.841E-02    1.34       1.0  T
   3   -120.2309794  0.720736E-05  0.169E-02    1.34       1.0  T
   4   -120.2309843 -0.494834E-05  0.116E-02    1.34       1.0  T
   5   -120.2309903 -0.597207E-05  0.374E-03    1.34       3.2  T
   6   -120.2309912 -0.927019E-06  0.953E-04    1.34      12.6  T
   7   -120.2309912 -0.300232E-07  0.571E-04    1.34      21.1  T
     SCC iter.                  ...        0 min,  0.034 sec
     gradient                   ...        0 min,  0.007 sec
 * total energy  :  -118.0417728 Eh     change       -0.1238644E-03 Eh
   gradient norm :     0.0066210 Eh/α   predicted    -0.1104056E-03 ( -10.87%)
   displ. norm   :     0.5000408 α      lambda       -0.2151898E-03
   maximum displ.:     0.3026930 α      in ANC's #6, #9, #3, ...
 * RMSD in coord.:     0.5977038 α      energy gain  -0.3369725E-01 Eh

generating ANC from model Hessian ...
Using Lindh-Hessian (1995)
 Shifting diagonal of input Hessian by   4.980007356714047E-003
 Lowest  eigenvalues of input Hessian
   -0.000000   -0.000000    0.000000    0.000000    0.000000    0.000000
    0.005000    0.005030    0.005051    0.005066    0.005191    0.005261
    0.005333    0.005342    0.005446    0.005697    0.006010    0.006253
 Highest eigenvalues
    2.105539    2.203114    2.211196    2.679514    2.688386    2.690523
 

........................................................................
.............................. CYCLE   21 ..............................
........................................................................
   1   -120.2289868 -0.120229E+03  0.164E-01    1.34       0.0  T
   2   -120.2290010 -0.141451E-04  0.891E-02    1.34       1.0  T
   3   -120.2290003  0.667650E-06  0.149E-02    1.34       1.0  T
   4   -120.2290006 -0.287630E-06  0.103E-02    1.34       1.2  T
   5   -120.2290052 -0.463830E-05  0.273E-03    1.34       4.4  T
   6   -120.2290057 -0.471966E-06  0.112E-03    1.34      10.8  T
   7   -120.2290057 -0.285884E-07  0.727E-04    1.34      16.6  T
   8   -120.2290058 -0.115614E-07  0.273E-04    1.34      44.0  T
     SCC iter.                  ...        0 min,  0.040 sec
     gradient                   ...        0 min,  0.007 sec
 * total energy  :  -118.0418903 Eh     change       -0.1175120E-03 Eh
   gradient norm :     0.0075681 Eh/α   predicted     0.0000000E+00 (-100.00%)
   displ. norm   :     0.1008421 α      lambda       -0.1949523E-03
   maximum displ.:     0.0539069 α      in ANC's #6, #11, #18, ...

........................................................................
.............................. CYCLE   22 ..............................
........................................................................
   1   -120.2334134 -0.120233E+03  0.604E-02    1.34       0.0  T
   2   -120.2334153 -0.191092E-05  0.318E-02    1.34       1.0  T
   3   -120.2334124  0.292647E-05  0.833E-03    1.34       1.4  T
   4   -120.2334150 -0.262527E-05  0.504E-03    1.34       2.4  T
   5   -120.2334159 -0.858064E-06  0.196E-03    1.34       6.1  T
   6   -120.2334161 -0.257388E-06  0.430E-04    1.34      28.0  T
     SCC iter.                  ...        0 min,  0.029 sec
     gradient                   ...        0 min,  0.007 sec
 * total energy  :  -118.0420008 Eh     change       -0.1104978E-03 Eh
   gradient norm :     0.0036083 Eh/α   predicted    -0.9846760E-04 ( -10.89%)
   displ. norm   :     0.0850128 α      lambda       -0.1042695E-03
   maximum displ.:     0.0395213 α      in ANC's #6, #11, #18, ...

........................................................................
.............................. CYCLE   23 ..............................
........................................................................
   1   -120.2371123 -0.120237E+03  0.507E-02    1.34       0.0  T
   2   -120.2371136 -0.132380E-05  0.270E-02    1.34       1.0  T
   3   -120.2371112  0.242274E-05  0.726E-03    1.34       1.7  T
   4   -120.2371135 -0.234825E-05  0.415E-03    1.34       2.9  T
   5   -120.2371140 -0.470943E-06  0.177E-03    1.34       6.8  T
   6   -120.2371142 -0.215442E-06  0.423E-04    1.34      28.4  T
   7   -120.2371142 -0.928144E-08  0.191E-04    1.34      62.9  T
     SCC iter.                  ...        0 min,  0.035 sec
     gradient                   ...        0 min,  0.007 sec
 * total energy  :  -118.0420547 Eh     change       -0.5385375E-04 Eh
   gradient norm :     0.0027443 Eh/α   predicted    -0.5251328E-04 (  -2.49%)
   displ. norm   :     0.0803165 α      lambda       -0.4937405E-04
   maximum displ.:     0.0434261 α      in ANC's #6, #11, #18, ...

........................................................................
.............................. CYCLE   24 ..............................
........................................................................
   1   -120.2366974 -0.120237E+03  0.441E-02    1.34       0.0  T
   2   -120.2366983 -0.916883E-06  0.234E-02    1.34       1.0  T
   3   -120.2366980  0.364409E-06  0.467E-03    1.34       2.6  T
   4   -120.2366982 -0.214444E-06  0.326E-03    1.34       3.7  T
   5   -120.2366986 -0.434635E-06  0.562E-04    1.34      21.4  T
   6   -120.2366986 -0.193987E-07  0.217E-04    1.34      55.5  T
     SCC iter.                  ...        0 min,  0.031 sec
     gradient                   ...        0 min,  0.007 sec
 * total energy  :  -118.0420941 Eh     change       -0.3943633E-04 Eh
   gradient norm :     0.0025234 Eh/α   predicted    -0.2484668E-04 ( -37.00%)
   displ. norm   :     0.2025239 α      lambda       -0.1002257E-03
   maximum displ.:     0.1085503 α      in ANC's #6, #11, #18, ...

........................................................................
.............................. CYCLE   25 ..............................
........................................................................
   1   -120.2344616 -0.120234E+03  0.109E-01    1.34       0.0  T
   2   -120.2344680 -0.640593E-05  0.565E-02    1.34       1.0  T
   3   -120.2344667  0.129249E-05  0.113E-02    1.34       1.1  T
   4   -120.2344673 -0.594627E-06  0.809E-03    1.34       1.5  T
   5   -120.2344698 -0.249480E-05  0.166E-03    1.34       7.3  T
   6   -120.2344700 -0.177702E-06  0.573E-04    1.34      21.0  T
   7   -120.2344700 -0.152564E-07  0.314E-04    1.34      38.4  T
     SCC iter.                  ...        0 min,  0.035 sec
     gradient                   ...        0 min,  0.007 sec
 * total energy  :  -118.0421581 Eh     change       -0.6398828E-04 Eh
   gradient norm :     0.0028526 Eh/α   predicted    -0.5218780E-04 ( -18.44%)
   displ. norm   :     0.2026157 α      lambda        0.2770550E-04
   maximum displ.:     0.1085460 α      in ANC's #6, #11, #18, ...

........................................................................
.............................. CYCLE   26 ..............................
........................................................................
   1   -120.2314344 -0.120231E+03  0.109E-01    1.34       0.0  T
   2   -120.2314408 -0.641157E-05  0.564E-02    1.34       1.0  T
   3   -120.2314392  0.164049E-05  0.115E-02    1.33       1.0  T
   4   -120.2314403 -0.115003E-05  0.802E-03    1.34       1.5  T
   5   -120.2314426 -0.233729E-05  0.166E-03    1.34       7.3  T
   6   -120.2314428 -0.173544E-06  0.570E-04    1.34      21.1  T
   7   -120.2314428 -0.146390E-07  0.323E-04    1.34      37.3  T
     SCC iter.                  ...        0 min,  0.035 sec
     gradient                   ...        0 min,  0.007 sec
 * total energy  :  -118.0421448 Eh     change        0.1327410E-04 Eh
   gradient norm :     0.0055743 Eh/α   predicted     0.1441961E-04 (   8.63%)
   displ. norm   :     0.0458686 α      lambda       -0.8901532E-04
   maximum displ.:     0.0174943 α      in ANC's #29, #35, #39, ...

........................................................................
.............................. CYCLE   27 ..............................
........................................................................
   1   -120.2331255 -0.120233E+03  0.336E-02    1.33       0.0  T
   2   -120.2331260 -0.524076E-06  0.180E-02    1.33       1.0  T
   3   -120.2331249  0.110583E-05  0.529E-03    1.33       2.3  T
   4   -120.2331260 -0.112744E-05  0.282E-03    1.33       4.3  T
   5   -120.2331262 -0.187525E-06  0.922E-04    1.33      13.1  T
     SCC iter.                  ...        0 min,  0.025 sec
     gradient                   ...        0 min,  0.007 sec
 * total energy  :  -118.0421970 Eh     change       -0.5219316E-04 Eh
   gradient norm :     0.0032675 Eh/α   predicted    -0.4460199E-04 ( -14.54%)
   displ. norm   :     0.0602498 α      lambda       -0.4925566E-04
   maximum displ.:     0.0267109 α      in ANC's #6, #3, #18, ...

........................................................................
.............................. CYCLE   28 ..............................
........................................................................
   1   -120.2356598 -0.120236E+03  0.270E-02    1.33       0.0  T
   2   -120.2356602 -0.414570E-06  0.145E-02    1.33       1.0  T
   3   -120.2356588  0.140945E-05  0.520E-03    1.33       2.3  T
   4   -120.2356604 -0.159166E-05  0.192E-03    1.33       6.3  T
   5   -120.2356604 -0.406032E-07  0.952E-04    1.33      12.6  T
   6   -120.2356605 -0.535422E-07  0.312E-04    1.33      38.6  T
     SCC iter.                  ...        0 min,  0.030 sec
     gradient                   ...        0 min,  0.007 sec
 * total energy  :  -118.0422340 Eh     change       -0.3691859E-04 Eh
   gradient norm :     0.0014604 Eh/α   predicted    -0.2471993E-04 ( -33.04%)
   displ. norm   :     0.2907070 α      lambda       -0.7036292E-04
   maximum displ.:     0.1659925 α      in ANC's #6, #3, #7, ...

........................................................................
.............................. CYCLE   29 ..............................
........................................................................
   1   -120.2371986 -0.120237E+03  0.126E-01    1.33       0.0  T
   2   -120.2372071 -0.850731E-05  0.668E-02    1.33       1.0  T
   3   -120.2372052  0.183052E-05  0.125E-02    1.33       1.0  T
   4   -120.2372066 -0.139070E-05  0.825E-03    1.33       1.5  T
   5   -120.2372096 -0.300906E-05  0.187E-03    1.33       6.4  T
   6   -120.2372099 -0.224990E-06  0.643E-04    1.33      18.7  T
   7   -120.2372099 -0.160298E-07  0.389E-04    1.33      30.9  T
     SCC iter.                  ...        0 min,  0.035 sec
     gradient                   ...        0 min,  0.007 sec
 * total energy  :  -118.0423115 Eh     change       -0.7752938E-04 Eh
   gradient norm :     0.0031432 Eh/α   predicted    -0.3650322E-04 ( -52.92%)
   displ. norm   :     0.2780912 α      lambda       -0.7714456E-04
   maximum displ.:     0.1585516 α      in ANC's #6, #3, #7, ...

........................................................................
.............................. CYCLE   30 ..............................
........................................................................
   1   -120.2358960 -0.120236E+03  0.123E-01    1.33       0.0  T
   2   -120.2359041 -0.810546E-05  0.650E-02    1.33       1.0  T
   3   -120.2359058 -0.167206E-05  0.101E-02    1.33       1.2  T
   4   -120.2359042  0.158068E-05  0.596E-03    1.32       2.0  T
   5   -120.2359064 -0.218949E-05  0.101E-03    1.33      11.9  T
   6   -120.2359065 -0.530764E-07  0.457E-04    1.33      26.3  T
   7   -120.2359065 -0.106404E-08  0.308E-04    1.33      39.1  T
     SCC iter.                  ...        0 min,  0.035 sec
     gradient                   ...        0 min,  0.007 sec
 * total energy  :  -118.0423805 Eh     change       -0.6898590E-04 Eh
   gradient norm :     0.0036024 Eh/α   predicted    -0.4156089E-04 ( -39.75%)
   displ. norm   :     0.4391318 α      lambda       -0.1234676E-03
   maximum displ.:     0.2480963 α      in ANC's #6, #3, #7, ...

........................................................................
.............................. CYCLE   31 ..............................
........................................................................
   1   -120.2326728 -0.120233E+03  0.183E-01    1.32       0.0  T
   2   -120.2326903 -0.175217E-04  0.975E-02    1.32       1.0  T
   3   -120.2326937 -0.338323E-05  0.148E-02    1.32       1.0  T
   4   -120.2326895  0.414634E-05  0.101E-02    1.32       1.2  T
   5   -120.2326953 -0.576511E-05  0.185E-03    1.32       6.5  T
   6   -120.2326955 -0.204447E-06  0.742E-04    1.32      16.2  T
   7   -120.2326955 -0.110132E-07  0.473E-04    1.32      25.4  T
     SCC iter.                  ...        0 min,  0.035 sec
     gradient                   ...        0 min,  0.007 sec
 * total energy  :  -118.0424823 Eh     change       -0.1018507E-03 Eh
   gradient norm :     0.0041722 Eh/α   predicted    -0.7363868E-04 ( -27.70%)
   displ. norm   :     0.5037065 α      lambda       -0.1344762E-03
   maximum displ.:     0.2828162 α      in ANC's #6, #3, #7, ...

........................................................................
.............................. CYCLE   32 ..............................
........................................................................
   1   -120.2295149 -0.120230E+03  0.201E-01    1.32       0.0  T
   2   -120.2295357 -0.207747E-04  0.107E-01    1.32       1.0  T
   3   -120.2295391 -0.335284E-05  0.162E-02    1.32       1.0  T
   4   -120.2295341  0.495530E-05  0.115E-02    1.32       1.0  T
   5   -120.2295419 -0.776609E-05  0.184E-03    1.32       6.5  T
   6   -120.2295420 -0.173950E-06  0.772E-04    1.32      15.6  T
   7   -120.2295420 -0.531773E-08  0.530E-04    1.32      22.7  T
     SCC iter.                  ...        0 min,  0.034 sec
     gradient                   ...        0 min,  0.007 sec
 * total energy  :  -118.0425839 Eh     change       -0.1016219E-03 Eh
   gradient norm :     0.0053189 Eh/α   predicted    -0.8430181E-04 ( -17.04%)
   displ. norm   :     0.4273224 α      lambda       -0.1404429E-03
   maximum displ.:     0.2360332 α      in ANC's #6, #3, #2, ...

........................................................................
.............................. CYCLE   33 ..............................
........................................................................
   1   -120.2293829 -0.120229E+03  0.157E-01    1.32       0.0  T
   2   -120.2293951 -0.121616E-04  0.849E-02    1.31       1.0  T
   3   -120.2293953 -0.247642E-06  0.132E-02    1.31       1.0  T
   4   -120.2293929  0.241308E-05  0.103E-02    1.31       1.2  T
   5   -120.2293988 -0.592693E-05  0.174E-03    1.31       6.9  T
   6   -120.2293990 -0.179083E-06  0.714E-04    1.31      16.9  T
   7   -120.2293990 -0.201166E-07  0.386E-04    1.31      31.2  T
     SCC iter.                  ...        0 min,  0.034 sec
     gradient                   ...        0 min,  0.007 sec
 * total energy  :  -118.0426944 Eh     change       -0.1104182E-03 Eh
   gradient norm :     0.0051728 Eh/α   predicted    -0.8304468E-04 ( -24.79%)
   displ. norm   :     0.4236518 α      lambda       -0.1798642E-03
   maximum displ.:     0.2248590 α      in ANC's #6, #3, #2, ...

........................................................................
.............................. CYCLE   34 ..............................
........................................................................
   1   -120.2331246 -0.120233E+03  0.148E-01    1.31       0.0  T
   2   -120.2331351 -0.105067E-04  0.800E-02    1.31       1.0  T
   3   -120.2331335  0.161479E-05  0.132E-02    1.31       1.0  T
   4   -120.2331341 -0.577061E-06  0.953E-03    1.31       1.3  T
   5   -120.2331384 -0.433741E-05  0.214E-03    1.31       5.6  T
   6   -120.2331387 -0.270477E-06  0.724E-04    1.31      16.6  T
   7   -120.2331387 -0.208316E-07  0.407E-04    1.31      29.6  T
     SCC iter.                  ...        0 min,  0.034 sec
     gradient                   ...        0 min,  0.007 sec
 * total energy  :  -118.0428194 Eh     change       -0.1250257E-03 Eh
   gradient norm :     0.0043222 Eh/α   predicted    -0.1060763E-03 ( -15.16%)
   displ. norm   :     0.6091021 α      lambda       -0.1613886E-03
   maximum displ.:     0.3352853 α      in ANC's #6, #3, #2, ...

........................................................................
.............................. CYCLE   35 ..............................
........................................................................
   1   -120.2308736 -0.120231E+03  0.225E-01    1.31       0.0  T
   2   -120.2308999 -0.263254E-04  0.120E-01    1.31       1.0  T
   3   -120.2309026 -0.266788E-05  0.188E-02    1.31       1.0  T
   4   -120.2308980  0.457062E-05  0.137E-02    1.31       1.0  T
   5   -120.2309075 -0.944926E-05  0.320E-03    1.31       3.8  T
   6   -120.2309082 -0.717655E-06  0.966E-04    1.31      12.5  T
   7   -120.2309082 -0.212926E-07  0.604E-04    1.31      19.9  T
     SCC iter.                  ...        0 min,  0.034 sec
     gradient                   ...        0 min,  0.007 sec
 * total energy  :  -118.0429304 Eh     change       -0.1110160E-03 Eh
   gradient norm :     0.0058136 Eh/α   predicted    -0.1106328E-03 (  -0.35%)
   displ. norm   :     0.3863006 α      lambda       -0.1422332E-03
   maximum displ.:     0.1961832 α      in ANC's #6, #3, #2, ...

........................................................................
.............................. CYCLE   36 ..............................
........................................................................
   1   -120.2353980 -0.120235E+03  0.124E-01    1.30       0.0  T
   2   -120.2354051 -0.701610E-05  0.682E-02    1.30       1.0  T
   3   -120.2354055 -0.470899E-06  0.962E-03    1.30       1.3  T
   4   -120.2354043  0.120224E-05  0.690E-03    1.30       1.7  T
   5   -120.2354070 -0.266357E-05  0.235E-03    1.30       5.1  T
   6   -120.2354074 -0.401761E-06  0.528E-04    1.30      22.8  T
     SCC iter.                  ...        0 min,  0.030 sec
     gradient                   ...        0 min,  0.007 sec
 * total energy  :  -118.0430308 Eh     change       -0.1004283E-03 Eh
   gradient norm :     0.0043771 Eh/α   predicted    -0.8173678E-04 ( -18.61%)
   displ. norm   :     0.6120463 α      lambda       -0.1668744E-03
   maximum displ.:     0.3317390 α      in ANC's #6, #3, #2, ...

........................................................................
.............................. CYCLE   37 ..............................
........................................................................
   1   -120.2320719 -0.120232E+03  0.206E-01    1.30       0.0  T
   2   -120.2320926 -0.207685E-04  0.112E-01    1.30       1.0  T
   3   -120.2320959 -0.327824E-05  0.158E-02    1.30       1.0  T
   4   -120.2320891  0.678604E-05  0.118E-02    1.30       1.0  T
   5   -120.2320988 -0.965042E-05  0.277E-03    1.30       4.3  T
   6   -120.2320993 -0.494749E-06  0.910E-04    1.30      13.2  T
   7   -120.2320993 -0.238118E-07  0.533E-04    1.30      22.6  T
     SCC iter.                  ...        0 min,  0.034 sec
     gradient                   ...        0 min,  0.007 sec
 * total energy  :  -118.0431369 Eh     change       -0.1060288E-03 Eh
   gradient norm :     0.0050518 Eh/α   predicted    -0.1146983E-03 (   8.18%)
   displ. norm   :     0.2870759 α      lambda       -0.1455985E-03
   maximum displ.:     0.1305458 α      in ANC's #6, #3, #2, ...

........................................................................
.............................. CYCLE   38 ..............................
........................................................................
   1   -120.2370286 -0.120237E+03  0.929E-02    1.30       0.0  T
   2   -120.2370327 -0.412032E-05  0.513E-02    1.30       1.0  T
   3   -120.2370281  0.464992E-05  0.111E-02    1.30       1.1  T
   4   -120.2370333 -0.527109E-05  0.554E-03    1.30       2.2  T
   5   -120.2370339 -0.594875E-06  0.278E-03    1.30       4.3  T
   6   -120.2370344 -0.510703E-06  0.756E-04    1.30      15.9  T
     SCC iter.                  ...        0 min,  0.029 sec
     gradient                   ...        0 min,  0.007 sec
 * total energy  :  -118.0432037 Eh     change       -0.6688549E-04 Eh
   gradient norm :     0.0046222 Eh/α   predicted    -0.7880396E-04 (  17.82%)
   displ. norm   :     0.4819022 α      lambda       -0.1139750E-03
   maximum displ.:     0.2632360 α      in ANC's #6, #3, #2, ...

........................................................................
.............................. CYCLE   39 ..............................
........................................................................
   1   -120.2328149 -0.120233E+03  0.157E-01    1.30       0.0  T
   2   -120.2328276 -0.126605E-04  0.857E-02    1.29       1.0  T
   3   -120.2328291 -0.152116E-05  0.122E-02    1.29       1.0  T
   4   -120.2328268  0.229051E-05  0.877E-03    1.29       1.4  T
   5   -120.2328311 -0.431671E-05  0.286E-03    1.29       4.2  T
   6   -120.2328317 -0.587329E-06  0.724E-04    1.29      16.6  T
   7   -120.2328317 -0.109521E-07  0.431E-04    1.29      27.9  T
     SCC iter.                  ...        0 min,  0.034 sec
     gradient                   ...        0 min,  0.007 sec
 * total energy  :  -118.0432744 Eh     change       -0.7070353E-04 Eh
   gradient norm :     0.0043492 Eh/α   predicted    -0.7022274E-04 (  -0.68%)
   displ. norm   :     0.2058138 α      lambda       -0.8120044E-04
   maximum displ.:     0.1073134 α      in ANC's #6, #3, #2, ...

........................................................................
.............................. CYCLE   40 ..............................
........................................................................
   1   -120.2347358 -0.120235E+03  0.583E-02    1.30       0.0  T
   2   -120.2347377 -0.187422E-05  0.324E-02    1.29       1.0  T
   3   -120.2347365  0.119809E-05  0.606E-03    1.29       2.0  T
   4   -120.2347379 -0.143493E-05  0.338E-03    1.29       3.6  T
   5   -120.2347382 -0.335308E-06  0.162E-03    1.29       7.4  T
   6   -120.2347384 -0.178098E-06  0.445E-04    1.29      27.0  T
     SCC iter.                  ...        0 min,  0.030 sec
     gradient                   ...        0 min,  0.007 sec
 * total energy  :  -118.0433219 Eh     change       -0.4740347E-04 Eh
   gradient norm :     0.0034941 Eh/α   predicted    -0.4232361E-04 ( -10.72%)
   displ. norm   :     0.3740916 α      lambda       -0.7181580E-04
   maximum displ.:     0.1986627 α      in ANC's #6, #3, #2, ...

........................................................................
.............................. CYCLE   41 ..............................
........................................................................
   1   -120.2335841 -0.120234E+03  0.113E-01    1.29       0.0  T
   2   -120.2335905 -0.635949E-05  0.618E-02    1.29       1.0  T
   3   -120.2335908 -0.330529E-06  0.866E-03    1.29       1.4  T
   4   -120.2335900  0.801994E-06  0.664E-03    1.29       1.8  T
   5   -120.2335924 -0.243515E-05  0.179E-03    1.29       6.7  T
   6   -120.2335927 -0.226545E-06  0.615E-04    1.29      19.6  T
   7   -120.2335927 -0.921609E-08  0.387E-04    1.29      31.1  T
     SCC iter.                  ...        0 min,  0.035 sec
     gradient                   ...        0 min,  0.007 sec
 * total energy  :  -118.0433700 Eh     change       -0.4815097E-04 Eh
   gradient norm :     0.0034496 Eh/α   predicted    -0.4093639E-04 ( -14.98%)
   displ. norm   :     0.2694234 α      lambda       -0.7301811E-04
   maximum displ.:     0.1272707 α      in ANC's #6, #3, #2, ...

........................................................................
.............................. CYCLE   42 ..............................
........................................................................
   1   -120.2365586 -0.120237E+03  0.779E-02    1.29       0.0  T
   2   -120.2365621 -0.348108E-05  0.425E-02    1.29       1.0  T
   3   -120.2365609  0.120619E-05  0.767E-03    1.29       1.6  T
   4   -120.2365625 -0.162254E-05  0.482E-03    1.29       2.5  T
   5   -120.2365633 -0.796651E-06  0.156E-03    1.29       7.7  T
   6   -120.2365635 -0.117605E-06  0.576E-04    1.29      20.9  T
   7   -120.2365635 -0.948698E-08  0.352E-04    1.29      34.2  T
     SCC iter.                  ...        0 min,  0.035 sec
     gradient                   ...        0 min,  0.007 sec
 * total energy  :  -118.0434094 Eh     change       -0.3940105E-04 Eh
   gradient norm :     0.0030597 Eh/α   predicted    -0.3916214E-04 (  -0.61%)
   displ. norm   :     0.4147584 α      lambda       -0.5095394E-04
   maximum displ.:     0.2151562 α      in ANC's #6, #3, #2, ...
 * RMSD in coord.:     0.7604562 α      energy gain  -0.1636575E-02 Eh

generating ANC from model Hessian ...
Using Lindh-Hessian (1995)
 Shifting diagonal of input Hessian by   4.977207524343142E-003
 Lowest  eigenvalues of input Hessian
   -0.000000   -0.000000   -0.000000   -0.000000    0.000000    0.000000
    0.005000    0.005022    0.005058    0.005071    0.005168    0.005246
    0.005330    0.005337    0.005433    0.005685    0.006222    0.006372
 Highest eigenvalues
    2.105960    2.206211    2.210671    2.685790    2.688250    2.689534
 

........................................................................
.............................. CYCLE   43 ..............................
........................................................................
   1   -120.2335640 -0.120234E+03  0.119E-01    1.29       0.0  T
   2   -120.2335711 -0.709713E-05  0.654E-02    1.29       1.0  T
   3   -120.2335716 -0.500108E-06  0.906E-03    1.29       1.3  T
   4   -120.2335709  0.734241E-06  0.703E-03    1.29       1.7  T
   5   -120.2335734 -0.257207E-05  0.164E-03    1.29       7.4  T
   6   -120.2335736 -0.161035E-06  0.655E-04    1.29      18.4  T
   7   -120.2335736 -0.733743E-08  0.422E-04    1.29      28.5  T
     SCC iter.                  ...        0 min,  0.035 sec
     gradient                   ...        0 min,  0.007 sec
 * total energy  :  -118.0434392 Eh     change       -0.2977317E-04 Eh
   gradient norm :     0.0033670 Eh/α   predicted     0.0000000E+00 (-100.00%)
   displ. norm   :     0.0593360 α      lambda       -0.5229183E-04
   maximum displ.:     0.0265155 α      in ANC's #19, #5, #9, ...

........................................................................
.............................. CYCLE   44 ..............................
........................................................................
   1   -120.2360996 -0.120236E+03  0.247E-02    1.29       0.0  T
   2   -120.2360999 -0.261641E-06  0.142E-02    1.29       1.0  T
   3   -120.2360992  0.694576E-06  0.349E-03    1.29       3.4  T
   4   -120.2361000 -0.817171E-06  0.103E-03    1.29      11.7  T
   5   -120.2361000 -0.933306E-08  0.581E-04    1.29      20.7  T
   6   -120.2361001 -0.156965E-07  0.197E-04    1.29      61.1  T
     SCC iter.                  ...        0 min,  0.030 sec
     gradient                   ...        0 min,  0.007 sec
 * total energy  :  -118.0434732 Eh     change       -0.3406213E-04 Eh
   gradient norm :     0.0015874 Eh/α   predicted    -0.2623824E-04 ( -22.97%)
   displ. norm   :     0.0933083 α      lambda       -0.3327321E-04
   maximum displ.:     0.0455771 α      in ANC's #19, #5, #9, ...

........................................................................
.............................. CYCLE   45 ..............................
........................................................................
   1   -120.2391571 -0.120239E+03  0.359E-02    1.29       0.0  T
   2   -120.2391576 -0.551228E-06  0.206E-02    1.29       1.0  T
   3   -120.2391560  0.159792E-05  0.516E-03    1.29       2.3  T
   4   -120.2391579 -0.182631E-05  0.155E-03    1.29       7.7  T
   5   -120.2391579 -0.294868E-07  0.989E-04    1.29      12.2  T
   6   -120.2391579 -0.591634E-07  0.293E-04    1.29      41.1  T
     SCC iter.                  ...        0 min,  0.030 sec
     gradient                   ...        0 min,  0.007 sec
 * total energy  :  -118.0434961 Eh     change       -0.2290692E-04 Eh
   gradient norm :     0.0022751 Eh/α   predicted    -0.1670233E-04 ( -27.09%)
   displ. norm   :     0.0659487 α      lambda       -0.2643257E-04
   maximum displ.:     0.0276061 α      in ANC's #19, #5, #9, ...

........................................................................
.............................. CYCLE   46 ..............................
........................................................................
   1   -120.2387267 -0.120239E+03  0.251E-02    1.29       0.0  T
   2   -120.2387269 -0.209193E-06  0.144E-02    1.29       1.0  T
   3   -120.2387268  0.140120E-06  0.210E-03    1.29       5.7  T
   4   -120.2387270 -0.177528E-06  0.109E-03    1.29      11.0  T
   5   -120.2387270 -0.261674E-07  0.532E-04    1.29      22.6  T
   6   -120.2387270 -0.210398E-07  0.140E-04    1.29      86.0  T
     SCC iter.                  ...        0 min,  0.030 sec
     gradient                   ...        0 min,  0.007 sec
 * total energy  :  -118.0435172 Eh     change       -0.2103395E-04 Eh
   gradient norm :     0.0020399 Eh/α   predicted    -0.1327678E-04 ( -36.88%)
   displ. norm   :     0.1513013 α      lambda       -0.4466776E-04
   maximum displ.:     0.0628779 α      in ANC's #19, #6, #5, ...

........................................................................
.............................. CYCLE   47 ..............................
........................................................................
   1   -120.2365792 -0.120237E+03  0.560E-02    1.29       0.0  T
   2   -120.2365804 -0.116822E-05  0.316E-02    1.29       1.0  T
   3   -120.2365801  0.289553E-06  0.439E-03    1.29       2.7  T
   4   -120.2365804 -0.265560E-06  0.301E-03    1.29       4.0  T
   5   -120.2365808 -0.360086E-06  0.110E-03    1.29      11.0  T
   6   -120.2365808 -0.934778E-07  0.272E-04    1.29      44.2  T
   7   -120.2365808 -0.261019E-08  0.140E-04    1.29      86.1  T
     SCC iter.                  ...        0 min,  0.035 sec
     gradient                   ...        0 min,  0.007 sec
 * total energy  :  -118.0435462 Eh     change       -0.2903513E-04 Eh
   gradient norm :     0.0016827 Eh/α   predicted    -0.2284547E-04 ( -21.32%)
   displ. norm   :     0.1595325 α      lambda       -0.1921591E-04
   maximum displ.:     0.0625838 α      in ANC's #6, #5, #19, ...

........................................................................
.............................. CYCLE   48 ..............................
........................................................................
   1   -120.2353125 -0.120235E+03  0.620E-02    1.29       0.0  T
   2   -120.2353142 -0.176633E-05  0.339E-02    1.29       1.0  T
   3   -120.2353142 -0.594311E-08  0.509E-03    1.29       2.4  T
   4   -120.2353139  0.332319E-06  0.386E-03    1.29       3.1  T
   5   -120.2353147 -0.839041E-06  0.100E-03    1.29      12.0  T
   6   -120.2353148 -0.751639E-07  0.282E-04    1.29      42.8  T
   7   -120.2353148 -0.256183E-08  0.164E-04    1.29      73.2  T
     SCC iter.                  ...        0 min,  0.035 sec
     gradient                   ...        0 min,  0.007 sec
 * total energy  :  -118.0435653 Eh     change       -0.1909833E-04 Eh
   gradient norm :     0.0017997 Eh/α   predicted    -0.9716842E-05 ( -49.12%)
   displ. norm   :     0.1325743 α      lambda       -0.1913589E-04
   maximum displ.:     0.0584627 α      in ANC's #6, #5, #9, ...

........................................................................
.............................. CYCLE   49 ..............................
........................................................................
   1   -120.2357556 -0.120236E+03  0.530E-02    1.29       0.0  T
   2   -120.2357571 -0.148141E-05  0.286E-02    1.29       1.0  T
   3   -120.2357570  0.820935E-07  0.463E-03    1.29       2.6  T
   4   -120.2357570 -0.171796E-07  0.317E-03    1.29       3.8  T
   5   -120.2357575 -0.495341E-06  0.893E-04    1.29      13.5  T
   6   -120.2357575 -0.549083E-07  0.283E-04    1.29      42.6  T
     SCC iter.                  ...        0 min,  0.030 sec
     gradient                   ...        0 min,  0.007 sec
 * total energy  :  -118.0435875 Eh     change       -0.2222212E-04 Eh
   gradient norm :     0.0015041 Eh/α   predicted    -0.9643044E-05 ( -56.61%)
   displ. norm   :     0.2309642 α      lambda       -0.2707031E-04
   maximum displ.:     0.1042565 α      in ANC's #6, #5, #9, ...

........................................................................
.............................. CYCLE   50 ..............................
........................................................................
   1   -120.2365127 -0.120237E+03  0.985E-02    1.29       0.0  T
   2   -120.2365181 -0.540663E-05  0.521E-02    1.29       1.0  T
   3   -120.2365188 -0.749665E-06  0.822E-03    1.29       1.5  T
   4   -120.2365176  0.124442E-05  0.577E-03    1.29       2.1  T
   5   -120.2365196 -0.202635E-05  0.116E-03    1.29      10.3  T
   6   -120.2365197 -0.874263E-07  0.483E-04    1.29      24.9  T
   7   -120.2365197 -0.925225E-08  0.250E-04    1.29      48.1  T
     SCC iter.                  ...        0 min,  0.035 sec
     gradient                   ...        0 min,  0.007 sec
 * total energy  :  -118.0436169 Eh     change       -0.2933550E-04 Eh
   gradient norm :     0.0016710 Eh/α   predicted    -0.1385793E-04 ( -52.76%)
   displ. norm   :     0.3106863 α      lambda       -0.3143603E-04
   maximum displ.:     0.1459128 α      in ANC's #6, #5, #9, ...

........................................................................
.............................. CYCLE   51 ..............................
........................................................................
   1   -120.2361668 -0.120236E+03  0.129E-01    1.28       0.0  T
   2   -120.2361756 -0.882780E-05  0.690E-02    1.28       1.0  T
   3   -120.2361775 -0.191517E-05  0.101E-02    1.28       1.2  T
   4   -120.2361751  0.247467E-05  0.682E-03    1.28       1.8  T
   5   -120.2361782 -0.313667E-05  0.127E-03    1.28       9.5  T
   6   -120.2361783 -0.965527E-07  0.589E-04    1.28      20.4  T
   7   -120.2361783 -0.109537E-07  0.310E-04    1.28      38.9  T
     SCC iter.                  ...        0 min,  0.035 sec
     gradient                   ...        0 min,  0.007 sec
 * total energy  :  -118.0436458 Eh     change       -0.2891606E-04 Eh
   gradient norm :     0.0024658 Eh/α   predicted    -0.1639795E-04 ( -43.29%)
   displ. norm   :     0.2125348 α      lambda       -0.3741104E-04
   maximum displ.:     0.1042640 α      in ANC's #6, #5, #1, ...

........................................................................
.............................. CYCLE   52 ..............................
........................................................................
   1   -120.2359819 -0.120236E+03  0.831E-02    1.28       0.0  T
   2   -120.2359854 -0.352359E-05  0.448E-02    1.28       1.0  T
   3   -120.2359862 -0.768963E-06  0.627E-03    1.28       1.9  T
   4   -120.2359854  0.780458E-06  0.419E-03    1.28       2.9  T
   5   -120.2359866 -0.112028E-05  0.553E-04    1.28      21.8  T
   6   -120.2359866 -0.101839E-07  0.311E-04    1.28      38.8  T
   7   -120.2359866 -0.102531E-08  0.158E-04    1.28      76.3  T
     SCC iter.                  ...        0 min,  0.035 sec
     gradient                   ...        0 min,  0.007 sec
 * total energy  :  -118.0436733 Eh     change       -0.2751747E-04 Eh
   gradient norm :     0.0021705 Eh/α   predicted    -0.1955223E-04 ( -28.95%)
   displ. norm   :     0.2552899 α      lambda       -0.4374909E-04
   maximum displ.:     0.1294085 α      in ANC's #6, #5, #1, ...

........................................................................
.............................. CYCLE   53 ..............................
........................................................................
   1   -120.2362716 -0.120236E+03  0.102E-01    1.28       0.0  T
   2   -120.2362773 -0.567337E-05  0.542E-02    1.28       1.0  T
   3   -120.2362785 -0.118968E-05  0.802E-03    1.28       1.5  T
   4   -120.2362771  0.138287E-05  0.530E-03    1.28       2.3  T
   5   -120.2362790 -0.185472E-05  0.106E-03    1.28      11.3  T
   6   -120.2362790 -0.728814E-07  0.450E-04    1.28      26.7  T
   7   -120.2362790 -0.419432E-08  0.236E-04    1.28      51.1  T
     SCC iter.                  ...        0 min,  0.035 sec
     gradient                   ...        0 min,  0.007 sec
 * total energy  :  -118.0437081 Eh     change       -0.3476969E-04 Eh
   gradient norm :     0.0018665 Eh/α   predicted    -0.2330113E-04 ( -32.98%)
   displ. norm   :     0.5210857 α      lambda       -0.5342964E-04
   maximum displ.:     0.2680519 α      in ANC's #6, #5, #1, ...

........................................................................
.............................. CYCLE   54 ..............................
........................................................................
   1   -120.2345812 -0.120235E+03  0.201E-01    1.28       0.0  T
   2   -120.2346025 -0.212430E-04  0.107E-01    1.28       1.0  T
   3   -120.2346072 -0.468408E-05  0.153E-02    1.28       1.0  T
   4   -120.2346037  0.344811E-05  0.950E-03    1.28       1.3  T
   5   -120.2346090 -0.526571E-05  0.161E-03    1.28       7.5  T
   6   -120.2346091 -0.108037E-06  0.906E-04    1.28      13.3  T
   7   -120.2346091 -0.192319E-07  0.503E-04    1.28      23.9  T
     SCC iter.                  ...        0 min,  0.035 sec
     gradient                   ...        0 min,  0.007 sec
 * total energy  :  -118.0437606 Eh     change       -0.5250009E-04 Eh
   gradient norm :     0.0023549 Eh/α   predicted    -0.2993901E-04 ( -42.97%)
   displ. norm   :     0.3470525 α      lambda        0.1555475E-04
   maximum displ.:     0.1787013 α      in ANC's #6, #5, #1, ...

........................................................................
.............................. CYCLE   55 ..............................
........................................................................
   1   -120.2317581 -0.120232E+03  0.134E-01    1.28       0.0  T
   2   -120.2317676 -0.948163E-05  0.717E-02    1.28       1.0  T
   3   -120.2317696 -0.201798E-05  0.103E-02    1.28       1.2  T
   4   -120.2317683  0.133310E-05  0.640E-03    1.28       1.9  T
   5   -120.2317705 -0.220588E-05  0.119E-03    1.28      10.1  T
   6   -120.2317705 -0.614725E-07  0.558E-04    1.28      21.6  T
   7   -120.2317705 -0.222515E-08  0.348E-04    1.28      34.6  T
     SCC iter.                  ...        0 min,  0.037 sec
     gradient                   ...        0 min,  0.008 sec
 * total energy  :  -118.0437553 Eh     change        0.5265088E-05 Eh
   gradient norm :     0.0046488 Eh/α   predicted     0.8709585E-05 (  65.42%)
   displ. norm   :     0.0779339 α      lambda       -0.6516744E-04
   maximum displ.:     0.0383781 α      in ANC's #12, #14, #19, ...

........................................................................
.............................. CYCLE   56 ..............................
........................................................................
   1   -120.2350150 -0.120235E+03  0.364E-02    1.28       0.0  T
   2   -120.2350157 -0.720715E-06  0.199E-02    1.28       1.0  T
   3   -120.2350149  0.826738E-06  0.467E-03    1.28       2.6  T
   4   -120.2350157 -0.859678E-06  0.243E-03    1.28       5.0  T
   5   -120.2350159 -0.126041E-06  0.136E-03    1.28       8.8  T
     SCC iter.                  ...        0 min,  0.025 sec
     gradient                   ...        0 min,  0.007 sec
 * total energy  :  -118.0437950 Eh     change       -0.3970958E-04 Eh
   gradient norm :     0.0027919 Eh/α   predicted    -0.3278146E-04 ( -17.45%)
   displ. norm   :     0.0779360 α      lambda        0.2208152E-04
   maximum displ.:     0.0383792 α      in ANC's #12, #14, #19, ...

........................................................................
.............................. CYCLE   57 ..............................
........................................................................
   1   -120.2380772 -0.120238E+03  0.366E-02    1.28       0.0  T
   2   -120.2380779 -0.723849E-06  0.199E-02    1.28       1.0  T
   3   -120.2380773  0.605632E-06  0.445E-03    1.28       2.7  T
   4   -120.2380780 -0.712413E-06  0.223E-03    1.28       5.4  T
   5   -120.2380780 -0.631749E-07  0.119E-03    1.28      10.1  T
   6   -120.2380781 -0.982719E-07  0.296E-04    1.28      40.7  T
   7   -120.2380781 -0.518220E-08  0.114E-04    1.28     105.2  T
     SCC iter.                  ...        0 min,  0.036 sec
     gradient                   ...        0 min,  0.007 sec
 * total energy  :  -118.0437855 Eh     change        0.9505683E-05 Eh
   gradient norm :     0.0042897 Eh/α   predicted     0.1110485E-04 (  16.82%)
   displ. norm   :     0.1129286 α      lambda       -0.5630308E-04
   maximum displ.:     0.0540365 α      in ANC's #6, #5, #9, ...

........................................................................
.............................. CYCLE   58 ..............................
........................................................................
   1   -120.2360369 -0.120236E+03  0.453E-02    1.28       0.0  T
   2   -120.2360380 -0.114568E-05  0.246E-02    1.28       1.0  T
   3   -120.2360375  0.531015E-06  0.473E-03    1.28       2.5  T
   4   -120.2360382 -0.683249E-06  0.262E-03    1.28       4.6  T
   5   -120.2360383 -0.161417E-06  0.128E-03    1.28       9.4  T
     SCC iter.                  ...        0 min,  0.025 sec
     gradient                   ...        0 min,  0.007 sec
 * total energy  :  -118.0438256 Eh     change       -0.4008996E-04 Eh
   gradient norm :     0.0018407 Eh/α   predicted    -0.2851099E-04 ( -28.88%)
   displ. norm   :     0.3869030 α      lambda       -0.4813277E-04
   maximum displ.:     0.2109710 α      in ANC's #6, #1, #5, ...

........................................................................
.............................. CYCLE   59 ..............................
........................................................................
   1   -120.2331535 -0.120233E+03  0.143E-01    1.28       0.0  T
   2   -120.2331636 -0.100472E-04  0.775E-02    1.28       1.0  T
   3   -120.2331641 -0.556731E-06  0.116E-02    1.28       1.0  T
   4   -120.2331624  0.172287E-05  0.845E-03    1.28       1.4  T
   5   -120.2331667 -0.431692E-05  0.183E-03    1.28       6.6  T
   6   -120.2331669 -0.203585E-06  0.655E-04    1.28      18.4  T
   7   -120.2331670 -0.103054E-07  0.394E-04    1.28      30.5  T
     SCC iter.                  ...        0 min,  0.036 sec
     gradient                   ...        0 min,  0.007 sec
 * total energy  :  -118.0438683 Eh     change       -0.4265775E-04 Eh
   gradient norm :     0.0029333 Eh/α   predicted    -0.2567049E-04 ( -39.82%)
   displ. norm   :     0.1812527 α      lambda       -0.3608858E-04
   maximum displ.:     0.1003665 α      in ANC's #6, #1, #2, ...

........................................................................
.............................. CYCLE   60 ..............................
........................................................................
   1   -120.2334974 -0.120233E+03  0.681E-02    1.28       0.0  T
   2   -120.2334995 -0.208350E-05  0.367E-02    1.28       1.0  T
   3   -120.2334998 -0.334880E-06  0.530E-03    1.28       2.3  T
   4   -120.2334991  0.678370E-06  0.372E-03    1.28       3.2  T
   5   -120.2335001 -0.974014E-06  0.623E-04    1.28      19.3  T
   6   -120.2335001 -0.208117E-07  0.261E-04    1.28      46.2  T
     SCC iter.                  ...        0 min,  0.031 sec
     gradient                   ...        0 min,  0.007 sec
 * total energy  :  -118.0438986 Eh     change       -0.3030376E-04 Eh
   gradient norm :     0.0025644 Eh/α   predicted    -0.1863904E-04 ( -38.49%)
   displ. norm   :     0.3777428 α      lambda       -0.6588324E-04
   maximum displ.:     0.2142344 α      in ANC's #6, #1, #2, ...

........................................................................
.............................. CYCLE   61 ..............................
........................................................................
   1   -120.2347671 -0.120235E+03  0.137E-01    1.28       0.0  T
   2   -120.2347753 -0.819155E-05  0.744E-02    1.28       1.0  T
   3   -120.2347772 -0.187337E-05  0.102E-02    1.28       1.2  T
   4   -120.2347753  0.184417E-05  0.594E-03    1.28       2.0  T
   5   -120.2347777 -0.237795E-05  0.131E-03    1.28       9.2  T
   6   -120.2347778 -0.104166E-06  0.510E-04    1.28      23.6  T
   7   -120.2347778 -0.395470E-08  0.321E-04    1.28      37.5  T
     SCC iter.                  ...        0 min,  0.035 sec
     gradient                   ...        0 min,  0.007 sec
 * total energy  :  -118.0439420 Eh     change       -0.4340589E-04 Eh
   gradient norm :     0.0018903 Eh/α   predicted    -0.3764259E-04 ( -13.28%)
   displ. norm   :     0.5149662 α      lambda       -0.3694159E-04
   maximum displ.:     0.3023556 α      in ANC's #6, #1, #2, ...

........................................................................
.............................. CYCLE   62 ..............................
........................................................................
   1   -120.2324005 -0.120232E+03  0.183E-01    1.28       0.0  T
   2   -120.2324156 -0.151063E-04  0.994E-02    1.28       1.0  T
   3   -120.2324190 -0.335636E-05  0.132E-02    1.28       1.0  T
   4   -120.2324159  0.306316E-05  0.811E-03    1.28       1.5  T
   5   -120.2324204 -0.443454E-05  0.162E-03    1.28       7.4  T
   6   -120.2324205 -0.146536E-06  0.733E-04    1.28      16.4  T
   7   -120.2324205 -0.129554E-07  0.393E-04    1.28      30.6  T
     SCC iter.                  ...        0 min,  0.035 sec
     gradient                   ...        0 min,  0.007 sec
 * total energy  :  -118.0439619 Eh     change       -0.1990935E-04 Eh
   gradient norm :     0.0038999 Eh/α   predicted    -0.2065154E-04 (   3.73%)
   displ. norm   :     0.1126204 α      lambda       -0.4985609E-04
   maximum displ.:     0.0602416 α      in ANC's #6, #1, #13, ...

........................................................................
.............................. CYCLE   63 ..............................
........................................................................
[...]
       107        2.0000           -0.3707718             -10.0892
       108        2.0000           -0.3564440              -9.6993
       109        2.0000           -0.3550265              -9.6608
       110        2.0000           -0.3538954              -9.6300 (HOMO)
       111                         -0.3072582              -8.3609 (LUMO)
       112                         -0.3010169              -8.1911
       113                         -0.2939047              -7.9976
       114                         -0.2832677              -7.7081
       115                         -0.2692573              -7.3269
       ...                                ...                  ...
       225                          1.4239550              38.7478
      -------------------------------------------------------------
                  HL-Gap            0.0466373 Eh            1.2691 eV
             Fermi-level           -0.3304282 Eh           -8.9914 eV

 SCC (total)                   0 d,  0 h,  0 min,  0.034 sec
 SCC setup                      ...        0 min,  0.001 sec (  2.630%)
 Dispersion                     ...        0 min,  0.002 sec (  5.085%)
 integral evaluation            ...        0 min,  0.007 sec ( 22.189%)
 zeroth order Hamiltonian       ...        0 min,  0.000 sec (  1.219%)
 iterations                     ...        0 min,  0.016 sec ( 46.774%)
 molecular gradient             ...        0 min,  0.007 sec ( 20.561%)
 printout                       ...        0 min,  0.000 sec (  1.317%)

         :::::::::::::::::::::::::::::::::::::::::::::::::::::
         ::                     SUMMARY                     ::
         :::::::::::::::::::::::::::::::::::::::::::::::::::::
         :: total energy            -118.044445798387 Eh    ::
         :: gradient norm              0.000977603269 Eh/a0 ::
         :: HOMO-LUMO gap              1.269064542323 eV    ::
         ::.................................................::
         :: SCC energy              -120.237458291880 Eh    ::
         :: -> isotropic ES            0.031418288348 Eh    ::
         :: -> anisotropic ES          0.007564534993 Eh    ::
         :: -> anisotropic XC          0.094637149195 Eh    ::
         :: -> dispersion             -0.083374120695 Eh    ::
         :: repulsion energy           2.194880070923 Eh    ::
         :: add. restraining           0.000000000000 Eh    ::
         :::::::::::::::::::::::::::::::::::::::::::::::::::::

           -------------------------------------------------
          |                Property Printout                |
           -------------------------------------------------

    * Orbital Energies and Occupations

         #    Occupation            Energy/Eh            Energy/eV
      -------------------------------------------------------------
         1        2.0000           -0.7359290             -20.0256
       ...           ...                  ...                  ...
        98        2.0000           -0.4133101             -11.2467
        99        2.0000           -0.4120297             -11.2119
       100        2.0000           -0.4113185             -11.1925
       101        2.0000           -0.4097834             -11.1508
       102        2.0000           -0.4050141             -11.0210
       103        2.0000           -0.4045226             -11.0076
       104        2.0000           -0.4039246             -10.9913
       105        2.0000           -0.3985783             -10.8459
       106        2.0000           -0.3861837             -10.5086
       107        2.0000           -0.3707718             -10.0892
       108        2.0000           -0.3564440              -9.6993
       109        2.0000           -0.3550265              -9.6608
       110        2.0000           -0.3538954              -9.6300 (HOMO)
       111                         -0.3072582              -8.3609 (LUMO)
       112                         -0.3010169              -8.1911
       113                         -0.2939047              -7.9976
       114                         -0.2832677              -7.7081
       115                         -0.2692573              -7.3269
       116                         -0.2579557              -7.0193
       117                         -0.2405664              -6.5461
       118                         -0.2324956              -6.3265
       119                         -0.2228361              -6.0637
       120                         -0.2173837              -5.9153
       121                         -0.2151789              -5.8553
       ...                                ...                  ...
       225                          1.4239550              38.7478
      -------------------------------------------------------------
                  HL-Gap            0.0466373 Eh            1.2691 eV
             Fermi-level           -0.3304282 Eh           -8.9914 eV

     #   Z        covCN         q      C6AA      α(0)
     1   6 C      2.923    -0.031    28.764     8.795
     2   6 C      2.996     0.014    27.689     8.632
     3   6 C      2.924    -0.047    29.176     8.858
     4   6 C      2.974     0.082    26.174     8.392
     5   6 C      2.979     0.082    26.172     8.392
     6   6 C      2.914    -0.037    28.931     8.820
     7   7 N      1.841    -0.215    26.531     7.634
     8   6 C      2.903     0.054    26.788     8.486
     9   6 C      2.901     0.056    26.734     8.478
    10   7 N      1.842    -0.219    26.616     7.646
    11   6 C      2.992     0.020    27.554     8.611
    12  16 S      2.357    -0.029   142.270    20.075
    13   6 C      2.986     0.051    26.846     8.499
    14   6 C      3.092    -0.044    28.986     8.824
    15   6 C      3.103    -0.045    28.974     8.820
    16   6 C      2.018    -0.042    32.147     9.157
    17   6 C      1.979    -0.026    31.746     9.099
    18   6 C      2.894    -0.015    28.375     8.734
    19   6 C      2.951    -0.033    28.820     8.805
    20   6 C      2.988     0.028    27.375     8.583
    21  16 S      2.358    -0.031   142.326    20.079
    22   6 C      2.985     0.050    26.873     8.503
    23   6 C      3.090    -0.043    28.968     8.822
    24   6 C      3.093    -0.047    29.043     8.833
    25   6 C      2.016    -0.042    32.138     9.156
    26   6 C      1.975    -0.027    31.771     9.102
    27   6 C      2.895    -0.012    28.325     8.726
    28   6 C      2.933    -0.035    28.878     8.813
    29   6 C      2.988     0.028    27.374     8.582
    30  16 S      2.341    -0.034   142.456    20.088
    31   6 C      2.986     0.049    26.883     8.505
    32   6 C      3.086    -0.042    28.952     8.820
    33   6 C      3.096    -0.048    29.076     8.837
    34   6 C      2.017    -0.040    32.102     9.150
    35   6 C      1.978    -0.027    31.781     9.104
    36   6 C      2.891    -0.009    28.231     8.711
    37   6 C      2.914    -0.033    28.822     8.803
    38   6 C      2.967     0.019    27.581     8.614
    39   6 C      2.924    -0.031    28.785     8.798
    40   6 C      2.913    -0.039    28.968     8.826
    41   6 C      2.979     0.082    26.177     8.393
    42   6 C      2.974     0.081    26.199     8.396
    43   6 C      2.922    -0.045    29.124     8.850
    44   7 N      1.842    -0.220    26.639     7.649
    45   6 C      2.901     0.056    26.740     8.479
    46   6 C      2.903     0.054    26.784     8.486
    47   7 N      1.841    -0.217    26.569     7.639
    48   1 H      0.926     0.052     2.300     2.372
    49   1 H      0.926     0.056     2.252     2.346
    50   1 H      0.926     0.058     2.224     2.332
    51   1 H      0.925     0.039     2.456     2.451
    52   1 H      0.925     0.039     2.457     2.451
    53   1 H      0.926     0.040     2.442     2.444
    54   1 H      0.926     0.041     2.437     2.441
    55   1 H      0.925     0.049     2.326     2.385
    56   1 H      0.925     0.046     2.367     2.406
    57   1 H      0.926     0.039     2.464     2.455
    58   1 H      0.926     0.038     2.480     2.463
    59   1 H      0.925     0.058     2.224     2.332
    60   1 H      0.925     0.044     2.400     2.423
    61   1 H      0.926     0.039     2.458     2.452
    62   1 H      0.926     0.036     2.496     2.471
    63   1 H      0.925     0.054     2.265     2.353
    64   1 H      0.925     0.043     2.412     2.429
    65   1 H      0.926     0.043     2.413     2.429
    66   1 H      0.926     0.055     2.255     2.348
    67   1 H      0.926     0.056     2.252     2.347
    68   1 H      0.925     0.038     2.471     2.458
    69   1 H      0.925     0.038     2.470     2.458

 Mol. C6AA /au·bohr⁶  :      92216.059845
 Mol. C8AA /au·bohr⁸  :    2600570.268273
 Mol. α(0) /au        :        493.150964


Wiberg/Mayer (AO) data.
largest (>0.10) Wiberg bond orders for each atom
          total WBO             WBO to atom ...
     1  C   3.986        C    6 1.590    C    2 1.251    H   48 0.959
     2  C   3.987        C    3 1.453    C    1 1.251    C   11 1.125
     3  C   3.974        C    2 1.453    C    4 1.293    H   49 0.963    C    6 0.102
     4  C   3.980        C    3 1.293    N   10 1.279    C    5 1.213
     5  C   3.968        N    7 1.302    C    6 1.252    C    4 1.213
     6  C   3.988        C    1 1.590    C    5 1.252    H   50 0.965    C    3 0.102
     7  N   3.062        C    8 1.549    C    5 1.302
     8  C   3.961        N    7 1.549    C    9 1.282    H   51 0.963
     9  C   3.979        N   10 1.561    C    8 1.282    H   52 0.962
    10  N   3.053        C    9 1.561    C    4 1.279
    11  C   3.924        C   15 1.482    S   12 1.141    C    2 1.125
    12  S   2.581        C   11 1.141    C   13 1.115
    13  C   3.940        C   14 1.448    C   16 1.211    S   12 1.115
    14  C   3.946        C   13 1.448    C   15 1.353    H   53 0.965
    15  C   3.979        C   11 1.482    C   14 1.353    H   54 0.961
    16  C   3.929        C   17 2.545    C   13 1.211
    17  C   3.962        C   16 2.545    C   18 1.215
    18  C   3.962        C   19 1.633    C   17 1.215    H   55 0.945
    19  C   3.936        C   18 1.633    C   20 1.197    H   56 0.964
    20  C   3.925        C   24 1.441    C   19 1.197    S   21 1.133
    21  S   2.558        C   20 1.133    C   22 1.116
    22  C   3.929        C   23 1.431    C   25 1.218    S   21 1.116
    23  C   3.949        C   22 1.431    C   24 1.374    H   57 0.965
    24  C   3.951        C   20 1.441    C   23 1.374    H   58 0.962
    25  C   3.929        C   26 2.536    C   22 1.218
    26  C   3.954        C   25 2.536    C   27 1.220
    27  C   3.963        C   28 1.636    C   26 1.220    H   59 0.939
    28  C   3.933        C   27 1.636    C   29 1.198    H   60 0.959
    29  C   3.930        C   33 1.445    C   28 1.198    S   30 1.131
    30  S   2.558        C   29 1.131    C   31 1.109
    31  C   3.929        C   32 1.442    C   34 1.213    S   30 1.109
    32  C   3.952        C   31 1.442    C   33 1.365    H   61 0.965
    33  C   3.948        C   29 1.445    C   32 1.365    H   62 0.964
    34  C   3.943        C   35 2.549    C   31 1.213    C   37 0.105
    35  C   3.953        C   34 2.549    C   36 1.206
    36  C   3.977        C   37 1.684    C   35 1.206    H   63 0.942
    37  C   3.928        C   36 1.684    C   38 1.133    H   64 0.964    C   34 0.105
    38  C   3.987        C   43 1.455    C   39 1.248    C   37 1.133
    39  C   3.980        C   40 1.590    C   38 1.248    H   65 0.967
    40  C   3.989        C   39 1.590    C   41 1.253    H   66 0.966    C   43 0.102
    41  C   3.972        N   47 1.301    C   40 1.253    C   42 1.212
    42  C   3.980        C   43 1.294    N   44 1.279    C   41 1.212
    43  C   3.956        C   38 1.455    C   42 1.294    H   67 0.961    C   40 0.102
    44  N   3.056        C   45 1.561    C   42 1.279
    45  C   3.979        N   44 1.561    C   46 1.281    H   68 0.963
    46  C   3.961        N   47 1.549    C   45 1.281    H   69 0.963
    47  N   3.062        C   46 1.549    C   41 1.301
    48  H   0.997        C    1 0.959
    49  H   0.997        C    3 0.963
    50  H   0.996        C    6 0.965
    51  H   0.998        C    8 0.963
    52  H   0.998        C    9 0.962
    53  H   0.998        C   14 0.965
    54  H   0.998        C   15 0.961
    55  H   0.995        C   18 0.945
    56  H   0.997        C   19 0.964
    57  H   0.998        C   23 0.965
    58  H   0.998        C   24 0.962
    59  H   0.994        C   27 0.939
    60  H   0.998        C   28 0.959
    61  H   0.998        C   32 0.965
    62  H   0.998        C   33 0.964
    63  H   0.995        C   36 0.942
    64  H   0.998        C   37 0.964
    65  H   0.998        C   39 0.967
    66  H   0.996        C   40 0.966
    67  H   0.997        C   43 0.961
    68  H   0.998        C   45 0.963
    69  H   0.998        C   46 0.963

molecular dipole:
                 x           y           z       tot (Debye)
 q only:       -0.055      -0.663      -0.757
   full:        0.045      -0.966      -1.196       3.909
molecular quadrupole (traceless):
                xx          xy          yy          xz          yz          zz
 q only:      -30.488      41.031       6.020      17.458      14.106      24.469
  q+dip:      -17.746      32.500      -5.660      46.599      25.896      23.407
   full:      -22.327      41.667      -0.073      41.728      17.206      22.400

           -------------------------------------------------
          |                Geometry Summary                 |
           -------------------------------------------------

      molecular mass/u    :      654.8206000
   center of mass at/Å    :      -13.1655485      -0.1997044      -2.8176981
  moments of inertia/u·Å² :        0.6544753E+04   0.6896092E+05   0.7545659E+05
rotational constants/cm⁻¹ :        0.2575748E-02   0.2444519E-03   0.2234083E-03

 * 67 selected distances

     #   Z        #   Z                                     value/Å
     1   6 C      2   6 C                                 1.4197426
     2   6 C      3   6 C                                 1.3817951
     3   6 C      4   6 C                                 1.4030523
     4   6 C      5   6 C                                 1.4241585
     1   6 C      6   6 C                                 1.3617432
     5   6 C      6   6 C                                 1.4107554
     5   6 C      7   7 N                                 1.3469741
     7   7 N      8   6 C                                 1.3069438
     8   6 C      9   6 C                                 1.4102594
     4   6 C     10   7 N                                 1.3524851
     9   6 C     10   7 N                                 1.3052023
    11   6 C     12  16 S                                 1.7414231
    12  16 S     13   6 C                                 1.7419476
    13   6 C     14   6 C                                 1.3774579
    11   6 C     15   6 C                                 1.3769408
    14   6 C     15   6 C                                 1.3963060
    16   6 C     17   6 C                                 1.2146631
    18   6 C     19   6 C                                 1.3532352
    19   6 C     20   6 C                                 1.4220697
    20   6 C     21  16 S                                 1.7423003
    21  16 S     22   6 C                                 1.7430940
    22   6 C     23   6 C                                 1.3806211
    20   6 C     24   6 C                                 1.3816818
    23   6 C     24   6 C                                 1.3931047
    25   6 C     26   6 C                                 1.2153739
    27   6 C     28   6 C                                 1.3524701
    28   6 C     29   6 C                                 1.4211210
    29   6 C     30  16 S                                 1.7430070
    30  16 S     31   6 C                                 1.7453324 (max)
    31   6 C     32   6 C                                 1.3786277
    29   6 C     33   6 C                                 1.3807736
    32   6 C     33   6 C                                 1.3943563
    34   6 C     35   6 C                                 1.2145403
    36   6 C     37   6 C                                 1.3482490
    38   6 C     39   6 C                                 1.4209631
    39   6 C     40   6 C                                 1.3621665
    40   6 C     41   6 C                                 1.4107023
    41   6 C     42   6 C                                 1.4245469
    38   6 C     43   6 C                                 1.3818488
    42   6 C     43   6 C                                 1.4030239
    42   6 C     44   7 N                                 1.3524973
    44   7 N     45   6 C                                 1.3051204
    45   6 C     46   6 C                                 1.4103571
    41   6 C     47   7 N                                 1.3473433
    46   6 C     47   7 N                                 1.3068645
     1   6 C     48   1 H                                 1.0808472
     3   6 C     49   1 H                                 1.0777442
     6   6 C     50   1 H                                 1.0787741
     8   6 C     51   1 H                                 1.0818627
     9   6 C     52   1 H                                 1.0822326
    14   6 C     53   1 H                                 1.0755119
    15   6 C     54   1 H                                 1.0748237 (min)
    18   6 C     55   1 H                                 1.0817980
    19   6 C     56   1 H                                 1.0823023
    23   6 C     57   1 H                                 1.0757048
    24   6 C     58   1 H                                 1.0752812
    27   6 C     59   1 H                                 1.0841238
    28   6 C     60   1 H                                 1.0823287
    32   6 C     61   1 H                                 1.0756237
    33   6 C     62   1 H                                 1.0759191
    36   6 C     63   1 H                                 1.0820872
    37   6 C     64   1 H                                 1.0831450
    39   6 C     65   1 H                                 1.0809215
    40   6 C     66   1 H                                 1.0789295
    43   6 C     67   1 H                                 1.0784052
    45   6 C     68   1 H                                 1.0820292
    46   6 C     69   1 H                                 1.0819471

 * 4 distinct bonds (by element types)

   Z      Z             #   av. dist./Å        max./Å        min./Å
   1 H    6 C          22     1.0796520     1.0841238     1.0748237
   6 C    6 C          31     1.3750551     1.4245469     1.2145403
   6 C    7 N           8     1.3279289     1.3524973     1.3051204
   6 C   16 S           6     1.7428507     1.7453324     1.7414231


optimized geometry written to: xtbopt.xyz


           -------------------------------------------------
          | TOTAL ENERGY             -118.044445798387 Eh   |
          | GRADIENT NORM               0.000977603269 Eh/α |
          | HOMO-LUMO GAP               1.269064542323 eV   |
           -------------------------------------------------

------------------------------------------------------------------------
 * finished run on 2021/06/01 at 23:53:02.328     
------------------------------------------------------------------------
 total:
 * wall-time:     0 d,  0 h,  0 min,  5.176 sec
 *  cpu-time:     0 d,  0 h,  1 min,  1.970 sec
 * ratio c/w:    11.973 speedup
 SCF:
 * wall-time:     0 d,  0 h,  0 min,  0.096 sec
 *  cpu-time:     0 d,  0 h,  0 min,  1.128 sec
 * ratio c/w:    11.769 speedup
 ANC optimizer:
 * wall-time:     0 d,  0 h,  0 min,  5.054 sec
 *  cpu-time:     0 d,  0 h,  1 min,  0.628 sec
 * ratio c/w:    11.995 speedup

