      -----------------------------------------------------------      
     |                   =====================                   |     
     |                           x T B                           |     
     |                   =====================                   |     
     |                         S. Grimme                         |     
     |          Mulliken Center for Theoretical Chemistry        |     
     |                    University of Bonn                     |     
     |                Version 6.2 RC2 (SAW190805)                |     
      -----------------------------------------------------------      

   This program is distributed in the hope that it will be useful,
   but WITHOUT ANY WARRANTY; without even the implied warranty of
   MERCHANTABILITY or FITNESS FOR A PARTICULAR PURPOSE.
   
   FOR NON-COMMERCIAL, ACADEMIA USE ONLY.
   
   Cite this work as:
   * S. Grimme, C. Bannwarth, P. Shushkov, J. Chem. Theory Comput., 2017,
     13, 1989-2009. DOI: 10.1021/acs.jctc.7b00118
   * C. Bannwarth, S. Ehlert and S. Grimme., J. Chem. Theory Comput., 2019,
     15, 1652-1671. DOI: 10.1021/acs.jctc.8b01176
   * P. Pracht, E. Caldeweyher, S. Ehlert, S. Grimme, ChemRxiv, 2019, preprint.
     DOI: 10.26434/chemrxiv.8326202.v1
   
   for DFT-D4:
   * E. Caldeweyher, C. Bannwarth and S. Grimme, J. Chem. Phys., 2017,
     147, 034112. DOI: 10.1063/1.4993215
   * E. Caldeweyher, S. Ehlert, A. Hansen, H. Neugebauer, S. Spicher,
     C. Bannwarth and S. Grimme, J. Chem. Phys., 2019, 150, 154122.
     DOI: 10.1063/1.5090222
   
   for sTDA-xTB:
   * S. Grimme and C. Bannwarth, J. Chem. Phys., 2016, 145, 054103.
     DOI: 10.1063/1.4959605
   
   in the mass-spec context:
   * V. Asgeirsson, C. Bauer and S. Grimme, Chem. Sci., 2017, 8, 4879.
     DOI: 10.1039/c7sc00601b
   
   for metadynamics refer to:
   * S. Grimme, J. Chem. Theory Comput., 2019, 155, 2847-2862
     DOI: 10.1021/acs.jctc.9b00143
   
   with help from (in alphabetical order)
   C. Bannwarth, F. Bohle, G. Brandenburg, E. Caldeweyher, M. Checinski,
   S. Dohm, S. Ehlert, S. Ehrlich, F. März, H. Neugebauer, J. Pisarek,
   P. Pracht, P. Shushkov, and S. Spicher.
   
 * started run on 2021/06/03 at 15:12:57.130     

           -------------------------------------------------
          |                Calculation Setup                |
           -------------------------------------------------

          program call               : /ihome/ghutchison/geoffh/xtb/xtb /ihome/ghutchison/blp62/GA/running_GA/sequence/generations/13/201_47_47_181_103_10035.xyz -opt
          hostname                   : smp-n16
          coordinate file            : /ihome/ghutchison/blp62/GA/running_GA/sequence/generations/13/201_47_47_181_103_10035.xyz
          omp threads                :                    12
          number of atoms            :                   112
          number of electrons        :                   338
          charge                     :                     0
          spin                       :                   0.0
          first test random number   :      0.25778959361469


########################################################################
# WARNING! Please study the warnings concerning your input carefully
#  - XTBPATH is not set, using XTBHOME instead
#  - the use of '-opt' is discouraged, please use '--opt' next time
########################################################################

           ------------------------------------------------- 
          |                 G F N 2 - x T B                 |
          | Geometry, Frequencies, Noncovalent interactions |
          |            JCTC 2019 parametrisation            |
           ------------------------------------------------- 
             KAB for C  - Si     :                1.0500
             KAB for H  - Pd     :                0.9500
             k(s)              :                1.8500
             k(p)              :                2.2300
             k(d)              :                2.2300
             k(f)              :                2.0000
             kEN (H0ij)        :               -2.0000
             D4 a1             :                0.5200
             D4 a2             :                5.0000
             D4 s6             :                1.0000
             D4 s8             :                2.7000
             D4 s9             :                5.0000
             alphaj            :                2.0000

  Z AO/shell   Hii/eV     exponent
  1     Wed Apr 25 08:07:45 CEST 2018   EN: 2.200 GM2: 0.406  GM3: 0.0800  RAES: 1.40
     1s    -10.707211    1.230000
  6     Wed Apr 25 08:07:45 CEST 2018   EN: 2.550 GM2: 0.538  GM3: 0.1500  RAES: 3.00
     2s    -13.970922    2.096432
     2p    -10.063292    1.800000
  7     Wed Apr 25 08:07:45 CEST 2018   EN: 3.040 GM2: 0.461  GM3:-0.0640  RAES: 1.90
     2s    -16.686243    2.339881
     2p    -12.523956    2.014332
  8     Wed Apr 25 08:07:45 CEST 2018   EN: 3.440 GM2: 0.452  GM3:-0.0517  RAES: 1.80
     2s    -20.229985    2.439742
     2p    -15.503117    2.137023
 16     Tue Apr 24 11:44:34 CEST 2018   EN: 2.580 GM2: 0.340  GM3:-0.0502  RAES: 3.10
     3s    -20.029654    1.981333
     3p    -11.377694    2.025643
     3d     -0.420282    1.702555

           ------------------------------------------------- 
          |        Self-Consistent Charge Iterations        |
           ------------------------------------------------- 

          ...................................................
          :                      SETUP                      :
          :.................................................:
          :  # basis functions                 352          :
          :  # atomic orbitals                 346          :
          :  # shells                          186          :
          :  # electrons                       338          :
          :  max. iterations                   250          :
          :  Hamiltonian                  GFN2-xTB          :
          :  restarted?                      false          :
          :  GBSA solvation                  false          :
          :  PC potential                    false          :
          :  electronic temp.          300.0000000     K    :
          :  accuracy                    1.0000000          :
          :  -> integral cutoff          0.2500000E+02      :
          :  -> integral neglect         0.1000000E-07      :
          :  -> SCF convergence          0.1000000E-05 Eh   :
          :  -> wf. convergence          0.1000000E-03 e    :
          :  Broyden damping             0.4000000          :
          ...................................................

 iter      E             dE          RMSdq      gap      omega  full diag
   1   -186.2118477 -0.186212E+03  0.453E+00    0.95       0.0  T
   2   -186.3064809 -0.946333E-01  0.256E+00    0.79       1.0  T
   3   -186.0751049  0.231376E+00  0.159E+00    0.92       1.0  T
   4   -186.3407521 -0.265647E+00  0.508E-01    0.84       1.0  T
   5   -186.3475420 -0.678995E-02  0.311E-01    0.84       1.0  T
   6   -186.3556251 -0.808304E-02  0.147E-01    0.84       1.0  T
   7   -186.3572190 -0.159390E-02  0.835E-02    0.83       1.0  T
   8   -186.3579893 -0.770315E-03  0.314E-02    0.84       1.0  T
   9   -186.3580648 -0.755290E-04  0.164E-02    0.84       1.0  T
  10   -186.3580805 -0.156409E-04  0.755E-03    0.84       1.3  T
  11   -186.3580829 -0.243254E-05  0.418E-03    0.84       2.3  T
  12   -186.3580841 -0.119500E-05  0.225E-03    0.84       4.2  T
  13   -186.3580846 -0.517435E-06  0.678E-04    0.84      13.9  T
  14   -186.3580846 -0.201055E-07  0.390E-04    0.84      24.3  T

   *** convergence criteria satisfied after 14 iterations ***

         #    Occupation            Energy/Eh            Energy/eV
      -------------------------------------------------------------
         1        2.0000           -0.7348571             -19.9965
       ...           ...                  ...                  ...
       163        2.0000           -0.3726284             -10.1397
       164        2.0000           -0.3633804              -9.8881
       165        2.0000           -0.3522322              -9.5847
       166        2.0000           -0.3506205              -9.5409
       167        2.0000           -0.3446500              -9.3784
       168        2.0000           -0.3424601              -9.3188
       169        2.0000           -0.3406168              -9.2687 (HOMO)
       170        0.0000           -0.3098311              -8.4309 (LUMO)
       171                         -0.2962741              -8.0620
       172                         -0.2889647              -7.8631
       173                         -0.2768708              -7.5340
       174                         -0.2591588              -7.0521
       ...                                ...                  ...
       346                          0.7748033              21.0835
      -------------------------------------------------------------
                  HL-Gap            0.0307857 Eh            0.8377 eV
             Fermi-level           -0.3251543 Eh           -8.8479 eV

 SCC (total)                   0 d,  0 h,  0 min,  0.211 sec
 SCC setup                      ...        0 min,  0.002 sec (  1.084%)
 Dispersion                     ...        0 min,  0.005 sec (  2.306%)
 integral evaluation            ...        0 min,  0.021 sec (  9.967%)
 zeroth order Hamiltonian       ...        0 min,  0.001 sec (  0.532%)
 iterations                     ...        0 min,  0.161 sec ( 76.568%)
 molecular gradient             ...        0 min,  0.019 sec (  9.067%)
 printout                       ...        0 min,  0.001 sec (  0.429%)

         :::::::::::::::::::::::::::::::::::::::::::::::::::::
         ::                     SUMMARY                     ::
         :::::::::::::::::::::::::::::::::::::::::::::::::::::
         :: total energy            -183.639550951501 Eh    ::
         :: gradient norm              0.181459814699 Eh/a0 ::
         :: HOMO-LUMO gap              0.837721359407 eV    ::
         ::.................................................::
         :: SCC energy              -186.358084618173 Eh    ::
         :: -> isotropic ES            0.086234487304 Eh    ::
         :: -> anisotropic ES          0.015270320971 Eh    ::
         :: -> anisotropic XC          0.087059383868 Eh    ::
         :: -> dispersion             -0.152386400168 Eh    ::
         :: repulsion energy           2.716974128380 Eh    ::
         :: add. restraining           0.000000000000 Eh    ::
         :::::::::::::::::::::::::::::::::::::::::::::::::::::

      ----------------------------------------------------------- 
     |                   =====================                   |
     |                        A N C O P T                        |
     |                   =====================                   |
     |               Approximate Normal Coordinate               |
     |                Rational Function Optimizer                |
      ----------------------------------------------------------- 

          ...................................................
          :                      SETUP                      :
          :.................................................:
          :   optimization level            normal          :
          :   max. optcycles                   336          :
          :   ANC micro-cycles                  20          :
          :   degrees of freedom               330          :
          :.................................................:
          :   RF solver                   davidson          :
          :   input Hessian                  false          :
          :   write xtbopt.log                true          :
          :   linear?                        false          :
          :   energy convergence         0.5000000E-05 Eh   :
          :   grad. convergence          0.1000000E-02 Eh/α :
          :   maximium RF displ.         2.0000000          :
          :   Hlow (freq-cutoff)         0.5000000E-02      :
          :   Hmax (freq-cutoff)         5.0000000          :
          :   S6 in model hess.         20.0000000          :
          ...................................................

generating ANC from model Hessian ...
Using Lindh-Hessian (1995)
 Shifting diagonal of input Hessian by   4.985305719098170E-003
 Lowest  eigenvalues of input Hessian
   -0.000000   -0.000000   -0.000000    0.000000    0.000000    0.000000
    0.005000    0.005009    0.005015    0.005023    0.005057    0.005083
    0.005129    0.005209    0.005228    0.005295    0.005318    0.005455
 Highest eigenvalues
    2.051092    2.074461    2.080263    2.087316    2.134567    2.176223
 

........................................................................
.............................. CYCLE    1 ..............................
........................................................................
   1   -186.3580846 -0.186358E+03  0.217E-04    0.84       0.0  T
   2   -186.3580846  0.200507E-08  0.226E-04    0.84      41.8  T
   3   -186.3580846 -0.581076E-08  0.918E-05    0.84     103.0  T
     SCC iter.                  ...        0 min,  0.037 sec
     gradient                   ...        0 min,  0.018 sec
 * total energy  :  -183.6395510 Eh     change       -0.3352588E-07 Eh
   gradient norm :     0.1814629 Eh/α   predicted     0.0000000E+00 (-100.00%)
   displ. norm   :     0.4614342 α      lambda       -0.4426608E-01
   maximum displ.:     0.1127752 α      in ANC's #151, #66, #84, ...

........................................................................
.............................. CYCLE    2 ..............................
........................................................................
   1   -186.4284806 -0.186428E+03  0.265E-01    0.69       0.0  T
   2   -186.4284824 -0.179093E-05  0.151E-01    0.67       1.0  T
   3   -186.4263936  0.208888E-02  0.145E-01    0.71       1.0  T
   4   -186.4287025 -0.230899E-02  0.561E-02    0.69       1.0  T
   5   -186.4290468 -0.344262E-03  0.195E-02    0.69       1.0  T
   6   -186.4290327  0.140698E-04  0.179E-02    0.69       1.0  T
   7   -186.4290698 -0.370436E-04  0.652E-03    0.69       1.4  T
   8   -186.4290743 -0.451584E-05  0.206E-03    0.69       4.6  T
   9   -186.4290747 -0.377356E-06  0.104E-03    0.69       9.1  T
     SCC iter.                  ...        0 min,  0.103 sec
     gradient                   ...        0 min,  0.018 sec
 * total energy  :  -183.6723751 Eh     change       -0.3282415E-01 Eh
   gradient norm :     0.0963445 Eh/α   predicted    -0.2684568E-01 ( -18.21%)
   displ. norm   :     0.4714953 α      lambda       -0.2109553E-01
   maximum displ.:     0.1202685 α      in ANC's #66, #38, #35, ...

........................................................................
.............................. CYCLE    3 ..............................
........................................................................
   1   -186.4708219 -0.186471E+03  0.257E-01    0.53       0.0  T
   2   -186.4709076 -0.856737E-04  0.141E-01    0.53       1.0  T
   3   -186.4690458  0.186179E-02  0.132E-01    0.56       1.0  T
   4   -186.4706258 -0.158003E-02  0.709E-02    0.55       1.0  T
   5   -186.4712046 -0.578836E-03  0.293E-02    0.54       1.0  T
   6   -186.4712535 -0.488124E-04  0.225E-02    0.55       1.0  T
   7   -186.4713141 -0.606809E-04  0.758E-03    0.55       1.2  T
   8   -186.4713200 -0.586624E-05  0.204E-03    0.55       4.6  T
   9   -186.4713204 -0.378635E-06  0.931E-04    0.55      10.1  T
     SCC iter.                  ...        0 min,  0.102 sec
     gradient                   ...        0 min,  0.018 sec
 * total energy  :  -183.6857561 Eh     change       -0.1338094E-01 Eh
   gradient norm :     0.0308563 Eh/α   predicted    -0.1289261E-01 (  -3.65%)
   displ. norm   :     0.5207218 α      lambda       -0.6055813E-02
   maximum displ.:     0.1785019 α      in ANC's #35, #26, #38, ...

........................................................................
.............................. CYCLE    4 ..............................
........................................................................
   1   -186.4702053 -0.186470E+03  0.233E-01    0.49       0.0  T
   2   -186.4702929 -0.876244E-04  0.120E-01    0.50       1.0  T
   3   -186.4698135  0.479357E-03  0.715E-02    0.49       1.0  T
   4   -186.4702848 -0.471271E-03  0.298E-02    0.50       1.0  T
   5   -186.4703309 -0.461174E-04  0.189E-02    0.50       1.0  T
   6   -186.4703025  0.284582E-04  0.196E-02    0.50       1.0  T
   7   -186.4703613 -0.588304E-04  0.799E-03    0.50       1.2  T
   8   -186.4703710 -0.970782E-05  0.165E-03    0.50       5.7  T
   9   -186.4703712 -0.229329E-06  0.830E-04    0.50      11.4  T
  10   -186.4703712 -0.549522E-08  0.672E-04    0.50      14.1  T
     SCC iter.                  ...        0 min,  0.114 sec
     gradient                   ...        0 min,  0.018 sec
 * total energy  :  -183.6905359 Eh     change       -0.4779826E-02 Eh
   gradient norm :     0.0209583 Eh/α   predicted    -0.3848929E-02 ( -19.48%)
   displ. norm   :     0.6653548 α      lambda       -0.5146141E-02
   maximum displ.:     0.2402119 α      in ANC's #26, #35, #27, ...

........................................................................
.............................. CYCLE    5 ..............................
........................................................................
   1   -186.4656677 -0.186466E+03  0.277E-01    0.46       0.0  T
   2   -186.4657576 -0.898935E-04  0.147E-01    0.47       1.0  T
   3   -186.4645010  0.125667E-02  0.107E-01    0.46       1.0  T
   4   -186.4657007 -0.119971E-02  0.410E-02    0.47       1.0  T
   5   -186.4657674 -0.666968E-04  0.287E-02    0.47       1.0  T
   6   -186.4656468  0.120569E-03  0.362E-02    0.47       1.0  T
   7   -186.4658763 -0.229479E-03  0.745E-03    0.47       1.3  T
   8   -186.4658833 -0.705016E-05  0.261E-03    0.47       3.6  T
   9   -186.4658841 -0.736980E-06  0.134E-03    0.47       7.1  T
  10   -186.4658842 -0.159419E-06  0.797E-04    0.47      11.9  T
     SCC iter.                  ...        0 min,  0.115 sec
     gradient                   ...        0 min,  0.018 sec
 * total energy  :  -183.6947399 Eh     change       -0.4203988E-02 Eh
   gradient norm :     0.0190373 Eh/α   predicted    -0.3712160E-02 ( -11.70%)
   displ. norm   :     0.7049142 α      lambda       -0.4243808E-02
   maximum displ.:     0.2858825 α      in ANC's #26, #35, #22, ...

........................................................................
.............................. CYCLE    6 ..............................
........................................................................
   1   -186.4630116 -0.186463E+03  0.297E-01    0.44       0.0  T
   2   -186.4630413 -0.297051E-04  0.159E-01    0.45       1.0  T
   3   -186.4566304  0.641086E-02  0.194E-01    0.45       1.0  T
   4   -186.4610561 -0.442569E-02  0.108E-01    0.45       1.0  T
   5   -186.4630985 -0.204244E-02  0.344E-02    0.45       1.0  T
   6   -186.4631917 -0.932084E-04  0.205E-02    0.45       1.0  T
   7   -186.4632338 -0.420696E-04  0.636E-03    0.45       1.5  T
   8   -186.4632365 -0.273512E-05  0.305E-03    0.45       3.1  T
   9   -186.4632375 -0.964134E-06  0.165E-03    0.45       5.7  T
  10   -186.4632378 -0.308499E-06  0.814E-04    0.45      11.6  T
     SCC iter.                  ...        0 min,  0.115 sec
     gradient                   ...        0 min,  0.020 sec
 * total energy  :  -183.6983235 Eh     change       -0.3583635E-02 Eh
   gradient norm :     0.0206272 Eh/α   predicted    -0.3176323E-02 ( -11.37%)
   displ. norm   :     0.7185130 α      lambda       -0.3848190E-02
   maximum displ.:     0.3159960 α      in ANC's #26, #35, #22, ...

........................................................................
.............................. CYCLE    7 ..............................
........................................................................
   1   -186.4668222 -0.186467E+03  0.308E-01    0.42       0.0  T
   2   -186.4667330  0.891196E-04  0.165E-01    0.43       1.0  T
   3   -186.4511652  0.155678E-01  0.288E-01    0.45       1.0  T
   4   -186.4655773 -0.144121E-01  0.896E-02    0.43       1.0  T
   5   -186.4669396 -0.136228E-02  0.308E-02    0.43       1.0  T
   6   -186.4669887 -0.491542E-04  0.206E-02    0.43       1.0  T
   7   -186.4670385 -0.497461E-04  0.661E-03    0.43       1.4  T
   8   -186.4670419 -0.344509E-05  0.322E-03    0.43       2.9  T
   9   -186.4670429 -0.998101E-06  0.175E-03    0.43       5.4  T
     SCC iter.                  ...        0 min,  0.098 sec
     gradient                   ...        0 min,  0.018 sec
 * total energy  :  -183.7016132 Eh     change       -0.3289680E-02 Eh
   gradient norm :     0.0197901 Eh/α   predicted    -0.2917444E-02 ( -11.32%)
   displ. norm   :     0.7221216 α      lambda       -0.3540652E-02
   maximum displ.:     0.3414610 α      in ANC's #26, #35, #17, ...

........................................................................
.............................. CYCLE    8 ..............................
........................................................................
   1   -186.4757124 -0.186476E+03  0.314E-01    0.42       0.0  T
   2   -186.4753711  0.341281E-03  0.170E-01    0.42       1.0  T
   3   -186.4470770  0.282941E-01  0.382E-01    0.46       1.0  T
   4   -186.4752496 -0.281726E-01  0.642E-02    0.42       1.0  T
   5   -186.4758201 -0.570507E-03  0.298E-02    0.42       1.0  T
   6   -186.4758752 -0.550671E-04  0.175E-02    0.42       1.0  T
   7   -186.4759121 -0.369516E-04  0.804E-03    0.42       1.2  T
   8   -186.4759225 -0.103857E-04  0.256E-03    0.42       3.7  T
   9   -186.4759230 -0.460075E-06  0.146E-03    0.42       6.5  T
  10   -186.4759231 -0.131991E-06  0.953E-04    0.42       9.9  T
     SCC iter.                  ...        0 min,  0.108 sec
     gradient                   ...        0 min,  0.018 sec
 * total energy  :  -183.7046195 Eh     change       -0.3006313E-02 Eh
   gradient norm :     0.0162277 Eh/α   predicted    -0.2693481E-02 ( -10.41%)
   displ. norm   :     0.7358316 α      lambda       -0.3113731E-02
   maximum displ.:     0.3701354 α      in ANC's #26, #17, #35, ...

........................................................................
.............................. CYCLE    9 ..............................
........................................................................
   1   -186.4826393 -0.186483E+03  0.316E-01    0.41       0.0  T
   2   -186.4823813  0.257938E-03  0.169E-01    0.42       1.0  T
   3   -186.4583959  0.239854E-01  0.350E-01    0.45       1.0  T
   4   -186.4821568 -0.237609E-01  0.633E-02    0.41       1.0  T
   5   -186.4827171 -0.560327E-03  0.301E-02    0.42       1.0  T
   6   -186.4827841 -0.669348E-04  0.165E-02    0.42       1.0  T
   7   -186.4828213 -0.372190E-04  0.688E-03    0.42       1.4  T
   8   -186.4828297 -0.841040E-05  0.216E-03    0.42       4.4  T
   9   -186.4828301 -0.348291E-06  0.105E-03    0.42       9.0  T
  10   -186.4828301 -0.592218E-07  0.537E-04    0.42      17.6  T
     SCC iter.                  ...        0 min,  0.109 sec
     gradient                   ...        0 min,  0.018 sec
 * total energy  :  -183.7072276 Eh     change       -0.2608072E-02 Eh
   gradient norm :     0.0144499 Eh/α   predicted    -0.2399833E-02 (  -7.98%)
   displ. norm   :     0.7420471 α      lambda       -0.2851984E-02
   maximum displ.:     0.3791789 α      in ANC's #26, #17, #28, ...

........................................................................
.............................. CYCLE   10 ..............................
........................................................................
   1   -186.4900956 -0.186490E+03  0.318E-01    0.41       0.0  T
   2   -186.4897046  0.390942E-03  0.170E-01    0.41       1.0  T
   3   -186.4603254  0.293792E-01  0.386E-01    0.45       1.0  T
   4   -186.4899423 -0.296169E-01  0.487E-02    0.41       1.0  T
   5   -186.4901420 -0.199654E-03  0.317E-02    0.41       1.0  T
   6   -186.4902399 -0.979073E-04  0.159E-02    0.41       1.0  T
   7   -186.4902642 -0.243223E-04  0.848E-03    0.41       1.1  T
   8   -186.4902775 -0.132344E-04  0.261E-03    0.41       3.6  T
   9   -186.4902779 -0.463449E-06  0.146E-03    0.41       6.5  T
  10   -186.4902781 -0.167825E-06  0.851E-04    0.41      11.1  T
     SCC iter.                  ...        0 min,  0.109 sec
     gradient                   ...        0 min,  0.018 sec
 * total energy  :  -183.7094891 Eh     change       -0.2261516E-02 Eh
   gradient norm :     0.0146550 Eh/α   predicted    -0.2211200E-02 (  -2.22%)
   displ. norm   :     0.7468703 α      lambda       -0.2421382E-02
   maximum displ.:     0.3957049 α      in ANC's #26, #10, #17, ...

........................................................................
.............................. CYCLE   11 ..............................
........................................................................
   1   -186.4848540 -0.186485E+03  0.312E-01    0.40       0.0  T
   2   -186.4848592 -0.527014E-05  0.162E-01    0.40       1.0  T
   3   -186.4778115  0.704776E-02  0.192E-01    0.41       1.0  T
   4   -186.4835680 -0.575649E-02  0.858E-02    0.40       1.0  T
   5   -186.4848934 -0.132540E-02  0.304E-02    0.40       1.0  T
   6   -186.4849701 -0.767481E-04  0.168E-02    0.40       1.0  T
   7   -186.4850156 -0.455264E-04  0.396E-03    0.40       2.4  T
   8   -186.4850178 -0.219196E-05  0.187E-03    0.40       5.1  T
   9   -186.4850181 -0.259389E-06  0.102E-03    0.40       9.3  T
     SCC iter.                  ...        0 min,  0.099 sec
     gradient                   ...        0 min,  0.018 sec
 * total energy  :  -183.7113520 Eh     change       -0.1862862E-02 Eh
   gradient norm :     0.0157114 Eh/α   predicted    -0.1886037E-02 (   1.24%)
   displ. norm   :     0.6761261 α      lambda       -0.2378342E-02
   maximum displ.:     0.3206297 α      in ANC's #26, #6, #28, ...

........................................................................
.............................. CYCLE   12 ..............................
........................................................................
   1   -186.4984550 -0.186498E+03  0.279E-01    0.40       0.0  T
   2   -186.4981834  0.271643E-03  0.148E-01    0.40       1.0  T
   3   -186.4749394  0.232440E-01  0.338E-01    0.43       1.0  T
   4   -186.4984249 -0.234855E-01  0.364E-02    0.40       1.0  T
   5   -186.4985079 -0.829712E-04  0.253E-02    0.40       1.0  T
   6   -186.4985575 -0.495795E-04  0.150E-02    0.40       1.0  T
   7   -186.4985774 -0.199683E-04  0.711E-03    0.40       1.3  T
   8   -186.4985856 -0.815292E-05  0.217E-03    0.40       4.4  T
   9   -186.4985862 -0.559147E-06  0.983E-04    0.40       9.6  T
  10   -186.4985862 -0.225654E-07  0.690E-04    0.40      13.7  T
     SCC iter.                  ...        0 min,  0.109 sec
     gradient                   ...        0 min,  0.018 sec
 * total energy  :  -183.7125525 Eh     change       -0.1200538E-02 Eh
   gradient norm :     0.0206386 Eh/α   predicted    -0.1732807E-02 (  44.34%)
   displ. norm   :     0.5984864 α      lambda       -0.2109814E-02
   maximum displ.:     0.2953744 α      in ANC's #26, #10, #34, ...

........................................................................
.............................. CYCLE   13 ..............................
........................................................................
   1   -186.4850610 -0.186485E+03  0.237E-01    0.38       0.0  T
   2   -186.4843598  0.701198E-03  0.136E-01    0.38       1.0  T
   3   -186.4498645  0.344953E-01  0.409E-01    0.43       1.0  T
   4   -186.4851229 -0.352584E-01  0.293E-02    0.38       1.0  T
   5   -186.4851306 -0.768859E-05  0.215E-02    0.38       1.0  T
   6   -186.4851491 -0.184872E-04  0.156E-02    0.38       1.0  T
   7   -186.4851716 -0.224738E-04  0.845E-03    0.38       1.1  T
   8   -186.4851847 -0.131171E-04  0.266E-03    0.38       3.6  T
   9   -186.4851856 -0.878807E-06  0.131E-03    0.38       7.2  T
  10   -186.4851857 -0.139833E-06  0.737E-04    0.38      12.8  T
     SCC iter.                  ...        0 min,  0.108 sec
     gradient                   ...        0 min,  0.018 sec
 * total energy  :  -183.7136701 Eh     change       -0.1117612E-02 Eh
   gradient norm :     0.0214049 Eh/α   predicted    -0.1432762E-02 (  28.20%)
   displ. norm   :     0.4199344 α      lambda       -0.1941596E-02
   maximum displ.:     0.1735650 α      in ANC's #26, #6, #10, ...

........................................................................
.............................. CYCLE   14 ..............................
........................................................................
   1   -186.4841459 -0.186484E+03  0.152E-01    0.37       0.0  T
   2   -186.4838438  0.302066E-03  0.886E-02    0.37       1.0  T
   3   -186.4655527  0.182911E-01  0.293E-01    0.39       1.0  T
   4   -186.4840810 -0.185283E-01  0.299E-02    0.37       1.0  T
   5   -186.4841474 -0.664567E-04  0.192E-02    0.37       1.0  T
   6   -186.4841924 -0.450118E-04  0.875E-03    0.37       1.1  T
   7   -186.4841992 -0.671053E-05  0.456E-03    0.37       2.1  T
   8   -186.4842022 -0.302168E-05  0.191E-03    0.37       5.0  T
   9   -186.4842026 -0.395614E-06  0.986E-04    0.37       9.6  T
     SCC iter.                  ...        0 min,  0.098 sec
     gradient                   ...        0 min,  0.018 sec
 * total energy  :  -183.7139439 Eh     change       -0.2738241E-03 Eh
   gradient norm :     0.0223510 Eh/α   predicted    -0.1141991E-02 ( 317.05%)
   displ. norm   :     0.2897341 α      lambda       -0.1583628E-02
   maximum displ.:     0.1044946 α      in ANC's #26, #6, #10, ...

........................................................................
.............................. CYCLE   15 ..............................
........................................................................
   1   -186.4902823 -0.186490E+03  0.105E-01    0.37       0.0  T
   2   -186.4899266  0.355666E-03  0.677E-02    0.37       1.0  T
   3   -186.4792957  0.106310E-01  0.227E-01    0.39       1.0  T
   4   -186.4902573 -0.109617E-01  0.197E-02    0.37       1.0  T
   5   -186.4902960 -0.386644E-04  0.116E-02    0.37       1.0  T
   6   -186.4903103 -0.142889E-04  0.577E-03    0.37       1.6  T
   7   -186.4903112 -0.887886E-06  0.387E-03    0.37       2.4  T
   8   -186.4903141 -0.289217E-05  0.130E-03    0.37       7.3  T
     SCC iter.                  ...        0 min,  0.087 sec
     gradient                   ...        0 min,  0.018 sec
 * total energy  :  -183.7149969 Eh     change       -0.1053004E-02 Eh
   gradient norm :     0.0104620 Eh/α   predicted    -0.8582834E-03 ( -18.49%)
   displ. norm   :     0.4519311 α      lambda       -0.8999375E-03
   maximum displ.:     0.1630423 α      in ANC's #6, #10, #26, ...

........................................................................
.............................. CYCLE   16 ..............................
........................................................................
   1   -186.4885931 -0.186489E+03  0.153E-01    0.36       0.0  T
   2   -186.4876640  0.929060E-03  0.104E-01    0.36       1.0  T
   3   -186.4641395  0.235246E-01  0.337E-01    0.40       1.0  T
   4   -186.4885983 -0.244589E-01  0.254E-02    0.36       1.0  T
   5   -186.4886334 -0.350632E-04  0.173E-02    0.36       1.0  T
   6   -186.4886524 -0.190019E-04  0.103E-02    0.36       1.0  T
   7   -186.4886570 -0.462943E-05  0.638E-03    0.36       1.5  T
   8   -186.4886643 -0.730123E-05  0.169E-03    0.36       5.6  T
   9   -186.4886645 -0.220812E-06  0.996E-04    0.36       9.5  T
  10   -186.4886646 -0.615744E-07  0.627E-04    0.36      15.1  T
     SCC iter.                  ...        0 min,  0.111 sec
     gradient                   ...        0 min,  0.018 sec
 * total energy  :  -183.7154036 Eh     change       -0.4066187E-03 Eh
   gradient norm :     0.0151284 Eh/α   predicted    -0.5418726E-03 (  33.26%)
   displ. norm   :     0.4678931 α      lambda       -0.1142859E-02
   maximum displ.:     0.1965593 α      in ANC's #6, #10, #2, ...

........................................................................
.............................. CYCLE   17 ..............................
........................................................................
   1   -186.5016649 -0.186502E+03  0.140E-01    0.36       0.0  T
   2   -186.5016740 -0.905688E-05  0.756E-02    0.36       1.0  T
   3   -186.5013080  0.366028E-03  0.471E-02    0.36       1.0  T
   4   -186.5014890 -0.181057E-03  0.319E-02    0.36       1.0  T
   5   -186.5014497  0.392700E-04  0.344E-02    0.36       1.0  T
   6   -186.5016879 -0.238131E-03  0.745E-03    0.36       1.3  T
   7   -186.5016955 -0.763798E-05  0.273E-03    0.36       3.5  T
   8   -186.5016964 -0.865271E-06  0.139E-03    0.36       6.8  T
   9   -186.5016966 -0.219695E-06  0.688E-04    0.36      13.7  T
     SCC iter.                  ...        0 min,  0.100 sec
     gradient                   ...        0 min,  0.018 sec
 * total energy  :  -183.7159769 Eh     change       -0.5733423E-03 Eh
   gradient norm :     0.0148198 Eh/α   predicted    -0.6965339E-03 (  21.49%)
   displ. norm   :     0.4099168 α      lambda       -0.6290375E-03
   maximum displ.:     0.1622259 α      in ANC's #6, #26, #10, ...

........................................................................
.............................. CYCLE   18 ..............................
........................................................................
   1   -186.4927672 -0.186493E+03  0.143E-01    0.35       0.0  T
   2   -186.4927496  0.176619E-04  0.757E-02    0.35       1.0  T
   3   -186.4885506  0.419899E-02  0.140E-01    0.36       1.0  T
   4   -186.4925955 -0.404491E-02  0.318E-02    0.35       1.0  T
   5   -186.4927626 -0.167123E-03  0.154E-02    0.35       1.0  T
   6   -186.4927873 -0.247131E-04  0.751E-03    0.35       1.3  T
   7   -186.4927945 -0.713528E-05  0.244E-03    0.35       3.9  T
   8   -186.4927952 -0.718947E-06  0.113E-03    0.35       8.4  T
   9   -186.4927953 -0.918490E-07  0.651E-04    0.35      14.5  T
     SCC iter.                  ...        0 min,  0.100 sec
     gradient                   ...        0 min,  0.018 sec
 * total energy  :  -183.7163179 Eh     change       -0.3410456E-03 Eh
   gradient norm :     0.0132487 Eh/α   predicted    -0.3673706E-03 (   7.72%)
   displ. norm   :     0.3644227 α      lambda       -0.7724447E-03
   maximum displ.:     0.1695134 α      in ANC's #6, #10, #2, ...

........................................................................
.............................. CYCLE   19 ..............................
........................................................................
   1   -186.4919522 -0.186492E+03  0.945E-02    0.35       0.0  T
   2   -186.4915794  0.372811E-03  0.666E-02    0.35       1.0  T
   3   -186.4803885  0.111909E-01  0.228E-01    0.36       1.0  T
   4   -186.4919694 -0.115809E-01  0.121E-02    0.35       1.0  T
   5   -186.4919680  0.138193E-05  0.926E-03    0.35       1.0  T
   6   -186.4919763 -0.830580E-05  0.534E-03    0.35       1.8  T
   7   -186.4919792 -0.286245E-05  0.276E-03    0.35       3.4  T
   8   -186.4919798 -0.645109E-06  0.126E-03    0.35       7.5  T
     SCC iter.                  ...        0 min,  0.093 sec
     gradient                   ...        0 min,  0.020 sec
 * total energy  :  -183.7167523 Eh     change       -0.4343953E-03 Eh
   gradient norm :     0.0110968 Eh/α   predicted    -0.4375156E-03 (   0.72%)
   displ. norm   :     0.4179021 α      lambda       -0.6014789E-03
   maximum displ.:     0.1937112 α      in ANC's #6, #2, #10, ...

........................................................................
.............................. CYCLE   20 ..............................
........................................................................
   1   -186.4962521 -0.186496E+03  0.116E-01    0.35       0.0  T
   2   -186.4961784  0.736774E-04  0.668E-02    0.35       1.0  T
   3   -186.4870230  0.915539E-02  0.204E-01    0.36       1.0  T
   4   -186.4962143 -0.919135E-02  0.198E-02    0.35       1.0  T
   5   -186.4962522 -0.378232E-04  0.126E-02    0.35       1.0  T
   6   -186.4962714 -0.191889E-04  0.603E-03    0.35       1.6  T
   7   -186.4962745 -0.318138E-05  0.286E-03    0.35       3.3  T
   8   -186.4962753 -0.804333E-06  0.119E-03    0.35       7.9  T
   9   -186.4962755 -0.190429E-06  0.481E-04    0.35      19.6  T
     SCC iter.                  ...        0 min,  0.100 sec
     gradient                   ...        0 min,  0.018 sec
 * total energy  :  -183.7170739 Eh     change       -0.3215614E-03 Eh
   gradient norm :     0.0145138 Eh/α   predicted    -0.3532654E-03 (   9.86%)
   displ. norm   :     0.4711533 α      lambda       -0.6921032E-03
   maximum displ.:     0.2276721 α      in ANC's #6, #2, #10, ...
 * RMSD in coord.:     0.8274357 α      energy gain  -0.7752295E-01 Eh

generating ANC from model Hessian ...
Using Lindh-Hessian (1995)
 Shifting diagonal of input Hessian by   4.986342988415036E-003
 Lowest  eigenvalues of input Hessian
   -0.000000   -0.000000   -0.000000   -0.000000   -0.000000    0.000000
    0.005000    0.005008    0.005012    0.005024    0.005063    0.005090
    0.005130    0.005223    0.005278    0.005361    0.005430    0.005572
 Highest eigenvalues
    2.069434    2.087118    2.089936    2.145261    2.176123    2.184776
 

........................................................................
.............................. CYCLE   21 ..............................
........................................................................
   1   -186.4998343 -0.186500E+03  0.130E-01    0.35       0.0  T
   2   -186.4998259  0.835141E-05  0.692E-02    0.35       1.0  T
   3   -186.4966084  0.321756E-02  0.121E-01    0.35       1.0  T
   4   -186.4996990 -0.309060E-02  0.292E-02    0.35       1.0  T
   5   -186.4998515 -0.152504E-03  0.992E-03    0.35       1.0  T
   6   -186.4998520 -0.485135E-06  0.722E-03    0.35       1.3  T
   7   -186.4998590 -0.707840E-05  0.196E-03    0.35       4.8  T
   8   -186.4998594 -0.393668E-06  0.121E-03    0.35       7.8  T
   9   -186.4998596 -0.183858E-06  0.487E-04    0.35      19.4  T
  10   -186.4998596 -0.118476E-07  0.345E-04    0.35      27.4  T
     SCC iter.                  ...        0 min,  0.110 sec
     gradient                   ...        0 min,  0.019 sec
 * total energy  :  -183.7175521 Eh     change       -0.4781493E-03 Eh
   gradient norm :     0.0127447 Eh/α   predicted     0.0000000E+00 (-100.00%)
   displ. norm   :     0.2216471 α      lambda       -0.6209072E-03
   maximum displ.:     0.0941274 α      in ANC's #5, #22, #7, ...

........................................................................
.............................. CYCLE   22 ..............................
........................................................................
   1   -186.4977449 -0.186498E+03  0.812E-02    0.35       0.0  T
   2   -186.4977512 -0.621949E-05  0.414E-02    0.35       1.0  T
   3   -186.4976208  0.130392E-03  0.256E-02    0.35       1.0  T
   4   -186.4975676  0.531638E-04  0.295E-02    0.35       1.0  T
   5   -186.4977474 -0.179835E-03  0.868E-03    0.35       1.1  T
   6   -186.4977545 -0.707969E-05  0.443E-03    0.35       2.1  T
   7   -186.4977565 -0.195361E-05  0.177E-03    0.35       5.3  T
   8   -186.4977569 -0.404772E-06  0.526E-04    0.35      18.0  T
     SCC iter.                  ...        0 min,  0.089 sec
     gradient                   ...        0 min,  0.018 sec
 * total energy  :  -183.7180385 Eh     change       -0.4864034E-03 Eh
   gradient norm :     0.0051790 Eh/α   predicted    -0.3259214E-03 ( -32.99%)
   displ. norm   :     0.2288138 α      lambda       -0.3851081E-03
   maximum displ.:     0.0912822 α      in ANC's #22, #5, #7, ...

........................................................................
.............................. CYCLE   23 ..............................
........................................................................
   1   -186.4962388 -0.186496E+03  0.790E-02    0.35       0.0  T
   2   -186.4962397 -0.883598E-06  0.411E-02    0.35       1.0  T
   3   -186.4954967  0.742928E-03  0.571E-02    0.35       1.0  T
   4   -186.4962098 -0.713021E-03  0.154E-02    0.35       1.0  T
   5   -186.4962424 -0.326246E-04  0.729E-03    0.35       1.3  T
   6   -186.4962465 -0.415880E-05  0.410E-03    0.35       2.3  T
   7   -186.4962486 -0.204192E-05  0.141E-03    0.35       6.7  T
   8   -186.4962488 -0.213009E-06  0.518E-04    0.35      18.2  T
     SCC iter.                  ...        0 min,  0.089 sec
     gradient                   ...        0 min,  0.018 sec
 * total energy  :  -183.7183445 Eh     change       -0.3060333E-03 Eh
   gradient norm :     0.0035533 Eh/α   predicted    -0.2026364E-03 ( -33.79%)
   displ. norm   :     0.4320751 α      lambda       -0.5142762E-03
   maximum displ.:     0.1769130 α      in ANC's #5, #22, #7, ...

........................................................................
.............................. CYCLE   24 ..............................
........................................................................
   1   -186.4940176 -0.186494E+03  0.145E-01    0.35       0.0  T
   2   -186.4939711  0.465755E-04  0.766E-02    0.35       1.0  T
   3   -186.4862979  0.767315E-02  0.185E-01    0.36       1.0  T
   4   -186.4940361 -0.773821E-02  0.143E-02    0.35       1.0  T
   5   -186.4940281  0.804406E-05  0.119E-02    0.35       1.0  T
   6   -186.4940434 -0.153461E-04  0.569E-03    0.35       1.7  T
   7   -186.4940481 -0.466527E-05  0.175E-03    0.35       5.4  T
   8   -186.4940484 -0.355230E-06  0.851E-04    0.35      11.1  T
   9   -186.4940485 -0.738953E-07  0.444E-04    0.35      21.3  T
     SCC iter.                  ...        0 min,  0.100 sec
     gradient                   ...        0 min,  0.019 sec
 * total energy  :  -183.7187203 Eh     change       -0.3757968E-03 Eh
   gradient norm :     0.0084923 Eh/α   predicted    -0.3052022E-03 ( -18.79%)
   displ. norm   :     0.4553257 α      lambda       -0.4410525E-03
   maximum displ.:     0.1994836 α      in ANC's #5, #22, #2, ...

........................................................................
.............................. CYCLE   25 ..............................
........................................................................
   1   -186.4930874 -0.186493E+03  0.144E-01    0.36       0.0  T
   2   -186.4930276  0.597537E-04  0.765E-02    0.35       1.0  T
   3   -186.4843725  0.865519E-02  0.197E-01    0.36       1.0  T
   4   -186.4931100 -0.873750E-02  0.131E-02    0.36       1.0  T
   5   -186.4930943  0.156593E-04  0.138E-02    0.35       1.0  T
   6   -186.4931120 -0.177293E-04  0.561E-03    0.35       1.7  T
   7   -186.4931159 -0.388917E-05  0.139E-03    0.35       6.8  T
   8   -186.4931162 -0.241757E-06  0.539E-04    0.35      17.5  T
   9   -186.4931162 -0.155130E-07  0.318E-04    0.35      29.7  T
     SCC iter.                  ...        0 min,  0.100 sec
     gradient                   ...        0 min,  0.018 sec
 * total energy  :  -183.7190775 Eh     change       -0.3572395E-03 Eh
   gradient norm :     0.0100061 Eh/α   predicted    -0.2662470E-03 ( -25.47%)
   displ. norm   :     0.5252882 α      lambda       -0.5451482E-03
   maximum displ.:     0.2450748 α      in ANC's #5, #2, #7, ...

........................................................................
.............................. CYCLE   26 ..............................
........................................................................
   1   -186.4950364 -0.186495E+03  0.147E-01    0.36       0.0  T
   2   -186.4949071  0.129305E-03  0.807E-02    0.36       1.0  T
   3   -186.4811210  0.137861E-01  0.249E-01    0.37       1.0  T
   4   -186.4950615 -0.139405E-01  0.133E-02    0.36       1.0  T
   5   -186.4950473  0.141987E-04  0.125E-02    0.36       1.0  T
   6   -186.4950619 -0.145870E-04  0.618E-03    0.36       1.5  T
   7   -186.4950662 -0.425830E-05  0.229E-03    0.36       4.1  T
   8   -186.4950669 -0.777221E-06  0.839E-04    0.36      11.3  T
   9   -186.4950670 -0.920715E-07  0.404E-04    0.36      23.4  T
     SCC iter.                  ...        0 min,  0.100 sec
     gradient                   ...        0 min,  0.018 sec
 * total energy  :  -183.7195555 Eh     change       -0.4779559E-03 Eh
   gradient norm :     0.0080427 Eh/α   predicted    -0.3477850E-03 ( -27.23%)
   displ. norm   :     0.6338104 α      lambda       -0.6918550E-03
   maximum displ.:     0.3111084 α      in ANC's #5, #2, #7, ...

........................................................................
.............................. CYCLE   27 ..............................
........................................................................
   1   -186.4988629 -0.186499E+03  0.154E-01    0.35       0.0  T
   2   -186.4987227  0.140151E-03  0.862E-02    0.36       1.0  T
   3   -186.4833413  0.153814E-01  0.263E-01    0.37       1.0  T
   4   -186.4988812 -0.155399E-01  0.153E-02    0.35       1.0  T
   5   -186.4988685  0.127871E-04  0.142E-02    0.35       1.0  T
   6   -186.4988885 -0.200909E-04  0.742E-03    0.35       1.3  T
   7   -186.4988942 -0.567991E-05  0.237E-03    0.35       4.0  T
   8   -186.4988949 -0.727351E-06  0.113E-03    0.35       8.4  T
   9   -186.4988951 -0.198181E-06  0.497E-04    0.35      19.0  T
     SCC iter.                  ...        0 min,  0.099 sec
     gradient                   ...        0 min,  0.018 sec
 * total energy  :  -183.7201585 Eh     change       -0.6030670E-03 Eh
   gradient norm :     0.0054648 Eh/α   predicted    -0.4848966E-03 ( -19.59%)
   displ. norm   :     0.7277593 α      lambda       -0.6917044E-03
   maximum displ.:     0.3656902 α      in ANC's #5, #2, #7, ...

........................................................................
.............................. CYCLE   28 ..............................
........................................................................
   1   -186.4998523 -0.186500E+03  0.166E-01    0.35       0.0  T
   2   -186.4997641  0.882326E-04  0.922E-02    0.35       1.0  T
   3   -186.4867977  0.129665E-01  0.241E-01    0.37       1.0  T
   4   -186.4998636 -0.130659E-01  0.167E-02    0.35       1.0  T
   5   -186.4998553  0.830752E-05  0.139E-02    0.35       1.0  T
   6   -186.4998783 -0.229623E-04  0.608E-03    0.35       1.6  T
   7   -186.4998850 -0.674112E-05  0.178E-03    0.35       5.3  T
   8   -186.4998853 -0.266015E-06  0.109E-03    0.35       8.7  T
   9   -186.4998854 -0.114740E-06  0.631E-04    0.35      15.0  T
     SCC iter.                  ...        0 min,  0.099 sec
     gradient                   ...        0 min,  0.018 sec
 * total energy  :  -183.7207805 Eh     change       -0.6219991E-03 Eh
   gradient norm :     0.0062447 Eh/α   predicted    -0.5290636E-03 ( -14.94%)
   displ. norm   :     0.7511751 α      lambda       -0.6898399E-03
   maximum displ.:     0.3866511 α      in ANC's #5, #2, #7, ...

........................................................................
.............................. CYCLE   29 ..............................
........................................................................
   1   -186.5011253 -0.186501E+03  0.160E-01    0.35       0.0  T
   2   -186.5011376 -0.122924E-04  0.873E-02    0.35       1.0  T
   3   -186.5000214  0.111616E-02  0.717E-02    0.35       1.0  T
   4   -186.5009189 -0.897522E-03  0.340E-02    0.35       1.0  T
   5   -186.5011213 -0.202390E-03  0.141E-02    0.35       1.0  T
   6   -186.5011435 -0.222097E-04  0.622E-03    0.35       1.5  T
   7   -186.5011512 -0.765320E-05  0.180E-03    0.35       5.3  T
   8   -186.5011515 -0.337834E-06  0.953E-04    0.35       9.9  T
   9   -186.5011516 -0.411464E-07  0.567E-04    0.35      16.7  T
     SCC iter.                  ...        0 min,  0.100 sec
     gradient                   ...        0 min,  0.018 sec
 * total energy  :  -183.7214109 Eh     change       -0.6303098E-03 Eh
   gradient norm :     0.0078230 Eh/α   predicted    -0.5395462E-03 ( -14.40%)
   displ. norm   :     0.7847982 α      lambda       -0.7124861E-03
   maximum displ.:     0.4092741 α      in ANC's #5, #2, #7, ...

........................................................................
.............................. CYCLE   30 ..............................
........................................................................
   1   -186.5001205 -0.186500E+03  0.162E-01    0.34       0.0  T
   2   -186.5001298 -0.935449E-05  0.889E-02    0.34       1.0  T
   3   -186.4986707  0.145915E-02  0.823E-02    0.35       1.0  T
   4   -186.4998519 -0.118126E-02  0.373E-02    0.34       1.0  T
   5   -186.5001019 -0.250028E-03  0.152E-02    0.34       1.0  T
   6   -186.5001405 -0.385407E-04  0.524E-03    0.34       1.8  T
   7   -186.5001452 -0.467423E-05  0.204E-03    0.34       4.6  T
   8   -186.5001458 -0.608447E-06  0.896E-04    0.34      10.5  T
   9   -186.5001458 -0.294736E-07  0.531E-04    0.34      17.8  T
     SCC iter.                  ...        0 min,  0.101 sec
     gradient                   ...        0 min,  0.018 sec
 * total energy  :  -183.7220728 Eh     change       -0.6619883E-03 Eh
   gradient norm :     0.0077903 Eh/α   predicted    -0.5756578E-03 ( -13.04%)
   displ. norm   :     0.7933740 α      lambda       -0.7834236E-03
   maximum displ.:     0.4223906 α      in ANC's #5, #2, #7, ...

........................................................................
.............................. CYCLE   31 ..............................
........................................................................
   1   -186.5032261 -0.186503E+03  0.155E-01    0.34       0.0  T
   2   -186.5030727  0.153314E-03  0.893E-02    0.34       1.0  T
   3   -186.4853421  0.177306E-01  0.280E-01    0.36       1.0  T
   4   -186.5031781 -0.178360E-01  0.214E-02    0.34       1.0  T
   5   -186.5032173 -0.392233E-04  0.158E-02    0.34       1.0  T
   6   -186.5032492 -0.318219E-04  0.678E-03    0.34       1.4  T
   7   -186.5032512 -0.203266E-05  0.400E-03    0.34       2.4  T
   8   -186.5032543 -0.315149E-05  0.129E-03    0.34       7.3  T
   9   -186.5032545 -0.155760E-06  0.606E-04    0.34      15.6  T
  10   -186.5032545 -0.356758E-08  0.441E-04    0.34      21.4  T
     SCC iter.                  ...        0 min,  0.110 sec
     gradient                   ...        0 min,  0.018 sec
 * total energy  :  -183.7227730 Eh     change       -0.7001623E-03 Eh
   gradient norm :     0.0074730 Eh/α   predicted    -0.6382735E-03 (  -8.84%)
   displ. norm   :     0.8428770 α      lambda       -0.8103066E-03
   maximum displ.:     0.4529544 α      in ANC's #5, #2, #7, ...

........................................................................
.............................. CYCLE   32 ..............................
........................................................................
   1   -186.4997701 -0.186500E+03  0.170E-01    0.33       0.0  T
   2   -186.4997347  0.354215E-04  0.938E-02    0.33       1.0  T
   3   -186.4915232  0.821146E-02  0.191E-01    0.35       1.0  T
   4   -186.4996431 -0.811986E-02  0.280E-02    0.33       1.0  T
   5   -186.4997512 -0.108135E-03  0.163E-02    0.33       1.0  T
   6   -186.4997941 -0.428788E-04  0.625E-03    0.33       1.5  T
   7   -186.4997976 -0.352791E-05  0.245E-03    0.33       3.9  T
   8   -186.4997984 -0.771840E-06  0.110E-03    0.33       8.6  T
   9   -186.4997985 -0.834429E-07  0.542E-04    0.33      17.4  T
     SCC iter.                  ...        0 min,  0.099 sec
     gradient                   ...        0 min,  0.018 sec
 * total energy  :  -183.7235011 Eh     change       -0.7281289E-03 Eh
   gradient norm :     0.0066008 Eh/α   predicted    -0.6929954E-03 (  -4.83%)
   displ. norm   :     0.8175017 α      lambda       -0.7737917E-03
   maximum displ.:     0.4474767 α      in ANC's #5, #2, #7, ...

........................................................................
.............................. CYCLE   33 ..............................
........................................................................
   1   -186.5009809 -0.186501E+03  0.166E-01    0.33       0.0  T
   2   -186.5009495  0.313896E-04  0.902E-02    0.33       1.0  T
   3   -186.4934998  0.744976E-02  0.181E-01    0.34       1.0  T
   4   -186.5008310 -0.733124E-02  0.296E-02    0.33       1.0  T
   5   -186.5009581 -0.127126E-03  0.169E-02    0.33       1.0  T
   6   -186.5010025 -0.443422E-04  0.612E-03    0.33       1.5  T
   7   -186.5010081 -0.567332E-05  0.188E-03    0.33       5.0  T
   8   -186.5010087 -0.572721E-06  0.984E-04    0.33       9.6  T
   9   -186.5010088 -0.961366E-07  0.520E-04    0.33      18.2  T
     SCC iter.                  ...        0 min,  0.098 sec
     gradient                   ...        0 min,  0.018 sec
 * total energy  :  -183.7242062 Eh     change       -0.7050752E-03 Eh
   gradient norm :     0.0063291 Eh/α   predicted    -0.6454623E-03 (  -8.45%)
   displ. norm   :     0.8558352 α      lambda       -0.7416700E-03
   maximum displ.:     0.4718796 α      in ANC's #5, #2, #7, ...

........................................................................
.............................. CYCLE   34 ..............................
........................................................................
   1   -186.4999651 -0.186500E+03  0.170E-01    0.33       0.0  T
   2   -186.4999794 -0.143020E-04  0.917E-02    0.33       1.0  T
   3   -186.4994878  0.491582E-03  0.480E-02    0.33       1.0  T
   4   -186.4993228  0.165017E-03  0.546E-02    0.33       1.0  T
   5   -186.4999268 -0.604041E-03  0.207E-02    0.33       1.0  T
   6   -186.4999867 -0.598587E-04  0.550E-03    0.33       1.7  T
   7   -186.4999920 -0.527059E-05  0.164E-03    0.33       5.8  T
   8   -186.4999923 -0.341343E-06  0.853E-04    0.33      11.1  T
   9   -186.4999923 -0.520529E-08  0.672E-04    0.33      14.1  T
     SCC iter.                  ...        0 min,  0.098 sec
     gradient                   ...        0 min,  0.018 sec
 * total energy  :  -183.7248882 Eh     change       -0.6820262E-03 Eh
   gradient norm :     0.0062804 Eh/α   predicted    -0.6424576E-03 (  -5.80%)
   displ. norm   :     0.8306180 α      lambda       -0.7497676E-03
   maximum displ.:     0.4688995 α      in ANC's #5, #2, #7, ...

........................................................................
.............................. CYCLE   35 ..............................
........................................................................
   1   -186.5050347 -0.186505E+03  0.169E-01    0.33       0.0  T
   2   -186.5050193  0.154780E-04  0.903E-02    0.33       1.0  T
   3   -186.4999419  0.507740E-02  0.147E-01    0.33       1.0  T
   4   -186.5048506 -0.490872E-02  0.344E-02    0.33       1.0  T
   5   -186.5050237 -0.173092E-03  0.176E-02    0.33       1.0  T
   6   -186.5050606 -0.369144E-04  0.591E-03    0.33       1.6  T
   7   -186.5050657 -0.507701E-05  0.193E-03    0.33       4.9  T
   8   -186.5050660 -0.336791E-06  0.112E-03    0.33       8.4  T
   9   -186.5050661 -0.105119E-06  0.596E-04    0.33      15.8  T
     SCC iter.                  ...        0 min,  0.097 sec
     gradient                   ...        0 min,  0.018 sec
 * total energy  :  -183.7255138 Eh     change       -0.6255175E-03 Eh
   gradient norm :     0.0067134 Eh/α   predicted    -0.6335287E-03 (   1.28%)
   displ. norm   :     0.8668136 α      lambda       -0.7107733E-03
   maximum displ.:     0.4833939 α      in ANC's #5, #2, #7, ...

........................................................................
.............................. CYCLE   36 ..............................
........................................................................
   1   -186.5002904 -0.186500E+03  0.166E-01    0.32       0.0  T
   2   -186.5002559  0.345549E-04  0.909E-02    0.33       1.0  T
   3   -186.4918068  0.844906E-02  0.189E-01    0.33       1.0  T
   4   -186.5002547 -0.844787E-02  0.221E-02    0.32       1.0  T
   5   -186.5002842 -0.295013E-04  0.166E-02    0.33       1.0  T
   6   -186.5003116 -0.273898E-04  0.620E-03    0.32       1.5  T
   7   -186.5003175 -0.591864E-05  0.196E-03    0.32       4.8  T
   8   -186.5003178 -0.329723E-06  0.112E-03    0.32       8.5  T
   9   -186.5003180 -0.124190E-06  0.646E-04    0.32      14.6  T
     SCC iter.                  ...        0 min,  0.098 sec
     gradient                   ...        0 min,  0.018 sec
 * total energy  :  -183.7261360 Eh     change       -0.6222195E-03 Eh
   gradient norm :     0.0062086 Eh/α   predicted    -0.6224154E-03 (   0.03%)
   displ. norm   :     0.8263381 α      lambda       -0.6320102E-03
   maximum displ.:     0.4717460 α      in ANC's #5, #2, #7, ...

........................................................................
.............................. CYCLE   37 ..............................
........................................................................
   1   -186.5008866 -0.186501E+03  0.148E-01    0.32       0.0  T
   2   -186.5008630  0.235918E-04  0.814E-02    0.32       1.0  T
   3   -186.4945714  0.629159E-02  0.163E-01    0.33       1.0  T
   4   -186.5008308 -0.625938E-02  0.222E-02    0.32       1.0  T
   5   -186.5008812 -0.504187E-04  0.146E-02    0.32       1.0  T
   6   -186.5008992 -0.179883E-04  0.676E-03    0.32       1.4  T
   7   -186.5009077 -0.856239E-05  0.166E-03    0.32       5.7  T
   8   -186.5009080 -0.244846E-06  0.106E-03    0.32       8.9  T
   9   -186.5009081 -0.109993E-06  0.600E-04    0.32      15.7  T
     SCC iter.                  ...        0 min,  0.099 sec
     gradient                   ...        0 min,  0.018 sec
 * total energy  :  -183.7267189 Eh     change       -0.5829084E-03 Eh
   gradient norm :     0.0064666 Eh/α   predicted    -0.5317861E-03 (  -8.77%)
   displ. norm   :     0.8116251 α      lambda       -0.6906824E-03
   maximum displ.:     0.4715558 α      in ANC's #5, #2, #7, ...

........................................................................
.............................. CYCLE   38 ..............................
........................................................................
   1   -186.5041201 -0.186504E+03  0.151E-01    0.32       0.0  T
   2   -186.5041366 -0.165635E-04  0.810E-02    0.32       1.0  T
   3   -186.5037951  0.341517E-03  0.416E-02    0.32       1.0  T
   4   -186.5034242  0.370907E-03  0.554E-02    0.32       1.0  T
   5   -186.5041076 -0.683391E-03  0.154E-02    0.32       1.0  T
   6   -186.5041380 -0.304257E-04  0.754E-03    0.32       1.3  T
   7   -186.5041443 -0.625901E-05  0.198E-03    0.32       4.8  T
   8   -186.5041448 -0.486574E-06  0.818E-04    0.32      11.5  T
   9   -186.5041448 -0.334441E-07  0.462E-04    0.32      20.4  T
     SCC iter.                  ...        0 min,  0.100 sec
     gradient                   ...        0 min,  0.018 sec
 * total energy  :  -183.7273339 Eh     change       -0.6150077E-03 Eh
   gradient norm :     0.0055499 Eh/α   predicted    -0.5728367E-03 (  -6.86%)
   displ. norm   :     0.8469382 α      lambda       -0.6663373E-03
   maximum displ.:     0.4947307 α      in ANC's #5, #2, #7, ...

........................................................................
.............................. CYCLE   39 ..............................
........................................................................
   1   -186.5055177 -0.186506E+03  0.150E-01    0.31       0.0  T
   2   -186.5055107  0.707002E-05  0.826E-02    0.31       1.0  T
   3   -186.5010303  0.448039E-02  0.138E-01    0.32       1.0  T
   4   -186.5053532 -0.432296E-02  0.303E-02    0.31       1.0  T
   5   -186.5055157 -0.162410E-03  0.142E-02    0.31       1.0  T
   6   -186.5055291 -0.133994E-04  0.101E-02    0.31       1.0  T
   7   -186.5055424 -0.133901E-04  0.152E-03    0.31       6.2  T
   8   -186.5055425 -0.942466E-07  0.103E-03    0.31       9.1  T
   9   -186.5055426 -0.487218E-07  0.729E-04    0.31      13.0  T
     SCC iter.                  ...        0 min,  0.100 sec
     gradient                   ...        0 min,  0.018 sec
 * total energy  :  -183.7279217 Eh     change       -0.5878556E-03 Eh
   gradient norm :     0.0067162 Eh/α   predicted    -0.5721534E-03 (  -2.67%)
   displ. norm   :     0.8567490 α      lambda       -0.6513185E-03
   maximum displ.:     0.5071940 α      in ANC's #5, #2, #3, ...

........................................................................
.............................. CYCLE   40 ..............................
........................................................................
   1   -186.5049174 -0.186505E+03  0.163E-01    0.31       0.0  T
   2   -186.5049353 -0.179767E-04  0.874E-02    0.31       1.0  T
   3   -186.5043137  0.621687E-03  0.535E-02    0.31       1.0  T
   4   -186.5042063  0.107326E-03  0.562E-02    0.31       1.0  T
   5   -186.5048929 -0.686605E-03  0.191E-02    0.31       1.0  T
   6   -186.5049398 -0.469005E-04  0.704E-03    0.31       1.3  T
   7   -186.5049452 -0.532527E-05  0.180E-03    0.31       5.2  T
   8   -186.5049456 -0.403655E-06  0.101E-03    0.31       9.3  T
   9   -186.5049457 -0.930511E-07  0.615E-04    0.31      15.4  T
     SCC iter.                  ...        0 min,  0.099 sec
     gradient                   ...        0 min,  0.020 sec
 * total energy  :  -183.7285176 Eh     change       -0.5958098E-03 Eh
   gradient norm :     0.0062317 Eh/α   predicted    -0.5647006E-03 (  -5.22%)
   displ. norm   :     0.8497315 α      lambda       -0.6512826E-03
   maximum displ.:     0.5103745 α      in ANC's #5, #2, #3, ...

........................................................................
.............................. CYCLE   41 ..............................
........................................................................
   1   -186.5067746 -0.186507E+03  0.161E-01    0.30       0.0  T
   2   -186.5067835 -0.883557E-05  0.868E-02    0.30       1.0  T
   3   -186.5046410  0.214249E-02  0.958E-02    0.31       1.0  T
   4   -186.5064941 -0.185313E-02  0.371E-02    0.30       1.0  T
   5   -186.5067438 -0.249724E-03  0.193E-02    0.30       1.0  T
   6   -186.5067957 -0.518937E-04  0.632E-03    0.30       1.5  T
   7   -186.5068002 -0.452087E-05  0.178E-03    0.30       5.3  T
   8   -186.5068006 -0.331424E-06  0.907E-04    0.30      10.4  T
   9   -186.5068006 -0.111093E-07  0.596E-04    0.30      15.8  T
     SCC iter.                  ...        0 min,  0.101 sec
     gradient                   ...        0 min,  0.018 sec
 * total energy  :  -183.7291119 Eh     change       -0.5943112E-03 Eh
   gradient norm :     0.0059182 Eh/α   predicted    -0.5607707E-03 (  -5.64%)
   displ. norm   :     0.8675105 α      lambda       -0.6646846E-03
   maximum displ.:     0.5272331 α      in ANC's #5, #2, #3, ...

........................................................................
.............................. CYCLE   42 ..............................
........................................................................
   1   -186.5078931 -0.186508E+03  0.166E-01    0.30       0.0  T
   2   -186.5079078 -0.146533E-04  0.892E-02    0.30       1.0  T
   3   -186.5067213  0.118642E-02  0.722E-02    0.30       1.0  T
   4   -186.5074697 -0.748383E-03  0.441E-02    0.30       1.0  T
   5   -186.5078541 -0.384382E-03  0.179E-02    0.30       1.0  T
   6   -186.5079152 -0.611324E-04  0.556E-03    0.30       1.7  T
   7   -186.5079201 -0.489169E-05  0.144E-03    0.30       6.6  T
   8   -186.5079203 -0.144695E-06  0.967E-04    0.30       9.8  T
   9   -186.5079203 -0.451119E-07  0.664E-04    0.30      14.2  T
     SCC iter.                  ...        0 min,  0.099 sec
     gradient                   ...        0 min,  0.018 sec
 * total energy  :  -183.7296907 Eh     change       -0.5788360E-03 Eh
   gradient norm :     0.0071395 Eh/α   predicted    -0.5824597E-03 (   0.63%)
   displ. norm   :     0.8558473 α      lambda       -0.6319350E-03
   maximum displ.:     0.5251242 α      in ANC's #5, #2, #3, ...
 * RMSD in coord.:     1.4147689 α      energy gain  -0.1261680E-01 Eh

generating ANC from model Hessian ...
Using Lindh-Hessian (1995)
 Shifting diagonal of input Hessian by   5.003017540156890E-003
 Lowest  eigenvalues of input Hessian
    0.005000   -0.000000   -0.000000   -0.000000    0.000000    0.000000
    0.000000    0.005018    0.005025    0.005044    0.005085    0.005095
    0.005153    0.005238    0.005311    0.005353    0.005480    0.005646
 Highest eigenvalues
    2.070132    2.083355    2.088149    2.145058    2.168095    2.183994
 

........................................................................
.............................. CYCLE   43 ..............................
........................................................................
   1   -186.5045958 -0.186505E+03  0.160E-01    0.30       0.0  T
   2   -186.5045211  0.747824E-04  0.882E-02    0.30       1.0  T
   3   -186.4883707  0.161503E-01  0.255E-01    0.31       1.0  T
   4   -186.5045910 -0.162203E-01  0.193E-02    0.30       1.0  T
   5   -186.5045909  0.966665E-07  0.178E-02    0.30       1.0  T
   6   -186.5046163 -0.253605E-04  0.837E-03    0.30       1.1  T
   7   -186.5046243 -0.796058E-05  0.228E-03    0.30       4.1  T
   8   -186.5046247 -0.408138E-06  0.121E-03    0.30       7.8  T
   9   -186.5046248 -0.139871E-06  0.800E-04    0.30      11.8  T
  10   -186.5046249 -0.110894E-06  0.349E-04    0.30      27.1  T
     SCC iter.                  ...        0 min,  0.109 sec
     gradient                   ...        0 min,  0.019 sec
 * total energy  :  -183.7302438 Eh     change       -0.5530874E-03 Eh
   gradient norm :     0.0069905 Eh/α   predicted     0.0000000E+00 (-100.00%)
   displ. norm   :     0.1418458 α      lambda       -0.1998583E-03
   maximum displ.:     0.0887645 α      in ANC's #5, #3, #2, ...

........................................................................
.............................. CYCLE   44 ..............................
........................................................................
   1   -186.5090888 -0.186509E+03  0.327E-02    0.30       0.0  T
   2   -186.5090636  0.252013E-04  0.205E-02    0.30       1.0  T
   3   -186.5068944  0.216919E-02  0.935E-02    0.30       1.0  T
   4   -186.5090880 -0.219356E-02  0.584E-03    0.30       1.6  T
   5   -186.5090906 -0.256437E-05  0.311E-03    0.30       3.0  T
   6   -186.5090908 -0.270551E-06  0.250E-03    0.30       3.8  T
   7   -186.5090914 -0.612542E-06  0.944E-04    0.30      10.0  T
     SCC iter.                  ...        0 min,  0.077 sec
     gradient                   ...        0 min,  0.018 sec
 * total energy  :  -183.7304110 Eh     change       -0.1672122E-03 Eh
   gradient norm :     0.0034998 Eh/α   predicted    -0.1019557E-03 ( -39.03%)
   displ. norm   :     0.1371108 α      lambda       -0.1344311E-03
   maximum displ.:     0.0776410 α      in ANC's #5, #3, #2, ...

........................................................................
.............................. CYCLE   45 ..............................
........................................................................
   1   -186.5114977 -0.186511E+03  0.330E-02    0.30       0.0  T
   2   -186.5114985 -0.722979E-06  0.178E-02    0.30       1.0  T
   3   -186.5114310  0.675100E-04  0.176E-02    0.30       1.0  T
   4   -186.5114337 -0.274621E-05  0.168E-02    0.30       1.0  T
   5   -186.5114977 -0.639902E-04  0.400E-03    0.30       2.4  T
   6   -186.5114989 -0.125483E-05  0.241E-03    0.30       3.9  T
   7   -186.5114996 -0.698209E-06  0.746E-04    0.30      12.7  T
   8   -186.5114997 -0.444374E-07  0.279E-04    0.30      33.9  T
     SCC iter.                  ...        0 min,  0.088 sec
     gradient                   ...        0 min,  0.019 sec
 * total energy  :  -183.7305262 Eh     change       -0.1151616E-03 Eh
   gradient norm :     0.0015565 Eh/α   predicted    -0.6848383E-04 ( -40.53%)
   displ. norm   :     0.4828101 α      lambda       -0.2401640E-03
   maximum displ.:     0.2657432 α      in ANC's #5, #3, #2, ...

........................................................................
.............................. CYCLE   46 ..............................
........................................................................
   1   -186.5141195 -0.186514E+03  0.113E-01    0.31       0.0  T
   2   -186.5141312 -0.117077E-04  0.607E-02    0.31       1.0  T
   3   -186.5141006  0.305545E-04  0.187E-02    0.31       1.0  T
   4   -186.5141206 -0.199997E-04  0.121E-02    0.31       1.0  T
   5   -186.5140468  0.738315E-04  0.197E-02    0.31       1.0  T
   6   -186.5140950 -0.481676E-04  0.135E-02    0.31       1.0  T
   7   -186.5141362 -0.412504E-04  0.217E-03    0.31       4.4  T
   8   -186.5141367 -0.538021E-06  0.705E-04    0.31      13.4  T
   9   -186.5141367  0.106989E-07  0.567E-04    0.31      16.7  T
     SCC iter.                  ...        0 min,  0.099 sec
     gradient                   ...        0 min,  0.019 sec
 * total energy  :  -183.7307726 Eh     change       -0.2464687E-03 Eh
   gradient norm :     0.0070497 Eh/α   predicted    -0.1325297E-03 ( -46.23%)
   displ. norm   :     0.3154406 α      lambda       -0.2022044E-03
   maximum displ.:     0.1768211 α      in ANC's #5, #3, #2, ...

........................................................................
.............................. CYCLE   47 ..............................
........................................................................
   1   -186.5138042 -0.186514E+03  0.689E-02    0.31       0.0  T
   2   -186.5138063 -0.208756E-05  0.377E-02    0.31       1.0  T
   3   -186.5135735  0.232774E-03  0.336E-02    0.31       1.0  T
   4   -186.5136944 -0.120899E-03  0.220E-02    0.31       1.0  T
   5   -186.5137997 -0.105285E-03  0.801E-03    0.31       1.2  T
   6   -186.5138076 -0.792832E-05  0.352E-03    0.31       2.7  T
   7   -186.5138093 -0.173189E-05  0.774E-04    0.31      12.2  T
   8   -186.5138094 -0.863729E-07  0.397E-04    0.31      23.8  T
     SCC iter.                  ...        0 min,  0.088 sec
     gradient                   ...        0 min,  0.018 sec
 * total energy  :  -183.7309410 Eh     change       -0.1683439E-03 Eh
   gradient norm :     0.0080493 Eh/α   predicted    -0.1111666E-03 ( -33.96%)
   displ. norm   :     0.4384149 α      lambda       -0.2972496E-03
   maximum displ.:     0.2455687 α      in ANC's #5, #3, #2, ...

........................................................................
.............................. CYCLE   48 ..............................
........................................................................
   1   -186.5121772 -0.186512E+03  0.910E-02    0.32       0.0  T
   2   -186.5121802 -0.300109E-05  0.499E-02    0.31       1.0  T
   3   -186.5116431  0.537172E-03  0.459E-02    0.32       1.0  T
   4   -186.5121060 -0.462946E-03  0.205E-02    0.32       1.0  T
   5   -186.5121800 -0.739775E-04  0.728E-03    0.31       1.3  T
   6   -186.5121847 -0.472263E-05  0.332E-03    0.31       2.8  T
   7   -186.5121861 -0.140899E-05  0.108E-03    0.31       8.7  T
   8   -186.5121862 -0.101378E-06  0.584E-04    0.31      16.2  T
     SCC iter.                  ...        0 min,  0.088 sec
     gradient                   ...        0 min,  0.018 sec
 * total energy  :  -183.7312172 Eh     change       -0.2762384E-03 Eh
   gradient norm :     0.0068104 Eh/α   predicted    -0.1771957E-03 ( -35.85%)
   displ. norm   :     0.6081062 α      lambda       -0.4412377E-03
   maximum displ.:     0.3436929 α      in ANC's #5, #3, #2, ...

........................................................................
.............................. CYCLE   49 ..............................
........................................................................
   1   -186.5098108 -0.186510E+03  0.122E-01    0.31       0.0  T
   2   -186.5098187 -0.790731E-05  0.669E-02    0.31       1.0  T
   3   -186.5094275  0.391169E-03  0.403E-02    0.31       1.0  T
   4   -186.5093118  0.115752E-03  0.475E-02    0.32       1.0  T
   5   -186.5098134 -0.501603E-03  0.118E-02    0.31       1.0  T
   6   -186.5098199 -0.654145E-05  0.739E-03    0.31       1.3  T
   7   -186.5098272 -0.728604E-05  0.196E-03    0.31       4.8  T
   8   -186.5098276 -0.390086E-06  0.800E-04    0.31      11.8  T
   9   -186.5098276 -0.275699E-07  0.547E-04    0.31      17.3  T
     SCC iter.                  ...        0 min,  0.098 sec
     gradient                   ...        0 min,  0.018 sec
 * total energy  :  -183.7316092 Eh     change       -0.3919910E-03 Eh
   gradient norm :     0.0043783 Eh/α   predicted    -0.3022083E-03 ( -22.90%)
   displ. norm   :     0.6794472 α      lambda       -0.4409312E-03
   maximum displ.:     0.3889586 α      in ANC's #5, #3, #2, ...

........................................................................
.............................. CYCLE   50 ..............................
........................................................................
   1   -186.5077593 -0.186508E+03  0.132E-01    0.31       0.0  T
   2   -186.5077703 -0.109966E-04  0.724E-02    0.31       1.0  T
   3   -186.5076751  0.951253E-04  0.284E-02    0.31       1.0  T
   4   -186.5076498  0.253432E-04  0.257E-02    0.31       1.0  T
   5   -186.5074223  0.227536E-03  0.375E-02    0.31       1.0  T
   6   -186.5077720 -0.349744E-03  0.756E-03    0.31       1.2  T
   7   -186.5077780 -0.604222E-05  0.212E-03    0.31       4.5  T
   8   -186.5077785 -0.493224E-06  0.780E-04    0.31      12.1  T
   9   -186.5077785 -0.411362E-08  0.591E-04    0.31      16.0  T
     SCC iter.                  ...        0 min,  0.098 sec
     gradient                   ...        0 min,  0.018 sec
 * total energy  :  -183.7319963 Eh     change       -0.3870931E-03 Eh
   gradient norm :     0.0058646 Eh/α   predicted    -0.3222440E-03 ( -16.75%)
   displ. norm   :     0.6735958 α      lambda       -0.4127800E-03
   maximum displ.:     0.3898679 α      in ANC's #5, #3, #2, ...

........................................................................
.............................. CYCLE   51 ..............................
........................................................................
   1   -186.5070846 -0.186507E+03  0.128E-01    0.31       0.0  T
   2   -186.5070925 -0.792077E-05  0.694E-02    0.31       1.0  T
   3   -186.5065776  0.514868E-03  0.510E-02    0.31       1.0  T
   4   -186.5066044 -0.267997E-04  0.450E-02    0.31       1.0  T
   5   -186.5070407 -0.436275E-03  0.186E-02    0.31       1.0  T
   6   -186.5070939 -0.531852E-04  0.663E-03    0.31       1.4  T
   7   -186.5071011 -0.727586E-05  0.197E-03    0.31       4.8  T
   8   -186.5071017 -0.519040E-06  0.680E-04    0.31      13.9  T
   9   -186.5071017  0.492781E-08  0.525E-04    0.31      18.0  T
     SCC iter.                  ...        0 min,  0.098 sec
     gradient                   ...        0 min,  0.018 sec
 * total energy  :  -183.7323698 Eh     change       -0.3735403E-03 Eh
   gradient norm :     0.0083317 Eh/α   predicted    -0.3000366E-03 ( -19.68%)
   displ. norm   :     0.6971074 α      lambda       -0.4644248E-03
   maximum displ.:     0.4078615 α      in ANC's #5, #3, #2, ...

........................................................................
.............................. CYCLE   52 ..............................
........................................................................
   1   -186.5081316 -0.186508E+03  0.129E-01    0.30       0.0  T
   2   -186.5081365 -0.485001E-05  0.698E-02    0.30       1.0  T
   3   -186.5069046  0.123188E-02  0.735E-02    0.30       1.0  T
   4   -186.5077863 -0.881751E-03  0.394E-02    0.30       1.0  T
   5   -186.5081104 -0.324020E-03  0.168E-02    0.30       1.0  T
   6   -186.5081457 -0.353521E-04  0.509E-03    0.30       1.9  T
   7   -186.5081486 -0.287486E-05  0.202E-03    0.30       4.7  T
   8   -186.5081492 -0.631843E-06  0.683E-04    0.30      13.8  T
     SCC iter.                  ...        0 min,  0.088 sec
     gradient                   ...        0 min,  0.018 sec
 * total energy  :  -183.7328008 Eh     change       -0.4309279E-03 Eh
   gradient norm :     0.0091396 Eh/α   predicted    -0.3450584E-03 ( -19.93%)
   displ. norm   :     0.7542935 α      lambda       -0.5673645E-03
   maximum displ.:     0.4469671 α      in ANC's #5, #3, #2, ...

........................................................................
.............................. CYCLE   53 ..............................
........................................................................
   1   -186.5105167 -0.186511E+03  0.137E-01    0.30       0.0  T
   2   -186.5105199 -0.311958E-05  0.740E-02    0.30       1.0  T
   3   -186.5085281  0.199178E-02  0.900E-02    0.30       1.0  T
   4   -186.5101670 -0.163890E-02  0.414E-02    0.30       1.0  T
   5   -186.5105095 -0.342487E-03  0.156E-02    0.30       1.0  T
   6   -186.5105289 -0.194663E-04  0.781E-03    0.30       1.2  T
   7   -186.5105380 -0.900793E-05  0.228E-03    0.30       4.1  T
   8   -186.5105386 -0.683578E-06  0.884E-04    0.30      10.7  T
   9   -186.5105387 -0.707779E-07  0.513E-04    0.30      18.4  T
     SCC iter.                  ...        0 min,  0.104 sec
     gradient                   ...        0 min,  0.020 sec
 * total energy  :  -183.7333240 Eh     change       -0.5231855E-03 Eh
   gradient norm :     0.0075241 Eh/α   predicted    -0.4450863E-03 ( -14.93%)
   displ. norm   :     0.8171468 α      lambda       -0.6102652E-03
   maximum displ.:     0.4901925 α      in ANC's #5, #3, #2, ...

........................................................................
.............................. CYCLE   54 ..............................
........................................................................
   1   -186.5119582 -0.186512E+03  0.147E-01    0.29       0.0  T
   2   -186.5119730 -0.148417E-04  0.791E-02    0.29       1.0  T
   3   -186.5117822  0.190808E-03  0.335E-02    0.29       1.0  T
   4   -186.5113702  0.412041E-03  0.506E-02    0.29       1.0  T
   5   -186.5118473 -0.477098E-03  0.260E-02    0.29       1.0  T
   6   -186.5119540 -0.106726E-03  0.122E-02    0.29       1.0  T
   7   -186.5119837 -0.296872E-04  0.238E-03    0.29       4.0  T
   8   -186.5119844 -0.668971E-06  0.991E-04    0.29       9.5  T
   9   -186.5119845 -0.977253E-07  0.585E-04    0.29      16.2  T
     SCC iter.                  ...        0 min,  0.100 sec
     gradient                   ...        0 min,  0.018 sec
 * total energy  :  -183.7338828 Eh     change       -0.5588252E-03 Eh
   gradient norm :     0.0047485 Eh/α   predicted    -0.5088797E-03 (  -8.94%)
   displ. norm   :     0.8550968 α      lambda       -0.5774486E-03
   maximum displ.:     0.5171420 α      in ANC's #5, #3, #2, ...

........................................................................
.............................. CYCLE   55 ..............................
........................................................................
   1   -186.5121939 -0.186512E+03  0.152E-01    0.29       0.0  T
   2   -186.5122090 -0.150765E-04  0.817E-02    0.29       1.0  T
[...]
    56   6 C      3.733     0.028    20.183     6.412
    57   7 N      2.630    -0.350    29.027     8.002
    58   6 C      3.080     0.003    27.859     8.653
    59   6 C      2.905    -0.008    28.218     8.710
    60   6 C      3.867    -0.013    20.764     6.480
    61   6 C      2.912    -0.037    28.910     8.817
    62   6 C      2.896    -0.030    28.756     8.792
    63   6 C      3.049    -0.012    28.267     8.720
    64   6 C      3.067    -0.006    28.109     8.694
    65   6 C      2.903    -0.029    28.732     8.789
    66   6 C      2.918    -0.036    28.904     8.816
    67   6 C      2.896    -0.020    28.508     8.754
    68   6 C      2.836    -0.090    30.238     9.011
    69   1 H      0.926     0.048     2.341     2.393
    70   1 H      0.926     0.055     2.263     2.353
    71   1 H      0.924     0.052     2.297     2.370
    72   1 H      0.924     0.049     2.328     2.386
    73   1 H      0.924     0.059     2.205     2.322
    74   1 H      0.925     0.063     2.166     2.301
    75   1 H      0.924     0.051     2.306     2.375
    76   1 H      0.924     0.044     2.396     2.421
    77   1 H      0.927     0.061     2.188     2.313
    78   1 H      0.925     0.051     2.312     2.378
    79   1 H      0.926     0.037     2.491     2.468
    80   1 H      0.926     0.036     2.503     2.474
    81   1 H      0.926     0.035     2.510     2.477
    82   1 H      0.926     0.038     2.476     2.461
    83   1 H      0.925     0.049     2.330     2.387
    84   1 H      0.925     0.044     2.398     2.422
    85   1 H      0.926     0.036     2.499     2.472
    86   1 H      0.926     0.036     2.509     2.477
    87   1 H      0.926     0.036     2.503     2.474
    88   1 H      0.926     0.040     2.445     2.445
    89   1 H      0.925     0.064     2.148     2.292
    90   1 H      0.927     0.062     2.175     2.306
    91   1 H      0.927     0.063     2.165     2.301
    92   1 H      0.926     0.061     2.183     2.311
    93   1 H      0.925     0.038     2.478     2.462
    94   1 H      0.926     0.026     2.642     2.542
    95   1 H      0.924     0.049     2.331     2.388
    96   1 H      0.924     0.031     2.576     2.510
    97   1 H      0.923    -0.001     3.073     2.742
    98   1 H      0.860     0.141     1.466     1.896
    99   1 H      0.860     0.135     1.509     1.924
   100   1 H      0.924     0.029     2.604     2.523
   101   1 H      0.923     0.008     2.928     2.676
   102   1 H      0.860     0.161     1.329     1.806
   103   1 H      0.860     0.132     1.532     1.939
   104   1 H      0.925     0.042     2.420     2.433
   105   1 H      0.923     0.086     1.920     2.167
   106   1 H      0.926     0.026     2.638     2.540
   107   1 H      0.926     0.032     2.564     2.504
   108   1 H      0.926     0.028     2.619     2.531
   109   1 H      0.926     0.034     2.530     2.487
   110   1 H      0.925     0.040     2.444     2.445
   111   1 H      0.926     0.045     2.382     2.413
   112   1 H      0.926     0.044     2.399     2.422

 Mol. C6AA /au·bohr⁶  :     210242.569015
 Mol. C8AA /au·bohr⁸  :    5917955.921155
 Mol. α(0) /au        :        738.580678


Wiberg/Mayer (AO) data.
largest (>0.10) Wiberg bond orders for each atom
          total WBO             WBO to atom ...
     1  C   3.805        C    5 1.416    S    2 1.231    H   69 0.969
     2  S   2.588        C    1 1.231    C    3 1.102
     3  C   3.932        C   14 1.331    C    4 1.279    S    2 1.102
     4  C   3.932        C   13 1.288    C    3 1.279    C    5 1.177
     5  C   3.985        C    1 1.416    C    6 1.240    C    4 1.177
     6  C   3.949        C    7 1.497    C    5 1.240    H   70 0.965
     7  C   3.931        C    6 1.497    C   10 1.178    O    8 1.074
     8  O   2.236        C    7 1.074    C    9 0.977
     9  C   3.940        H   73 0.979    H   72 0.978    O    8 0.977    H   71 0.976
    10  C   3.897        C   13 1.473    C    7 1.178    O   11 1.059
    11  O   2.214        C   10 1.059    C   12 0.982
    12  C   3.942        O   11 0.982    H   74 0.979    H   76 0.975    H   75 0.973
    13  C   3.975        C   10 1.473    C    4 1.288    H   77 0.945
    14  C   3.844        C   15 1.403    C    3 1.331    H   78 0.951
    15  C   3.939        C   14 1.403    C   16 1.278    S   19 1.075
    16  C   3.902        C   17 1.512    C   15 1.278    H   79 0.964
    17  C   3.949        C   16 1.512    C   18 1.311    H   80 0.963
    18  C   3.871        C   17 1.311    C   20 1.302    S   19 1.095
    19  S   2.479        C   18 1.095    C   15 1.075
    20  C   3.914        C   21 1.334    C   18 1.302    S   24 1.094
    21  C   3.925        C   22 1.468    C   20 1.334    H   81 0.963
    22  C   3.932        C   21 1.468    C   23 1.341    H   82 0.964
    23  C   3.885        C   22 1.341    C   25 1.311    S   24 1.087
    24  S   2.472        C   20 1.094    C   23 1.087
    25  C   3.931        C   26 1.493    C   23 1.311    H   83 0.951
    26  C   3.929        C   25 1.493    C   27 1.308    H   84 0.952
    27  C   3.895        C   28 1.338    C   26 1.308    S   31 1.102
    28  C   3.936        C   29 1.466    C   27 1.338    H   85 0.965
    29  C   3.930        C   28 1.466    C   30 1.334    H   86 0.964
    30  C   3.926        C   29 1.334    C   32 1.292    S   31 1.112
    31  S   2.509        C   30 1.112    C   27 1.102
    32  C   3.875        C   33 1.318    C   30 1.292    S   36 1.098
    33  C   3.957        C   34 1.498    C   32 1.318    H   87 0.963
    34  C   3.905        C   33 1.498    C   35 1.289    H   88 0.965
    35  C   3.933        C   37 1.369    C   34 1.289    S   36 1.106
    36  S   2.575        C   35 1.106    C   32 1.098
    37  C   3.867        C   35 1.369    C   38 1.349    H   89 0.950
    38  C   3.879        C   37 1.349    C   39 1.335    O   46 0.981
    39  C   3.781        C   38 1.335    C   47 1.263    O   40 1.010
    40  O   2.286        C   41 1.043    C   39 1.010
    41  C   3.928        C   45 1.561    C   42 1.162    O   40 1.043
    42  C   3.932        C   43 1.568    C   41 1.162    O   46 1.046
    43  C   3.920        C   42 1.568    S   44 1.158    H   90 0.969
    44  S   2.574        C   45 1.167    C   43 1.158
    45  C   3.910        C   41 1.561    S   44 1.167    H   91 0.969
    46  O   2.277        C   42 1.046    C   38 0.981
    47  C   3.950        C   48 1.546    C   39 1.263    H   92 0.951
    48  C   3.897        C   47 1.546    C   49 1.187    H   93 0.961
    49  C   3.958        C   50 1.451    C   48 1.187    C   66 1.176
    50  C   3.908        C   49 1.451    C   51 1.280    H   94 0.960
    51  C   3.978        C   52 1.416    C   50 1.280    C   64 1.094
    52  C   3.882        C   51 1.416    C   58 1.151    C   53 1.015
    53  C   3.992        C   52 1.015    C   54 0.976    C   56 0.972    H   95 0.959
    54  C   3.978        N   55 1.021    C   53 0.976    H   96 0.971    H   97 0.966
    55  N   3.015        C   54 1.021    H   99 0.967    H   98 0.966
    56  C   3.981        N   57 1.030    H  100 0.975    C   53 0.972    H  101 0.964
    57  N   2.998        C   56 1.030    H  103 0.967    H  102 0.948
    58  C   3.984        C   59 1.655    C   52 1.151    C   63 1.051
    59  C   3.909        C   58 1.655    C   60 1.036    H  104 0.962
    60  C   3.992        C   59 1.036    C   61 1.015    C   67 0.963    H  105 0.893
    61  C   3.931        C   62 1.718    C   60 1.015    H  106 0.970
    62  C   3.986        C   61 1.718    C   63 1.209    H  107 0.963
    63  C   3.953        C   64 1.433    C   62 1.209    C   58 1.051
    64  C   3.977        C   63 1.433    C   65 1.220    C   51 1.094
    65  C   3.981        C   66 1.650    C   64 1.220    H  108 0.967
    66  C   3.935        C   65 1.650    C   49 1.176    H  109 0.964
    67  C   3.972        C   68 1.981    H  110 0.967    C   60 0.963
    68  C   3.986        C   67 1.981    H  111 0.974    H  112 0.974
    69  H   0.997        C    1 0.969
    70  H   0.996        C    6 0.965
    71  H   0.996        C    9 0.976
    72  H   0.996        C    9 0.978
    73  H   0.996        C    9 0.979
    74  H   0.996        C   12 0.979
    75  H   0.996        C   12 0.973
    76  H   0.997        C   12 0.975
    77  H   0.996        C   13 0.945
    78  H   0.996        C   14 0.951
    79  H   0.998        C   16 0.964
    80  H   0.998        C   17 0.963
    81  H   0.998        C   21 0.963
    82  H   0.998        C   22 0.964
    83  H   0.997        C   25 0.951
    84  H   0.998        C   26 0.952
    85  H   0.998        C   28 0.965
    86  H   0.998        C   29 0.964
    87  H   0.998        C   33 0.963
    88  H   0.998        C   34 0.965
    89  H   0.995        C   37 0.950
    90  H   0.996        C   43 0.969
    91  H   0.996        C   45 0.969
    92  H   0.994        C   47 0.951
    93  H   0.998        C   48 0.961
    94  H   0.999        C   50 0.960
    95  H   0.997        C   53 0.959
    96  H   0.999        C   54 0.971
    97  H   1.000        C   54 0.966
    98  H   0.980        N   55 0.966
    99  H   0.981        N   55 0.967
   100  H   0.999        C   56 0.975
   101  H   0.999        C   56 0.964
   102  H   0.974        N   57 0.948
   103  H   0.981        N   57 0.967
   104  H   0.998        C   59 0.962
   105  H   0.983        C   60 0.893
   106  H   0.998        C   61 0.970
   107  H   0.997        C   62 0.963
   108  H   0.998        C   65 0.967
   109  H   0.998        C   66 0.964
   110  H   0.998        C   67 0.967
   111  H   0.998        C   68 0.974
   112  H   0.996        C   68 0.974

molecular dipole:
                 x           y           z       tot (Debye)
 q only:       -1.479       0.939      -1.021
   full:       -1.398       1.074      -0.477       4.642
molecular quadrupole (traceless):
                xx          xy          yy          xz          yz          zz
 q only:      -41.711      48.888       9.925     -18.814      11.370      31.785
  q+dip:      -26.904      69.764      21.153     -15.211       5.523       5.752
   full:      -28.997      66.929      19.477     -21.759      11.091       9.521

           -------------------------------------------------
          |                Geometry Summary                 |
           -------------------------------------------------

      molecular mass/u    :     1001.3346000
   center of mass at/Å    :        6.1153185      -5.0013995      -3.6070766
  moments of inertia/u·Å² :        0.7674370E+04   0.4741451E+05   0.4933927E+05
rotational constants/cm⁻¹ :        0.2196614E-02   0.3555374E-03   0.3416676E-03

 * 113 selected distances

     #   Z        #   Z                                     value/Å
     1   6 C      2  16 S                                 1.7040220
     2  16 S      3   6 C                                 1.7572810 (max)
     3   6 C      4   6 C                                 1.4100416
     1   6 C      5   6 C                                 1.3806008
     4   6 C      5   6 C                                 1.4307287
     5   6 C      6   6 C                                 1.4080636
     6   6 C      7   6 C                                 1.3726789
     7   6 C      8   8 O                                 1.3600572
     8   8 O      9   6 C                                 1.4096455
    10   6 C     11   8 O                                 1.3663814
    11   8 O     12   6 C                                 1.4078341
     4   6 C     13   6 C                                 1.4013148
    10   6 C     13   6 C                                 1.3747052
     3   6 C     14   6 C                                 1.3986032
    14   6 C     15   6 C                                 1.3822482
    15   6 C     16   6 C                                 1.4109931
    16   6 C     17   6 C                                 1.3701471
    17   6 C     18   6 C                                 1.4001983
    15   6 C     19  16 S                                 1.7550793
    18   6 C     19  16 S                                 1.7476037
    18   6 C     20   6 C                                 1.3938433
    20   6 C     21   6 C                                 1.3970532
    21   6 C     22   6 C                                 1.3768717
    22   6 C     23   6 C                                 1.3958854
    20   6 C     24  16 S                                 1.7495960
    23   6 C     24  16 S                                 1.7501674
    23   6 C     25   6 C                                 1.3953235
    25   6 C     26   6 C                                 1.3706422
    26   6 C     27   6 C                                 1.3961707
    27   6 C     28   6 C                                 1.3969791
    28   6 C     29   6 C                                 1.3773805
    29   6 C     30   6 C                                 1.3975351
    27   6 C     31  16 S                                 1.7478423
    30   6 C     31  16 S                                 1.7459100
    30   6 C     32   6 C                                 1.3963140
    32   6 C     33   6 C                                 1.3992602
    33   6 C     34   6 C                                 1.3721922
    34   6 C     35   6 C                                 1.4087811
    32   6 C     36  16 S                                 1.7497918
    35   6 C     36  16 S                                 1.7447326
    35   6 C     37   6 C                                 1.3876354
    37   6 C     38   6 C                                 1.3968472
    38   6 C     39   6 C                                 1.3982501
    39   6 C     40   8 O                                 1.3880260
    40   8 O     41   6 C                                 1.3552935
    41   6 C     42   6 C                                 1.4249019
    42   6 C     43   6 C                                 1.3561960
    43   6 C     44  16 S                                 1.7259571
    41   6 C     45   6 C                                 1.3572044
    44  16 S     45   6 C                                 1.7236644
    42   6 C     46   8 O                                 1.3548586
    39   6 C     47   6 C                                 1.4105055
    47   6 C     48   6 C                                 1.3638682
    48   6 C     49   6 C                                 1.4322842
    49   6 C     50   6 C                                 1.3841767
    50   6 C     51   6 C                                 1.4049765
    51   6 C     52   6 C                                 1.3911665
    53   6 C     54   6 C                                 1.5375386
    54   6 C     55   7 N                                 1.4568246
    53   6 C     56   6 C                                 1.5402785
    56   6 C     57   7 N                                 1.4517852
    52   6 C     58   6 C                                 1.4423171
    58   6 C     59   6 C                                 1.3474443
    61   6 C     62   6 C                                 1.3442766
    62   6 C     63   6 C                                 1.4154714
    63   6 C     64   6 C                                 1.3777690
    64   6 C     65   6 C                                 1.4142452
    65   6 C     66   6 C                                 1.3542727
    67   6 C     68   6 C                                 1.3188148
     1   6 C     69   1 H                                 1.0713116
     6   6 C     70   1 H                                 1.0779053
     9   6 C     71   1 H                                 1.0916307
     9   6 C     72   1 H                                 1.0919056
     9   6 C     73   1 H                                 1.0902505
    12   6 C     74   1 H                                 1.0891275
    12   6 C     75   1 H                                 1.0945704
    12   6 C     76   1 H                                 1.0942287
    13   6 C     77   1 H                                 1.0731950
    14   6 C     78   1 H                                 1.0852419
    16   6 C     79   1 H                                 1.0758579
    17   6 C     80   1 H                                 1.0752128
    21   6 C     81   1 H                                 1.0752392
    22   6 C     82   1 H                                 1.0757201
    25   6 C     83   1 H                                 1.0822692
    26   6 C     84   1 H                                 1.0834773
    28   6 C     85   1 H                                 1.0764437
    29   6 C     86   1 H                                 1.0754252
    33   6 C     87   1 H                                 1.0751661
    34   6 C     88   1 H                                 1.0758284
    37   6 C     89   1 H                                 1.0850305
    43   6 C     90   1 H                                 1.0694907
    45   6 C     91   1 H                                 1.0695932
    47   6 C     92   1 H                                 1.0807705
    48   6 C     93   1 H                                 1.0821127
    50   6 C     94   1 H                                 1.0802952
    53   6 C     95   1 H                                 1.0948792
    54   6 C     96   1 H                                 1.0927288
    54   6 C     97   1 H                                 1.1026364
    55   7 N     98   1 H                                 1.0157129
    55   7 N     99   1 H                                 1.0146117
    56   6 C    100   1 H                                 1.0952853
    56   6 C    101   1 H                                 1.1011293
    57   7 N    102   1 H                                 1.0166380
    57   7 N    103   1 H                                 1.0145681 (min)
    59   6 C    104   1 H                                 1.0818544
    60   6 C    105   1 H                                 1.1019316
    61   6 C    106   1 H                                 1.0801172
    62   6 C    107   1 H                                 1.0805535
    65   6 C    108   1 H                                 1.0807200
    66   6 C    109   1 H                                 1.0780588
    67   6 C    110   1 H                                 1.0813044
    68   6 C    111   1 H                                 1.0784784
    68   6 C    112   1 H                                 1.0768495

 * 6 distinct bonds (by element types)

   Z      Z             #   av. dist./Å        max./Å        min./Å
   1 H    6 C          40     1.0830957     1.1026364     1.0694907
   6 C    6 C          48     1.3961458     1.5402785     1.3188148
   1 H    7 N           4     1.0153827     1.0166380     1.0145681
   6 C    7 N           2     1.4543049     1.4568246     1.4517852
   6 C    8 O           7     1.3774423     1.4096455     1.3548586
   6 C   16 S          12     1.7418040     1.7572810     1.7040220


optimized geometry written to: xtbopt.xyz


           -------------------------------------------------
          | TOTAL ENERGY             -183.760431464578 Eh   |
          | GRADIENT NORM               0.000341177353 Eh/α |
          | HOMO-LUMO GAP               0.215951749987 eV   |
           -------------------------------------------------

------------------------------------------------------------------------
 * finished run on 2021/06/03 at 15:13:29.700     
------------------------------------------------------------------------
 total:
 * wall-time:     0 d,  0 h,  0 min, 32.570 sec
 *  cpu-time:     0 d,  0 h,  6 min, 30.617 sec
 * ratio c/w:    11.993 speedup
 SCF:
 * wall-time:     0 d,  0 h,  0 min,  0.212 sec
 *  cpu-time:     0 d,  0 h,  0 min,  2.536 sec
 * ratio c/w:    11.984 speedup
 ANC optimizer:
 * wall-time:     0 d,  0 h,  0 min, 32.307 sec
 *  cpu-time:     0 d,  0 h,  6 min, 27.635 sec
 * ratio c/w:    11.998 speedup

