      -----------------------------------------------------------      
     |                   =====================                   |     
     |                           x T B                           |     
     |                   =====================                   |     
     |                         S. Grimme                         |     
     |          Mulliken Center for Theoretical Chemistry        |     
     |                    University of Bonn                     |     
     |                Version 6.2 RC2 (SAW190805)                |     
      -----------------------------------------------------------      

   This program is distributed in the hope that it will be useful,
   but WITHOUT ANY WARRANTY; without even the implied warranty of
   MERCHANTABILITY or FITNESS FOR A PARTICULAR PURPOSE.
   
   FOR NON-COMMERCIAL, ACADEMIA USE ONLY.
   
   Cite this work as:
   * S. Grimme, C. Bannwarth, P. Shushkov, J. Chem. Theory Comput., 2017,
     13, 1989-2009. DOI: 10.1021/acs.jctc.7b00118
   * C. Bannwarth, S. Ehlert and S. Grimme., J. Chem. Theory Comput., 2019,
     15, 1652-1671. DOI: 10.1021/acs.jctc.8b01176
   * P. Pracht, E. Caldeweyher, S. Ehlert, S. Grimme, ChemRxiv, 2019, preprint.
     DOI: 10.26434/chemrxiv.8326202.v1
   
   for DFT-D4:
   * E. Caldeweyher, C. Bannwarth and S. Grimme, J. Chem. Phys., 2017,
     147, 034112. DOI: 10.1063/1.4993215
   * E. Caldeweyher, S. Ehlert, A. Hansen, H. Neugebauer, S. Spicher,
     C. Bannwarth and S. Grimme, J. Chem. Phys., 2019, 150, 154122.
     DOI: 10.1063/1.5090222
   
   for sTDA-xTB:
   * S. Grimme and C. Bannwarth, J. Chem. Phys., 2016, 145, 054103.
     DOI: 10.1063/1.4959605
   
   in the mass-spec context:
   * V. Asgeirsson, C. Bauer and S. Grimme, Chem. Sci., 2017, 8, 4879.
     DOI: 10.1039/c7sc00601b
   
   for metadynamics refer to:
   * S. Grimme, J. Chem. Theory Comput., 2019, 155, 2847-2862
     DOI: 10.1021/acs.jctc.9b00143
   
   with help from (in alphabetical order)
   C. Bannwarth, F. Bohle, G. Brandenburg, E. Caldeweyher, M. Checinski,
   S. Dohm, S. Ehlert, S. Ehrlich, F. März, H. Neugebauer, J. Pisarek,
   P. Pracht, P. Shushkov, and S. Spicher.
   
 * started run on 2021/06/03 at 17:02:33.794     

           -------------------------------------------------
          |                Calculation Setup                |
           -------------------------------------------------

          program call               : /ihome/ghutchison/geoffh/xtb/xtb /ihome/ghutchison/blp62/GA/running_GA/sequence/generations/17/262_627_800_684_262_10241.xyz -opt
          hostname                   : smp-n3
          coordinate file            : /ihome/ghutchison/blp62/GA/running_GA/sequence/generations/17/262_627_800_684_262_10241.xyz
          omp threads                :                    12
          number of atoms            :                    77
          number of electrons        :                   316
          charge                     :                     0
          spin                       :                   0.0
          first test random number   :      0.96097639281442


########################################################################
# WARNING! Please study the warnings concerning your input carefully
#  - XTBPATH is not set, using XTBHOME instead
#  - the use of '-opt' is discouraged, please use '--opt' next time
########################################################################

           ------------------------------------------------- 
          |                 G F N 2 - x T B                 |
          | Geometry, Frequencies, Noncovalent interactions |
          |            JCTC 2019 parametrisation            |
           ------------------------------------------------- 
             KAB for C  - Si     :                1.0500
             KAB for H  - Pd     :                0.9500
             k(s)              :                1.8500
             k(p)              :                2.2300
             k(d)              :                2.2300
             k(f)              :                2.0000
             kEN (H0ij)        :               -2.0000
             D4 a1             :                0.5200
             D4 a2             :                5.0000
             D4 s6             :                1.0000
             D4 s8             :                2.7000
             D4 s9             :                5.0000
             alphaj            :                2.0000

  Z AO/shell   Hii/eV     exponent
  1     Wed Apr 25 08:07:45 CEST 2018   EN: 2.200 GM2: 0.406  GM3: 0.0800  RAES: 1.40
     1s    -10.707211    1.230000
  6     Wed Apr 25 08:07:45 CEST 2018   EN: 2.550 GM2: 0.538  GM3: 0.1500  RAES: 3.00
     2s    -13.970922    2.096432
     2p    -10.063292    1.800000
  7     Wed Apr 25 08:07:45 CEST 2018   EN: 3.040 GM2: 0.461  GM3:-0.0640  RAES: 1.90
     2s    -16.686243    2.339881
     2p    -12.523956    2.014332
  8     Wed Apr 25 08:07:45 CEST 2018   EN: 3.440 GM2: 0.452  GM3:-0.0517  RAES: 1.80
     2s    -20.229985    2.439742
     2p    -15.503117    2.137023
 16     Tue Apr 24 11:44:34 CEST 2018   EN: 2.580 GM2: 0.340  GM3:-0.0502  RAES: 3.10
     3s    -20.029654    1.981333
     3p    -11.377694    2.025643
     3d     -0.420282    1.702555

           ------------------------------------------------- 
          |        Self-Consistent Charge Iterations        |
           ------------------------------------------------- 

          ...................................................
          :                      SETUP                      :
          :.................................................:
          :  # basis functions                 299          :
          :  # atomic orbitals                 294          :
          :  # shells                          146          :
          :  # electrons                       316          :
          :  max. iterations                   250          :
          :  Hamiltonian                  GFN2-xTB          :
          :  restarted?                      false          :
          :  GBSA solvation                  false          :
          :  PC potential                    false          :
          :  electronic temp.          300.0000000     K    :
          :  accuracy                    1.0000000          :
          :  -> integral cutoff          0.2500000E+02      :
          :  -> integral neglect         0.1000000E-07      :
          :  -> SCF convergence          0.1000000E-05 Eh   :
          :  -> wf. convergence          0.1000000E-03 e    :
          :  Broyden damping             0.4000000          :
          ...................................................

 iter      E             dE          RMSdq      gap      omega  full diag
   1   -184.3383587 -0.184338E+03  0.609E+00    1.17       0.0  T
   2   -185.0880390 -0.749680E+00  0.301E+00    1.00       1.0  T
   3   -185.0839557  0.408331E-02  0.180E+00    1.00       1.0  T
   4   -185.1063852 -0.224295E-01  0.115E+00    0.66       1.0  T
   5   -185.1595611 -0.531759E-01  0.296E-01    0.56       1.0  T
   6   -185.1658462 -0.628506E-02  0.109E-01    0.61       1.0  T
   7   -185.1661626 -0.316386E-03  0.623E-02    0.63       1.0  T
   8   -185.1662907 -0.128104E-03  0.256E-02    0.64       1.0  T
   9   -185.1663055 -0.148032E-04  0.160E-02    0.64       1.0  T
  10   -185.1663111 -0.558148E-05  0.629E-03    0.64       1.8  T
  11   -185.1663123 -0.122466E-05  0.346E-03    0.64       3.3  T
  12   -185.1663125 -0.220059E-06  0.194E-03    0.64       5.9  T
  13   -185.1663126 -0.541953E-07  0.997E-04    0.64      11.4  T
  14   -185.1663126 -0.286805E-07  0.499E-04    0.64      22.8  T

   *** convergence criteria satisfied after 14 iterations ***

         #    Occupation            Energy/Eh            Energy/eV
      -------------------------------------------------------------
         1        2.0000           -0.8189880             -22.2858
       ...           ...                  ...                  ...
       152        2.0000           -0.4398907             -11.9700
       153        2.0000           -0.4395729             -11.9614
       154        2.0000           -0.4386762             -11.9370
       155        2.0000           -0.4304496             -11.7131
       156        2.0000           -0.4233280             -11.5193
       157        2.0000           -0.4109427             -11.1823
       158        2.0000           -0.3955017             -10.7621 (HOMO)
       159        0.0000           -0.3720076             -10.1228 (LUMO)
       160        0.0000           -0.3680066             -10.0140
       161                         -0.3676782             -10.0050
       162                         -0.3628495              -9.8736
       163                         -0.3518830              -9.5752
       ...                                ...                  ...
       294                          0.7577690              20.6199
      -------------------------------------------------------------
                  HL-Gap            0.0234940 Eh            0.6393 eV
             Fermi-level           -0.3837666 Eh          -10.4428 eV

 SCC (total)                   0 d,  0 h,  0 min,  0.153 sec
 SCC setup                      ...        0 min,  0.001 sec (  0.974%)
 Dispersion                     ...        0 min,  0.003 sec (  1.841%)
 integral evaluation            ...        0 min,  0.018 sec ( 11.729%)
 zeroth order Hamiltonian       ...        0 min,  0.001 sec (  0.605%)
 iterations                     ...        0 min,  0.117 sec ( 76.406%)
 molecular gradient             ...        0 min,  0.012 sec (  7.949%)
 printout                       ...        0 min,  0.001 sec (  0.439%)

         :::::::::::::::::::::::::::::::::::::::::::::::::::::
         ::                     SUMMARY                     ::
         :::::::::::::::::::::::::::::::::::::::::::::::::::::
         :: total energy            -183.171289593517 Eh    ::
         :: gradient norm              0.231276586472 Eh/a0 ::
         :: HOMO-LUMO gap              0.639305405666 eV    ::
         ::.................................................::
         :: SCC energy              -185.166312582284 Eh    ::
         :: -> isotropic ES            0.355170108797 Eh    ::
         :: -> anisotropic ES          0.048013067149 Eh    ::
         :: -> anisotropic XC          0.009256796795 Eh    ::
         :: -> dispersion             -0.121008776405 Eh    ::
         :: repulsion energy           1.994953764644 Eh    ::
         :: add. restraining           0.000000000000 Eh    ::
         :::::::::::::::::::::::::::::::::::::::::::::::::::::

      ----------------------------------------------------------- 
     |                   =====================                   |
     |                        A N C O P T                        |
     |                   =====================                   |
     |               Approximate Normal Coordinate               |
     |                Rational Function Optimizer                |
      ----------------------------------------------------------- 

          ...................................................
          :                      SETUP                      :
          :.................................................:
          :   optimization level            normal          :
          :   max. optcycles                   231          :
          :   ANC micro-cycles                  20          :
          :   degrees of freedom               225          :
          :.................................................:
          :   RF solver                   davidson          :
          :   input Hessian                  false          :
          :   write xtbopt.log                true          :
          :   linear?                        false          :
          :   energy convergence         0.5000000E-05 Eh   :
          :   grad. convergence          0.1000000E-02 Eh/α :
          :   maximium RF displ.         2.0000000          :
          :   Hlow (freq-cutoff)         0.5000000E-02      :
          :   Hmax (freq-cutoff)         5.0000000          :
          :   S6 in model hess.         20.0000000          :
          ...................................................

generating ANC from model Hessian ...
Using Lindh-Hessian (1995)
 Shifting diagonal of input Hessian by   4.984309823542495E-003
 Lowest  eigenvalues of input Hessian
   -0.000000   -0.000000    0.000000    0.000000    0.000000    0.000000
    0.005000    0.005015    0.005031    0.005099    0.005162    0.005254
    0.005484    0.005543    0.005773    0.006115    0.006263    0.006579
 Highest eigenvalues
    2.303352    2.447175    2.452386    2.474535    2.481750    2.486324
 

........................................................................
.............................. CYCLE    1 ..............................
........................................................................
   1   -185.1663126 -0.185166E+03  0.276E-04    0.64       0.0  T
   2   -185.1663126  0.198756E-08  0.266E-04    0.64      42.9  T
   3   -185.1663126 -0.560209E-08  0.112E-04    0.64     101.9  T
     SCC iter.                  ...        0 min,  0.026 sec
     gradient                   ...        0 min,  0.012 sec
 * total energy  :  -183.1712895 Eh     change        0.1120606E-06 Eh
   gradient norm :     0.2312720 Eh/α   predicted     0.0000000E+00 (-100.00%)
   displ. norm   :     0.3796616 α      lambda       -0.5105351E-01
   maximum displ.:     0.0756987 α      in ANC's #65, #54, #102, ...

........................................................................
.............................. CYCLE    2 ..............................
........................................................................
   1   -185.2321449 -0.185232E+03  0.302E-01    0.86       0.0  T
   2   -185.2331461 -0.100123E-02  0.168E-01    0.81       1.0  T
   3   -185.2328319  0.314226E-03  0.112E-01    0.81       1.0  T
   4   -185.2333661 -0.534287E-03  0.525E-02    0.79       1.0  T
   5   -185.2334802 -0.114057E-03  0.220E-02    0.79       1.0  T
   6   -185.2335123 -0.320834E-04  0.797E-03    0.79       1.4  T
   7   -185.2335143 -0.196972E-05  0.402E-03    0.79       2.8  T
   8   -185.2335149 -0.647247E-06  0.193E-03    0.79       5.9  T
     SCC iter.                  ...        0 min,  0.064 sec
     gradient                   ...        0 min,  0.011 sec
 * total energy  :  -183.2072264 Eh     change       -0.3593693E-01 Eh
   gradient norm :     0.1007868 Eh/α   predicted    -0.2920638E-01 ( -18.73%)
   displ. norm   :     0.4526387 α      lambda       -0.1991854E-01
   maximum displ.:     0.1253601 α      in ANC's #14, #42, #37, ...

........................................................................
.............................. CYCLE    3 ..............................
........................................................................
   1   -185.2602674 -0.185260E+03  0.290E-01    0.90       0.0  T
   2   -185.2607024 -0.435013E-03  0.167E-01    0.87       1.0  T
   3   -185.2602857  0.416778E-03  0.106E-01    0.87       1.0  T
   4   -185.2608504 -0.564774E-03  0.372E-02    0.86       1.0  T
   5   -185.2609044 -0.539197E-04  0.161E-02    0.86       1.0  T
   6   -185.2609184 -0.140310E-04  0.638E-03    0.86       1.8  T
   7   -185.2609193 -0.951942E-06  0.362E-03    0.86       3.2  T
   8   -185.2609199 -0.527198E-06  0.149E-03    0.86       7.6  T
     SCC iter.                  ...        0 min,  0.065 sec
     gradient                   ...        0 min,  0.011 sec
 * total energy  :  -183.2183287 Eh     change       -0.1110232E-01 Eh
   gradient norm :     0.0326665 Eh/α   predicted    -0.1199975E-01 (   8.08%)
   displ. norm   :     0.5037894 α      lambda       -0.7574880E-02
   maximum displ.:     0.2192370 α      in ANC's #14, #43, #31, ...

........................................................................
.............................. CYCLE    4 ..............................
........................................................................
   1   -185.2505937 -0.185251E+03  0.302E-01    0.84       0.0  T
   2   -185.2507408 -0.147180E-03  0.175E-01    0.87       1.0  T
   3   -185.2505612  0.179617E-03  0.622E-02    0.86       1.0  T
   4   -185.2507713 -0.210042E-03  0.227E-02    0.86       1.0  T
   5   -185.2507959 -0.246252E-04  0.121E-02    0.87       1.0  T
   6   -185.2508021 -0.625204E-05  0.515E-03    0.86       2.2  T
   7   -185.2508033 -0.112563E-05  0.252E-03    0.86       4.5  T
   8   -185.2508035 -0.224645E-06  0.108E-03    0.86      10.5  T
     SCC iter.                  ...        0 min,  0.064 sec
     gradient                   ...        0 min,  0.011 sec
 * total energy  :  -183.2231027 Eh     change       -0.4773971E-02 Eh
   gradient norm :     0.0279861 Eh/α   predicted    -0.4748706E-02 (  -0.53%)
   displ. norm   :     0.5760828 α      lambda       -0.5267525E-02
   maximum displ.:     0.2734700 α      in ANC's #14, #24, #43, ...

........................................................................
.............................. CYCLE    5 ..............................
........................................................................
   1   -185.2336312 -0.185234E+03  0.326E-01    0.79       0.0  T
   2   -185.2338782 -0.247047E-03  0.186E-01    0.82       1.0  T
   3   -185.2333515  0.526763E-03  0.979E-02    0.82       1.0  T
   4   -185.2339371 -0.585635E-03  0.324E-02    0.83       1.0  T
   5   -185.2340033 -0.662050E-04  0.153E-02    0.83       1.0  T
   6   -185.2340142 -0.109020E-04  0.621E-03    0.83       1.8  T
   7   -185.2340155 -0.132177E-05  0.296E-03    0.83       3.9  T
   8   -185.2340158 -0.308850E-06  0.125E-03    0.83       9.2  T
     SCC iter.                  ...        0 min,  0.064 sec
     gradient                   ...        0 min,  0.011 sec
 * total energy  :  -183.2268511 Eh     change       -0.3748371E-02 Eh
   gradient norm :     0.0342554 Eh/α   predicted    -0.3507849E-02 (  -6.42%)
   displ. norm   :     0.5871970 α      lambda       -0.4442533E-02
   maximum displ.:     0.2692032 α      in ANC's #14, #11, #24, ...

........................................................................
.............................. CYCLE    6 ..............................
........................................................................
   1   -185.2277356 -0.185228E+03  0.307E-01    0.75       0.0  T
   2   -185.2279131 -0.177503E-03  0.171E-01    0.78       1.0  T
   3   -185.2275322  0.380842E-03  0.863E-02    0.79       1.0  T
   4   -185.2279708 -0.438623E-03  0.285E-02    0.79       1.0  T
   5   -185.2280115 -0.406166E-04  0.147E-02    0.80       1.0  T
   6   -185.2280197 -0.821270E-05  0.650E-03    0.79       1.8  T
   7   -185.2280223 -0.258843E-05  0.211E-03    0.79       5.4  T
   8   -185.2280223 -0.683804E-07  0.122E-03    0.79       9.3  T
     SCC iter.                  ...        0 min,  0.064 sec
     gradient                   ...        0 min,  0.011 sec
 * total energy  :  -183.2301089 Eh     change       -0.3257837E-02 Eh
   gradient norm :     0.0375790 Eh/α   predicted    -0.2987171E-02 (  -8.31%)
   displ. norm   :     0.6382063 α      lambda       -0.5006477E-02
   maximum displ.:     0.2560555 α      in ANC's #14, #11, #24, ...

........................................................................
.............................. CYCLE    7 ..............................
........................................................................
   1   -185.2355065 -0.185236E+03  0.329E-01    0.75       0.0  T
   2   -185.2357913 -0.284849E-03  0.178E-01    0.81       1.0  T
   3   -185.2355659  0.225436E-03  0.807E-02    0.80       1.0  T
   4   -185.2358497 -0.283810E-03  0.307E-02    0.82       1.0  T
   5   -185.2358875 -0.378394E-04  0.164E-02    0.82       1.0  T
   6   -185.2358987 -0.111550E-04  0.643E-03    0.82       1.8  T
   7   -185.2359011 -0.237909E-05  0.268E-03    0.82       4.3  T
   8   -185.2359014 -0.310770E-06  0.125E-03    0.82       9.1  T
     SCC iter.                  ...        0 min,  0.065 sec
     gradient                   ...        0 min,  0.011 sec
 * total energy  :  -183.2338900 Eh     change       -0.3781123E-02 Eh
   gradient norm :     0.0307650 Eh/α   predicted    -0.3522831E-02 (  -6.83%)
   displ. norm   :     0.7046878 α      lambda       -0.5116066E-02
   maximum displ.:     0.2812991 α      in ANC's #14, #43, #11, ...

........................................................................
.............................. CYCLE    8 ..............................
........................................................................
   1   -185.2437482 -0.185244E+03  0.406E-01    0.79       0.0  T
   2   -185.2441033 -0.355062E-03  0.223E-01    0.86       1.0  T
   3   -185.2433216  0.781706E-03  0.123E-01    0.83       1.0  T
   4   -185.2442475 -0.925900E-03  0.368E-02    0.87       1.0  T
   5   -185.2443011 -0.536593E-04  0.197E-02    0.87       1.0  T
   6   -185.2443192 -0.180882E-04  0.809E-03    0.86       1.4  T
   7   -185.2443229 -0.362305E-05  0.302E-03    0.86       3.8  T
   8   -185.2443231 -0.195582E-06  0.176E-03    0.86       6.5  T
     SCC iter.                  ...        0 min,  0.064 sec
     gradient                   ...        0 min,  0.011 sec
 * total energy  :  -183.2378828 Eh     change       -0.3992783E-02 Eh
   gradient norm :     0.0345095 Eh/α   predicted    -0.3828318E-02 (  -4.12%)
   displ. norm   :     0.6963059 α      lambda       -0.5446199E-02
   maximum displ.:     0.2291303 α      in ANC's #14, #43, #11, ...

........................................................................
.............................. CYCLE    9 ..............................
........................................................................
   1   -185.2583104 -0.185258E+03  0.402E-01    0.78       0.0  T
   2   -185.2588530 -0.542594E-03  0.220E-01    0.88       1.0  T
   3   -185.2581088  0.744228E-03  0.131E-01    0.84       1.0  T
   4   -185.2590841 -0.975297E-03  0.436E-02    0.89       1.0  T
   5   -185.2591833 -0.992401E-04  0.203E-02    0.88       1.0  T
   6   -185.2591974 -0.140584E-04  0.104E-02    0.88       1.1  T
   7   -185.2592048 -0.739649E-05  0.325E-03    0.88       3.5  T
   8   -185.2592050 -0.202359E-06  0.191E-03    0.88       6.0  T
   9   -185.2592051 -0.136914E-06  0.101E-03    0.88      11.3  T
     SCC iter.                  ...        0 min,  0.074 sec
     gradient                   ...        0 min,  0.013 sec
 * total energy  :  -183.2418304 Eh     change       -0.3947596E-02 Eh
   gradient norm :     0.0370904 Eh/α   predicted    -0.4043372E-02 (   2.43%)
   displ. norm   :     0.7599810 α      lambda       -0.5647542E-02
   maximum displ.:     0.2579501 α      in ANC's #24, #43, #14, ...

........................................................................
.............................. CYCLE   10 ..............................
........................................................................
   1   -185.2481816 -0.185248E+03  0.459E-01    0.76       0.0  T
   2   -185.2489468 -0.765247E-03  0.262E-01    0.89       1.0  T
   3   -185.2474531  0.149374E-02  0.179E-01    0.82       1.0  T
   4   -185.2494613 -0.200824E-02  0.512E-02    0.87       1.0  T
   5   -185.2496042 -0.142850E-03  0.233E-02    0.87       1.0  T
   6   -185.2496270 -0.228480E-04  0.110E-02    0.87       1.0  T
   7   -185.2496330 -0.603980E-05  0.432E-03    0.87       2.6  T
   8   -185.2496335 -0.447264E-06  0.233E-03    0.87       4.9  T
   9   -185.2496337 -0.196163E-06  0.128E-03    0.87       8.9  T
     SCC iter.                  ...        0 min,  0.069 sec
     gradient                   ...        0 min,  0.011 sec
 * total energy  :  -183.2460840 Eh     change       -0.4253567E-02 Eh
   gradient norm :     0.0423964 Eh/α   predicted    -0.4454704E-02 (   4.73%)
   displ. norm   :     0.6500835 α      lambda       -0.5859721E-02
   maximum displ.:     0.1925018 α      in ANC's #10, #16, #7, ...

........................................................................
.............................. CYCLE   11 ..............................
........................................................................
   1   -185.2491831 -0.185249E+03  0.401E-01    0.81       0.0  T
   2   -185.2500492 -0.866107E-03  0.222E-01    0.85       1.0  T
   3   -185.2493806  0.668522E-03  0.141E-01    0.82       1.0  T
   4   -185.2502226 -0.841946E-03  0.622E-02    0.85       1.0  T
   5   -185.2505341 -0.311541E-03  0.204E-02    0.84       1.0  T
   6   -185.2505467 -0.125705E-04  0.109E-02    0.84       1.0  T
   7   -185.2505533 -0.656221E-05  0.449E-03    0.84       2.5  T
   8   -185.2505537 -0.486390E-06  0.262E-03    0.84       4.4  T
   9   -185.2505541 -0.389192E-06  0.130E-03    0.84       8.8  T
     SCC iter.                  ...        0 min,  0.070 sec
     gradient                   ...        0 min,  0.011 sec
 * total energy  :  -183.2482356 Eh     change       -0.2151661E-02 Eh
   gradient norm :     0.0664736 Eh/α   predicted    -0.4168048E-02 (  93.71%)
   displ. norm   :     0.5376115 α      lambda       -0.7108254E-02
   maximum displ.:     0.1620832 α      in ANC's #21, #11, #24, ...

........................................................................
.............................. CYCLE   12 ..............................
........................................................................
   1   -185.2407546 -0.185241E+03  0.343E-01    0.86       0.0  T
   2   -185.2416023 -0.847613E-03  0.196E-01    0.88       1.0  T
   3   -185.2412750  0.327282E-03  0.127E-01    0.87       1.0  T
   4   -185.2418353 -0.560297E-03  0.586E-02    0.87       1.0  T
   5   -185.2420908 -0.255536E-03  0.182E-02    0.87       1.0  T
   6   -185.2421030 -0.121975E-04  0.927E-03    0.87       1.2  T
   7   -185.2421070 -0.398569E-05  0.409E-03    0.87       2.8  T
   8   -185.2421073 -0.342326E-06  0.224E-03    0.87       5.1  T
     SCC iter.                  ...        0 min,  0.062 sec
     gradient                   ...        0 min,  0.011 sec
 * total energy  :  -183.2522471 Eh     change       -0.4011496E-02 Eh
   gradient norm :     0.0499370 Eh/α   predicted    -0.4581368E-02 (  14.21%)
   displ. norm   :     0.5437203 α      lambda       -0.7750923E-02
   maximum displ.:     0.1896444 α      in ANC's #40, #23, #11, ...

........................................................................
.............................. CYCLE   13 ..............................
........................................................................
   1   -185.2379640 -0.185238E+03  0.405E-01    0.81       0.0  T
   2   -185.2405142 -0.255024E-02  0.246E-01    0.87       1.0  T
   3   -185.2410094 -0.495195E-03  0.145E-01    0.84       1.0  T
   4   -185.2412343 -0.224925E-03  0.756E-02    0.86       1.0  T
   5   -185.2416269 -0.392608E-03  0.322E-02    0.85       1.0  T
   6   -185.2417026 -0.757008E-04  0.132E-02    0.85       1.0  T
   7   -185.2417121 -0.946622E-05  0.651E-03    0.85       1.8  T
   8   -185.2417126 -0.508544E-06  0.338E-03    0.85       3.4  T
   9   -185.2417132 -0.613237E-06  0.152E-03    0.85       7.5  T
     SCC iter.                  ...        0 min,  0.071 sec
     gradient                   ...        0 min,  0.011 sec
 * total energy  :  -183.2512363 Eh     change        0.1010863E-02 Eh
   gradient norm :     0.0949820 Eh/α   predicted    -0.5021174E-02 (-596.72%)
   displ. norm   :     0.3246364 α      lambda       -0.9831106E-02
   maximum displ.:     0.1193066 α      in ANC's #10, #7, #16, ...

........................................................................
.............................. CYCLE   14 ..............................
........................................................................
   1   -185.2538258 -0.185254E+03  0.251E-01    0.89       0.0  T
   2   -185.2548907 -0.106493E-02  0.143E-01    0.88       1.0  T
   3   -185.2550351 -0.144374E-03  0.806E-02    0.88       1.0  T
   4   -185.2550317  0.342135E-05  0.437E-02    0.88       1.0  T
   5   -185.2551466 -0.114953E-03  0.187E-02    0.88       1.0  T
   6   -185.2551672 -0.205714E-04  0.678E-03    0.88       1.7  T
   7   -185.2551687 -0.146356E-05  0.378E-03    0.88       3.0  T
   8   -185.2551690 -0.278704E-06  0.164E-03    0.88       6.9  T
     SCC iter.                  ...        0 min,  0.063 sec
     gradient                   ...        0 min,  0.011 sec
 * total energy  :  -183.2569941 Eh     change       -0.5757798E-02 Eh
   gradient norm :     0.0313678 Eh/α   predicted    -0.5433610E-02 (  -5.63%)
   displ. norm   :     0.6543982 α      lambda       -0.4540164E-02
   maximum displ.:     0.2119180 α      in ANC's #7, #14, #10, ...

........................................................................
.............................. CYCLE   15 ..............................
........................................................................
   1   -185.2299367 -0.185230E+03  0.411E-01    0.78       0.0  T
   2   -185.2308884 -0.951744E-03  0.232E-01    0.81       1.0  T
   3   -185.2300160  0.872394E-03  0.161E-01    0.82       1.0  T
   4   -185.2311071 -0.109109E-02  0.721E-02    0.82       1.0  T
   5   -185.2315127 -0.405613E-03  0.210E-02    0.82       1.0  T
   6   -185.2315305 -0.177868E-04  0.100E-02    0.82       1.1  T
   7   -185.2315342 -0.370924E-05  0.498E-03    0.82       2.3  T
   8   -185.2315351 -0.845350E-06  0.242E-03    0.82       4.7  T
     SCC iter.                  ...        0 min,  0.063 sec
     gradient                   ...        0 min,  0.011 sec
 * total energy  :  -183.2573910 Eh     change       -0.3969602E-03 Eh
   gradient norm :     0.0703552 Eh/α   predicted    -0.3242223E-02 ( 716.76%)
   displ. norm   :     0.3490221 α      lambda       -0.6695232E-02
   maximum displ.:     0.1303492 α      in ANC's #10, #7, #16, ...

........................................................................
.............................. CYCLE   16 ..............................
........................................................................
   1   -185.2666071 -0.185267E+03  0.214E-01    0.91       0.0  T
   2   -185.2673062 -0.699072E-03  0.115E-01    0.89       1.0  T
   3   -185.2673210 -0.148542E-04  0.656E-02    0.89       1.0  T
   4   -185.2673458 -0.247877E-04  0.365E-02    0.89       1.0  T
   5   -185.2674119 -0.661150E-04  0.170E-02    0.89       1.0  T
   6   -185.2674323 -0.203619E-04  0.560E-03    0.89       2.0  T
   7   -185.2674334 -0.111166E-05  0.321E-03    0.89       3.5  T
   8   -185.2674338 -0.333705E-06  0.137E-03    0.89       8.3  T
     SCC iter.                  ...        0 min,  0.063 sec
     gradient                   ...        0 min,  0.011 sec
 * total energy  :  -183.2603911 Eh     change       -0.3000098E-02 Eh
   gradient norm :     0.0410974 Eh/α   predicted    -0.3755426E-02 (  25.18%)
   displ. norm   :     0.5609957 α      lambda       -0.7423178E-02
   maximum displ.:     0.2025858 α      in ANC's #16, #43, #7, ...

........................................................................
.............................. CYCLE   17 ..............................
........................................................................
   1   -185.2510083 -0.185251E+03  0.424E-01    0.84       0.0  T
   2   -185.2532001 -0.219178E-02  0.236E-01    0.86       1.0  T
   3   -185.2533652 -0.165139E-03  0.137E-01    0.85       1.0  T
   4   -185.2536031 -0.237883E-03  0.617E-02    0.86       1.0  T
   5   -185.2538502 -0.247136E-03  0.262E-02    0.86       1.0  T
   6   -185.2538916 -0.414077E-04  0.123E-02    0.86       1.0  T
   7   -185.2539006 -0.896721E-05  0.560E-03    0.86       2.0  T
   8   -185.2539013 -0.689553E-06  0.267E-03    0.86       4.3  T
   9   -185.2539015 -0.249092E-06  0.134E-03    0.86       8.5  T
     SCC iter.                  ...        0 min,  0.071 sec
     gradient                   ...        0 min,  0.011 sec
 * total energy  :  -183.2566949 Eh     change        0.3696232E-02 Eh
   gradient norm :     0.1042145 Eh/α   predicted    -0.4879697E-02 (-232.02%)
   displ. norm   :     0.2506502 α      lambda       -0.1202920E-01
   maximum displ.:     0.0852595 α      in ANC's #42, #43, #40, ...

........................................................................
.............................. CYCLE   18 ..............................
........................................................................
   1   -185.2627638 -0.185263E+03  0.257E-01    0.87       0.0  T
   2   -185.2642512 -0.148739E-02  0.147E-01    0.87       1.0  T
   3   -185.2646036 -0.352385E-03  0.809E-02    0.87       1.0  T
   4   -185.2645151  0.885143E-04  0.438E-02    0.86       1.0  T
   5   -185.2646624 -0.147304E-03  0.182E-02    0.87       1.0  T
   6   -185.2646852 -0.228205E-04  0.719E-03    0.87       1.6  T
   7   -185.2646874 -0.216156E-05  0.391E-03    0.87       2.9  T
   8   -185.2646875 -0.130628E-06  0.190E-03    0.87       6.0  T
     SCC iter.                  ...        0 min,  0.064 sec
     gradient                   ...        0 min,  0.011 sec
 * total energy  :  -183.2626523 Eh     change       -0.5957376E-02 Eh
   gradient norm :     0.0354289 Eh/α   predicted    -0.6392491E-02 (   7.30%)
   displ. norm   :     0.4688126 α      lambda       -0.5763867E-02
   maximum displ.:     0.1541344 α      in ANC's #7, #44, #10, ...

........................................................................
.............................. CYCLE   19 ..............................
........................................................................
   1   -185.2466659 -0.185247E+03  0.388E-01    0.83       0.0  T
   2   -185.2489241 -0.225818E-02  0.216E-01    0.84       1.0  T
   3   -185.2492724 -0.348346E-03  0.124E-01    0.85       1.0  T
   4   -185.2493101 -0.376602E-04  0.580E-02    0.84       1.0  T
   5   -185.2494736 -0.163536E-03  0.311E-02    0.85       1.0  T
   6   -185.2495496 -0.759463E-04  0.915E-03    0.85       1.2  T
   7   -185.2495511 -0.150515E-05  0.586E-03    0.85       1.9  T
   8   -185.2495519 -0.880644E-06  0.255E-03    0.85       4.5  T
     SCC iter.                  ...        0 min,  0.064 sec
     gradient                   ...        0 min,  0.011 sec
 * total energy  :  -183.2582591 Eh     change        0.4393163E-02 Eh
   gradient norm :     0.0992802 Eh/α   predicted    -0.3515356E-02 (-180.02%)
   displ. norm   :     0.2463308 α      lambda       -0.1158643E-01
   maximum displ.:     0.0825431 α      in ANC's #41, #32, #44, ...

........................................................................
.............................. CYCLE   20 ..............................
........................................................................
   1   -185.2589252 -0.185259E+03  0.246E-01    0.86       0.0  T
   2   -185.2601697 -0.124452E-02  0.137E-01    0.86       1.0  T
   3   -185.2604312 -0.261540E-03  0.758E-02    0.86       1.0  T
   4   -185.2603930  0.382052E-04  0.369E-02    0.86       1.0  T
   5   -185.2604753 -0.822919E-04  0.184E-02    0.86       1.0  T
   6   -185.2605021 -0.267574E-04  0.593E-03    0.86       1.9  T
   7   -185.2605032 -0.110118E-05  0.364E-03    0.86       3.1  T
   8   -185.2605034 -0.240569E-06  0.143E-03    0.86       8.0  T
     SCC iter.                  ...        0 min,  0.064 sec
     gradient                   ...        0 min,  0.011 sec
 * total energy  :  -183.2642051 Eh     change       -0.5945967E-02 Eh
   gradient norm :     0.0240391 Eh/α   predicted    -0.6144758E-02 (   3.34%)
   displ. norm   :     0.3586686 α      lambda       -0.2824581E-02
   maximum displ.:     0.1255126 α      in ANC's #16, #7, #10, ...
 * RMSD in coord.:     0.8911662 α      energy gain  -0.9291548E-01 Eh

generating ANC from model Hessian ...
Using Lindh-Hessian (1995)
 Shifting diagonal of input Hessian by   5.009143871457284E-003
 Lowest  eigenvalues of input Hessian
    0.005000   -0.000000   -0.000000   -0.000000   -0.000000    0.000000
    0.000000    0.005040    0.005050    0.005151    0.005232    0.005285
    0.005489    0.005805    0.006010    0.006208    0.006343    0.006708
 Highest eigenvalues
    2.376338    2.611835    2.615621    2.647630    2.697042    2.756671
 

........................................................................
.............................. CYCLE   21 ..............................
........................................................................
   1   -185.2689700 -0.185269E+03  0.271E-01    0.85       0.0  T
   2   -185.2699528 -0.982737E-03  0.147E-01    0.85       1.0  T
   3   -185.2700886 -0.135861E-03  0.835E-02    0.85       1.0  T
   4   -185.2700678  0.208416E-04  0.431E-02    0.85       1.0  T
   5   -185.2702154 -0.147571E-03  0.180E-02    0.85       1.0  T
   6   -185.2702367 -0.213590E-04  0.634E-03    0.85       1.8  T
   7   -185.2702377 -0.102229E-05  0.369E-03    0.85       3.1  T
   8   -185.2702381 -0.375537E-06  0.163E-03    0.85       7.0  T
   9   -185.2702382 -0.110033E-06  0.948E-04    0.85      12.0  T
  10   -185.2702383 -0.280620E-07  0.459E-04    0.85      24.8  T
     SCC iter.                  ...        0 min,  0.079 sec
     gradient                   ...        0 min,  0.012 sec
 * total energy  :  -183.2622123 Eh     change        0.1992819E-02 Eh
   gradient norm :     0.0735382 Eh/α   predicted     0.0000000E+00 (-100.00%)
   displ. norm   :     0.2533044 α      lambda       -0.5563296E-02
   maximum displ.:     0.0974220 α      in ANC's #8, #11, #7, ...

........................................................................
.............................. CYCLE   22 ..............................
........................................................................
   1   -185.2665364 -0.185267E+03  0.195E-01    0.85       0.0  T
   2   -185.2667917 -0.255308E-03  0.108E-01    0.85       1.0  T
   3   -185.2667454  0.462440E-04  0.602E-02    0.85       1.0  T
   4   -185.2668025 -0.571187E-04  0.273E-02    0.85       1.0  T
   5   -185.2668593 -0.567907E-04  0.120E-02    0.85       1.0  T
   6   -185.2668690 -0.962431E-05  0.470E-03    0.85       2.4  T
   7   -185.2668696 -0.665423E-06  0.279E-03    0.85       4.1  T
   8   -185.2668699 -0.318372E-06  0.108E-03    0.85      10.5  T
     SCC iter.                  ...        0 min,  0.064 sec
     gradient                   ...        0 min,  0.011 sec
 * total energy  :  -183.2652692 Eh     change       -0.3056892E-02 Eh
   gradient norm :     0.0230774 Eh/α   predicted    -0.2960130E-02 (  -3.17%)
   displ. norm   :     0.2603099 α      lambda       -0.1947572E-02
   maximum displ.:     0.1085795 α      in ANC's #8, #11, #18, ...

........................................................................
.............................. CYCLE   23 ..............................
........................................................................
   1   -185.2648447 -0.185265E+03  0.168E-01    0.85       0.0  T
   2   -185.2649591 -0.114361E-03  0.968E-02    0.85       1.0  T
   3   -185.2648140  0.145121E-03  0.579E-02    0.85       1.0  T
   4   -185.2649663 -0.152287E-03  0.255E-02    0.85       1.0  T
   5   -185.2650248 -0.585078E-04  0.875E-03    0.85       1.3  T
   6   -185.2650283 -0.347252E-05  0.411E-03    0.85       2.8  T
   7   -185.2650290 -0.710624E-06  0.184E-03    0.85       6.2  T
     SCC iter.                  ...        0 min,  0.056 sec
     gradient                   ...        0 min,  0.011 sec
 * total energy  :  -183.2661503 Eh     change       -0.8811582E-03 Eh
   gradient norm :     0.0136373 Eh/α   predicted    -0.1039812E-02 (  18.01%)
   displ. norm   :     0.2356063 α      lambda       -0.7112571E-03
   maximum displ.:     0.1153237 α      in ANC's #8, #11, #7, ...

........................................................................
.............................. CYCLE   24 ..............................
........................................................................
   1   -185.2648234 -0.185265E+03  0.111E-01    0.85       0.0  T
   2   -185.2648337 -0.103603E-04  0.615E-02    0.85       1.0  T
   3   -185.2648028  0.308792E-04  0.222E-02    0.85       1.0  T
   4   -185.2648365 -0.336633E-04  0.898E-03    0.85       1.3  T
   5   -185.2648392 -0.271415E-05  0.489E-03    0.85       2.3  T
   6   -185.2648403 -0.104687E-05  0.207E-03    0.85       5.5  T
   7   -185.2648406 -0.322760E-06  0.722E-04    0.85      15.8  T
     SCC iter.                  ...        0 min,  0.056 sec
     gradient                   ...        0 min,  0.011 sec
 * total energy  :  -183.2667668 Eh     change       -0.6165261E-03 Eh
   gradient norm :     0.0124292 Eh/α   predicted    -0.3753708E-03 ( -39.12%)
   displ. norm   :     0.6063979 α      lambda       -0.1570128E-02
   maximum displ.:     0.2907275 α      in ANC's #8, #11, #7, ...

........................................................................
.............................. CYCLE   25 ..............................
........................................................................
   1   -185.2631970 -0.185263E+03  0.280E-01    0.84       0.0  T
   2   -185.2632612 -0.642856E-04  0.155E-01    0.84       1.0  T
   3   -185.2630640  0.197237E-03  0.569E-02    0.85       1.0  T
   4   -185.2632865 -0.222534E-03  0.214E-02    0.84       1.0  T
   5   -185.2632957 -0.911010E-05  0.121E-02    0.84       1.0  T
   6   -185.2633029 -0.720939E-05  0.504E-03    0.84       2.3  T
   7   -185.2633045 -0.167327E-05  0.196E-03    0.84       5.8  T
   8   -185.2633046 -0.800630E-07  0.111E-03    0.84      10.3  T
     SCC iter.                  ...        0 min,  0.064 sec
     gradient                   ...        0 min,  0.011 sec
 * total energy  :  -183.2679306 Eh     change       -0.1163810E-02 Eh
   gradient norm :     0.0127046 Eh/α   predicted    -0.1073812E-02 (  -7.73%)
   displ. norm   :     0.6252708 α      lambda       -0.1248164E-02
   maximum displ.:     0.3144796 α      in ANC's #8, #11, #7, ...

........................................................................
.............................. CYCLE   26 ..............................
........................................................................
   1   -185.2616797 -0.185262E+03  0.263E-01    0.83       0.0  T
   2   -185.2617359 -0.561894E-04  0.145E-01    0.83       1.0  T
   3   -185.2615342  0.201671E-03  0.576E-02    0.84       1.0  T
   4   -185.2617554 -0.221166E-03  0.222E-02    0.83       1.0  T
   5   -185.2617691 -0.137166E-04  0.123E-02    0.84       1.0  T
   6   -185.2617753 -0.619103E-05  0.510E-03    0.83       2.2  T
   7   -185.2617772 -0.190698E-05  0.170E-03    0.83       6.7  T
   8   -185.2617772  0.779806E-08  0.116E-03    0.83       9.8  T
     SCC iter.                  ...        0 min,  0.064 sec
     gradient                   ...        0 min,  0.011 sec
 * total energy  :  -183.2689150 Eh     change       -0.9843348E-03 Eh
   gradient norm :     0.0164823 Eh/α   predicted    -0.8680786E-03 ( -11.81%)
   displ. norm   :     0.6347425 α      lambda       -0.1286064E-02
   maximum displ.:     0.3314666 α      in ANC's #8, #11, #7, ...

........................................................................
.............................. CYCLE   27 ..............................
........................................................................
   1   -185.2637186 -0.185264E+03  0.249E-01    0.83       0.0  T
   2   -185.2637850 -0.664009E-04  0.137E-01    0.83       1.0  T
   3   -185.2635875  0.197496E-03  0.562E-02    0.83       1.0  T
   4   -185.2637992 -0.211609E-03  0.227E-02    0.83       1.0  T
   5   -185.2638192 -0.200835E-04  0.116E-02    0.83       1.0  T
   6   -185.2638248 -0.554122E-05  0.458E-03    0.83       2.5  T
   7   -185.2638263 -0.149417E-05  0.184E-03    0.83       6.2  T
   8   -185.2638264 -0.113838E-06  0.105E-03    0.83      10.8  T
     SCC iter.                  ...        0 min,  0.064 sec
     gradient                   ...        0 min,  0.011 sec
 * total energy  :  -183.2699087 Eh     change       -0.9937674E-03 Eh
   gradient norm :     0.0117614 Eh/α   predicted    -0.9021113E-03 (  -9.22%)
   displ. norm   :     0.6851479 α      lambda       -0.1319766E-02
   maximum displ.:     0.3649206 α      in ANC's #8, #7, #11, ...

........................................................................
.............................. CYCLE   28 ..............................
........................................................................
   1   -185.2652763 -0.185265E+03  0.278E-01    0.82       0.0  T
   2   -185.2653450 -0.687470E-04  0.156E-01    0.82       1.0  T
   3   -185.2651618  0.183267E-03  0.563E-02    0.82       1.0  T
   4   -185.2653710 -0.209272E-03  0.208E-02    0.82       1.0  T
   5   -185.2653816 -0.105962E-04  0.114E-02    0.82       1.0  T
   6   -185.2653874 -0.580513E-05  0.488E-03    0.82       2.3  T
   7   -185.2653892 -0.176525E-05  0.187E-03    0.82       6.1  T
   8   -185.2653893 -0.534087E-07  0.109E-03    0.82      10.4  T
     SCC iter.                  ...        0 min,  0.064 sec
     gradient                   ...        0 min,  0.011 sec
 * total energy  :  -183.2708876 Eh     change       -0.9788138E-03 Eh
   gradient norm :     0.0134248 Eh/α   predicted    -0.9696516E-03 (  -0.94%)
   displ. norm   :     0.6370331 α      lambda       -0.1056053E-02
   maximum displ.:     0.3632937 α      in ANC's #8, #7, #11, ...

........................................................................
.............................. CYCLE   29 ..............................
........................................................................
   1   -185.2680007 -0.185268E+03  0.234E-01    0.82       0.0  T
   2   -185.2680540 -0.533249E-04  0.132E-01    0.82       1.0  T
   3   -185.2678787  0.175312E-03  0.523E-02    0.82       1.0  T
   4   -185.2680614 -0.182697E-03  0.214E-02    0.82       1.0  T
   5   -185.2680844 -0.229442E-04  0.102E-02    0.82       1.1  T
   6   -185.2680878 -0.341601E-05  0.443E-03    0.82       2.6  T
   7   -185.2680890 -0.125528E-05  0.169E-03    0.82       6.7  T
   8   -185.2680891 -0.297153E-07  0.103E-03    0.82      11.1  T
     SCC iter.                  ...        0 min,  0.067 sec
     gradient                   ...        0 min,  0.012 sec
 * total energy  :  -183.2717058 Eh     change       -0.8182528E-03 Eh
   gradient norm :     0.0108390 Eh/α   predicted    -0.7423065E-03 (  -9.28%)
   displ. norm   :     0.6460265 α      lambda       -0.1026040E-02
   maximum displ.:     0.3776086 α      in ANC's #8, #7, #11, ...

........................................................................
.............................. CYCLE   30 ..............................
........................................................................
   1   -185.2737716 -0.185274E+03  0.221E-01    0.83       0.0  T
   2   -185.2738255 -0.538678E-04  0.124E-01    0.82       1.0  T
   3   -185.2736725  0.152997E-03  0.451E-02    0.82       1.0  T
   4   -185.2738229 -0.150384E-03  0.205E-02    0.82       1.0  T
   5   -185.2738462 -0.233256E-04  0.103E-02    0.82       1.1  T
   6   -185.2738528 -0.658567E-05  0.374E-03    0.82       3.0  T
   7   -185.2738534 -0.571348E-06  0.209E-03    0.82       5.4  T
   8   -185.2738535 -0.165505E-06  0.117E-03    0.82       9.8  T
     SCC iter.                  ...        0 min,  0.064 sec
     gradient                   ...        0 min,  0.011 sec
 * total energy  :  -183.2724327 Eh     change       -0.7268412E-03 Eh
   gradient norm :     0.0154330 Eh/α   predicted    -0.7271416E-03 (   0.04%)
   displ. norm   :     0.7392525 α      lambda       -0.1131467E-02
   maximum displ.:     0.4275205 α      in ANC's #8, #7, #11, ...

........................................................................
.............................. CYCLE   31 ..............................
........................................................................
   1   -185.2633113 -0.185263E+03  0.295E-01    0.82       0.0  T
   2   -185.2634079 -0.965858E-04  0.165E-01    0.81       1.0  T
   3   -185.2630496  0.358268E-03  0.707E-02    0.82       1.0  T
   4   -185.2634164 -0.366816E-03  0.275E-02    0.81       1.0  T
   5   -185.2634509 -0.344671E-04  0.134E-02    0.82       1.0  T
   6   -185.2634600 -0.917697E-05  0.507E-03    0.82       2.2  T
   7   -185.2634609 -0.811669E-06  0.273E-03    0.82       4.2  T
   8   -185.2634612 -0.353290E-06  0.141E-03    0.82       8.1  T
     SCC iter.                  ...        0 min,  0.065 sec
     gradient                   ...        0 min,  0.011 sec
 * total energy  :  -183.2731419 Eh     change       -0.7092191E-03 Eh
   gradient norm :     0.0197843 Eh/α   predicted    -0.8749067E-03 (  23.36%)
   displ. norm   :     0.4804801 α      lambda       -0.1147914E-02
   maximum displ.:     0.2830755 α      in ANC's #8, #7, #6, ...

........................................................................
.............................. CYCLE   32 ..............................
........................................................................
   1   -185.2716512 -0.185272E+03  0.185E-01    0.82       0.0  T
   2   -185.2717220 -0.707449E-04  0.104E-01    0.82       1.0  T
   3   -185.2715780  0.143973E-03  0.493E-02    0.82       1.0  T
   4   -185.2717012 -0.123199E-03  0.245E-02    0.82       1.0  T
   5   -185.2717530 -0.518230E-04  0.102E-02    0.82       1.1  T
   6   -185.2717571 -0.407299E-05  0.440E-03    0.82       2.6  T
   7   -185.2717581 -0.102594E-05  0.171E-03    0.82       6.7  T
   8   -185.2717582 -0.735938E-07  0.106E-03    0.82      10.7  T
     SCC iter.                  ...        0 min,  0.064 sec
     gradient                   ...        0 min,  0.011 sec
 * total energy  :  -183.2738045 Eh     change       -0.6625978E-03 Eh
   gradient norm :     0.0186625 Eh/α   predicted    -0.7064619E-03 (   6.62%)
   displ. norm   :     0.5819864 α      lambda       -0.1153752E-02
   maximum displ.:     0.3625450 α      in ANC's #8, #7, #10, ...

........................................................................
.............................. CYCLE   33 ..............................
........................................................................
   1   -185.2678747 -0.185268E+03  0.218E-01    0.82       0.0  T
   2   -185.2679728 -0.981005E-04  0.123E-01    0.82       1.0  T
   3   -185.2678800  0.928609E-04  0.458E-02    0.82       1.0  T
   4   -185.2679764 -0.964205E-04  0.204E-02    0.81       1.0  T
   5   -185.2679949 -0.184661E-04  0.121E-02    0.82       1.0  T
   6   -185.2680036 -0.869909E-05  0.520E-03    0.82       2.2  T
   7   -185.2680051 -0.158399E-05  0.226E-03    0.82       5.0  T
   8   -185.2680053 -0.167695E-06  0.122E-03    0.82       9.3  T
     SCC iter.                  ...        0 min,  0.064 sec
     gradient                   ...        0 min,  0.011 sec
 * total energy  :  -183.2744454 Eh     change       -0.6409180E-03 Eh
   gradient norm :     0.0199114 Eh/α   predicted    -0.7722693E-03 (  20.49%)
   displ. norm   :     0.4817893 α      lambda       -0.1133929E-02
   maximum displ.:     0.2774656 α      in ANC's #8, #6, #9, ...

........................................................................
.............................. CYCLE   34 ..............................
........................................................................
   1   -185.2736959 -0.185274E+03  0.185E-01    0.83       0.0  T
   2   -185.2738049 -0.109039E-03  0.106E-01    0.82       1.0  T
   3   -185.2736759  0.129065E-03  0.523E-02    0.82       1.0  T
   4   -185.2738207 -0.144837E-03  0.200E-02    0.82       1.0  T
   5   -185.2738462 -0.254757E-04  0.999E-03    0.82       1.1  T
   6   -185.2738508 -0.461026E-05  0.524E-03    0.82       2.2  T
   7   -185.2738528 -0.206150E-05  0.208E-03    0.82       5.5  T
   8   -185.2738530 -0.127422E-06  0.128E-03    0.82       8.9  T
     SCC iter.                  ...        0 min,  0.064 sec
     gradient                   ...        0 min,  0.011 sec
 * total energy  :  -183.2750199 Eh     change       -0.5744940E-03 Eh
   gradient norm :     0.0196191 Eh/α   predicted    -0.6985760E-03 (  21.60%)
   displ. norm   :     0.6154244 α      lambda       -0.9927645E-03
   maximum displ.:     0.3832428 α      in ANC's #8, #7, #5, ...

........................................................................
.............................. CYCLE   35 ..............................
........................................................................
   1   -185.2621783 -0.185262E+03  0.240E-01    0.81       0.0  T
   2   -185.2623213 -0.143008E-03  0.136E-01    0.81       1.0  T
   3   -185.2621363  0.184952E-03  0.661E-02    0.81       1.0  T
   4   -185.2622914 -0.155032E-03  0.342E-02    0.81       1.0  T
   5   -185.2623776 -0.862564E-04  0.123E-02    0.81       1.0  T
   6   -185.2623819 -0.424998E-05  0.555E-03    0.81       2.1  T
   7   -185.2623836 -0.170711E-05  0.243E-03    0.81       4.7  T
   8   -185.2623837 -0.149669E-06  0.141E-03    0.81       8.1  T
     SCC iter.                  ...        0 min,  0.064 sec
     gradient                   ...        0 min,  0.011 sec
 * total energy  :  -183.2753934 Eh     change       -0.3735543E-03 Eh
   gradient norm :     0.0250361 Eh/α   predicted    -0.6843872E-03 (  83.21%)
   displ. norm   :     0.2568992 α      lambda       -0.1084728E-02
   maximum displ.:     0.1370617 α      in ANC's #8, #5, #1, ...

........................................................................
.............................. CYCLE   36 ..............................
........................................................................
   1   -185.2717348 -0.185272E+03  0.124E-01    0.82       0.0  T
   2   -185.2718216 -0.867684E-04  0.674E-02    0.82       1.0  T
   3   -185.2716977  0.123868E-03  0.461E-02    0.82       1.0  T
   4   -185.2718181 -0.120410E-03  0.220E-02    0.82       1.0  T
   5   -185.2718539 -0.357944E-04  0.905E-03    0.82       1.3  T
   6   -185.2718585 -0.452222E-05  0.415E-03    0.82       2.7  T
   7   -185.2718592 -0.763122E-06  0.220E-03    0.82       5.2  T
     SCC iter.                  ...        0 min,  0.056 sec
     gradient                   ...        0 min,  0.011 sec
 * total energy  :  -183.2757787 Eh     change       -0.3852439E-03 Eh
   gradient norm :     0.0162563 Eh/α   predicted    -0.5781597E-03 (  50.08%)
   displ. norm   :     0.3794861 α      lambda       -0.9148808E-03
   maximum displ.:     0.2061303 α      in ANC's #8, #19, #5, ...

........................................................................
.............................. CYCLE   37 ..............................
........................................................................
   1   -185.2743812 -0.185274E+03  0.167E-01    0.82       0.0  T
   2   -185.2744463 -0.651151E-04  0.949E-02    0.82       1.0  T
   3   -185.2743186  0.127640E-03  0.483E-02    0.82       1.0  T
   4   -185.2744560 -0.137327E-03  0.177E-02    0.82       1.0  T
   5   -185.2744741 -0.181142E-04  0.886E-03    0.82       1.3  T
   6   -185.2744776 -0.349386E-05  0.424E-03    0.82       2.7  T
   7   -185.2744786 -0.969514E-06  0.192E-03    0.82       5.9  T
   8   -185.2744786 -0.923754E-07  0.118E-03    0.82       9.6  T
     SCC iter.                  ...        0 min,  0.064 sec
     gradient                   ...        0 min,  0.011 sec
 * total energy  :  -183.2761245 Eh     change       -0.3458305E-03 Eh
   gradient norm :     0.0176806 Eh/α   predicted    -0.5233200E-03 (  51.32%)
   displ. norm   :     0.3574987 α      lambda       -0.8730248E-03
   maximum displ.:     0.2199810 α      in ANC's #8, #10, #5, ...

........................................................................
.............................. CYCLE   38 ..............................
........................................................................
   1   -185.2694010 -0.185269E+03  0.150E-01    0.82       0.0  T
   2   -185.2695004 -0.994174E-04  0.829E-02    0.82       1.0  T
   3   -185.2694453  0.551352E-04  0.385E-02    0.81       1.0  T
   4   -185.2695022 -0.568878E-04  0.183E-02    0.81       1.0  T
   5   -185.2695213 -0.191632E-04  0.844E-03    0.82       1.4  T
   6   -185.2695244 -0.312903E-05  0.447E-03    0.81       2.6  T
   7   -185.2695254 -0.971244E-06  0.206E-03    0.82       5.5  T
   8   -185.2695256 -0.171348E-06  0.104E-03    0.82      10.9  T
     SCC iter.                  ...        0 min,  0.064 sec
     gradient                   ...        0 min,  0.011 sec
 * total energy  :  -183.2762995 Eh     change       -0.1750264E-03 Eh
   gradient norm :     0.0225985 Eh/α   predicted    -0.4923023E-03 ( 181.27%)
   displ. norm   :     0.2842431 α      lambda       -0.8662514E-03
   maximum displ.:     0.1625485 α      in ANC's #8, #5, #1, ...

........................................................................
.............................. CYCLE   39 ..............................
........................................................................
   1   -185.2710864 -0.185271E+03  0.139E-01    0.82       0.0  T
   2   -185.2711750 -0.885620E-04  0.785E-02    0.81       1.0  T
   3   -185.2710737  0.101291E-03  0.482E-02    0.82       1.0  T
   4   -185.2711766 -0.102905E-03  0.231E-02    0.81       1.0  T
   5   -185.2712128 -0.362593E-04  0.939E-03    0.81       1.2  T
   6   -185.2712174 -0.451397E-05  0.426E-03    0.81       2.7  T
   7   -185.2712183 -0.921956E-06  0.183E-03    0.81       6.2  T
     SCC iter.                  ...        0 min,  0.055 sec
     gradient                   ...        0 min,  0.011 sec
 * total energy  :  -183.2766559 Eh     change       -0.3563926E-03 Eh
   gradient norm :     0.0178589 Eh/α   predicted    -0.4681207E-03 (  31.35%)
   displ. norm   :     0.2284722 α      lambda       -0.7652087E-03
   maximum displ.:     0.1023787 α      in ANC's #1, #5, #8, ...

........................................................................
.............................. CYCLE   40 ..............................
........................................................................
   1   -185.2747821 -0.185275E+03  0.111E-01    0.82       0.0  T
   2   -185.2748817 -0.995808E-04  0.635E-02    0.82       1.0  T
   3   -185.2748723  0.934679E-05  0.331E-02    0.82       1.0  T
   4   -185.2748818 -0.945649E-05  0.165E-02    0.82       1.0  T
   5   -185.2749025 -0.207197E-04  0.794E-03    0.82       1.4  T
   6   -185.2749068 -0.424047E-05  0.338E-03    0.82       3.4  T
   7   -185.2749072 -0.471028E-06  0.174E-03    0.82       6.5  T
   8   -185.2749073 -0.112082E-06  0.842E-04    0.82      13.5  T
     SCC iter.                  ...        0 min,  0.064 sec
     gradient                   ...        0 min,  0.011 sec
 * total energy  :  -183.2767692 Eh     change       -0.1132716E-03 Eh
   gradient norm :     0.0179190 Eh/α   predicted    -0.4025795E-03 ( 255.41%)
   displ. norm   :     0.2225551 α      lambda       -0.7263737E-03
   maximum displ.:     0.1069585 α      in ANC's #8, #1, #5, ...

........................................................................
.............................. CYCLE   41 ..............................
........................................................................
   1   -185.2760779 -0.185276E+03  0.102E-01    0.82       0.0  T
   2   -185.2761153 -0.373993E-04  0.576E-02    0.82       1.0  T
   3   -185.2760775  0.377667E-04  0.295E-02    0.82       1.0  T
   4   -185.2761226 -0.451424E-04  0.114E-02    0.82       1.0  T
   5   -185.2761297 -0.703317E-05  0.552E-03    0.82       2.1  T
   6   -185.2761305 -0.824453E-06  0.350E-03    0.82       3.3  T
   7   -185.2761313 -0.758950E-06  0.123E-03    0.82       9.3  T
   8   -185.2761313 -0.498300E-07  0.649E-04    0.82      17.6  T
     SCC iter.                  ...        0 min,  0.064 sec
     gradient                   ...        0 min,  0.011 sec
 * total energy  :  -183.2772005 Eh     change       -0.4312783E-03 Eh
   gradient norm :     0.0119484 Eh/α   predicted    -0.3811799E-03 ( -11.62%)
   displ. norm   :     0.4670537 α      lambda       -0.6965751E-03
   maximum displ.:     0.2580666 α      in ANC's #8, #1, #10, ...

........................................................................
.............................. CYCLE   42 ..............................
........................................................................
   1   -185.2671615 -0.185267E+03  0.208E-01    0.81       0.0  T
   2   -185.2673162 -0.154688E-03  0.116E-01    0.81       1.0  T
   3   -185.2671965  0.119735E-03  0.635E-02    0.82       1.0  T
   4   -185.2673237 -0.127273E-03  0.303E-02    0.81       1.0  T
   5   -185.2673875 -0.637477E-04  0.111E-02    0.81       1.0  T
   6   -185.2673889 -0.144338E-05  0.693E-03    0.81       1.6  T
   7   -185.2673927 -0.381324E-05  0.206E-03    0.81       5.5  T
   8   -185.2673929 -0.127907E-06  0.133E-03    0.81       8.5  T
   9   -185.2673929 -0.776793E-07  0.714E-04    0.81      16.0  T
     SCC iter.                  ...        0 min,  0.072 sec
     gradient                   ...        0 min,  0.011 sec
 * total energy  :  -183.2771779 Eh     change        0.2262458E-04 Eh
   gradient norm :     0.0269073 Eh/α   predicted    -0.4242655E-03 (*******%)
   displ. norm   :     0.2585386 α      lambda       -0.1051670E-02
   maximum displ.:     0.1076192 α      in ANC's #7, #1, #5, ...
 * RMSD in coord.:     0.9763085 α      energy gain  -0.1297278E-01 Eh

generating ANC from model Hessian ...
Using Lindh-Hessian (1995)
 Shifting diagonal of input Hessian by   5.031787125752487E-003
 Lowest  eigenvalues of input Hessian
    0.005000   -0.000000   -0.000000   -0.000000    0.000000    0.000000
    0.000000    0.005057    0.005090    0.005165    0.005208    0.005390
    0.005619    0.005975    0.006255    0.006334    0.006533    0.006786
 Highest eigenvalues
    2.378316    2.621757    2.630919    2.649595    2.656267    2.722063
 

........................................................................
.............................. CYCLE   43 ..............................
........................................................................
   1   -185.2776737 -0.185278E+03  0.120E-01    0.82       0.0  T
   2   -185.2777790 -0.105304E-03  0.693E-02    0.82       1.0  T
   3   -185.2777775  0.142714E-05  0.359E-02    0.82       1.0  T
   4   -185.2778038 -0.262581E-04  0.134E-02    0.82       1.0  T
   5   -185.2778143 -0.104648E-04  0.641E-03    0.82       1.8  T
   6   -185.2778155 -0.125070E-05  0.366E-03    0.82       3.1  T
   7   -185.2778163 -0.787374E-06  0.154E-03    0.82       7.4  T
   8   -185.2778164 -0.723745E-07  0.907E-04    0.82      12.6  T
   9   -185.2778164 -0.327450E-07  0.517E-04    0.82      22.0  T
     SCC iter.                  ...        0 min,  0.073 sec
     gradient                   ...        0 min,  0.012 sec
 * total energy  :  -183.2777095 Eh     change       -0.5316803E-03 Eh
   gradient norm :     0.0146858 Eh/α   predicted     0.0000000E+00 (-100.00%)
   displ. norm   :     0.1527496 α      lambda       -0.5959718E-03
   maximum displ.:     0.0685667 α      in ANC's #10, #9, #38, ...

........................................................................
.............................. CYCLE   44 ..............................
........................................................................
   1   -185.2765090 -0.185277E+03  0.973E-02    0.82       0.0  T
   2   -185.2765244 -0.154462E-04  0.542E-02    0.82       1.0  T
   3   -185.2764986  0.258226E-04  0.208E-02    0.83       1.0  T
   4   -185.2765251 -0.264381E-04  0.973E-03    0.82       1.2  T
   5   -185.2765293 -0.426302E-05  0.553E-03    0.82       2.1  T
   6   -185.2765310 -0.170793E-05  0.254E-03    0.82       4.5  T
   7   -185.2765314 -0.394621E-06  0.104E-03    0.82      10.9  T
     SCC iter.                  ...        0 min,  0.056 sec
     gradient                   ...        0 min,  0.011 sec
 * total energy  :  -183.2781088 Eh     change       -0.3992133E-03 Eh
   gradient norm :     0.0061705 Eh/α   predicted    -0.3049390E-03 ( -23.62%)
   displ. norm   :     0.2096383 α      lambda       -0.4766377E-03
   maximum displ.:     0.0724914 α      in ANC's #10, #38, #9, ...

........................................................................
.............................. CYCLE   45 ..............................
........................................................................
   1   -185.2742519 -0.185274E+03  0.133E-01    0.83       0.0  T
   2   -185.2742759 -0.239965E-04  0.767E-02    0.83       1.0  T
   3   -185.2742021  0.738300E-04  0.329E-02    0.83       1.0  T
   4   -185.2742857 -0.836119E-04  0.962E-03    0.83       1.2  T
   5   -185.2742889 -0.326602E-05  0.594E-03    0.83       1.9  T
   6   -185.2742907 -0.174997E-05  0.316E-03    0.83       3.6  T
   7   -185.2742913 -0.570326E-06  0.130E-03    0.83       8.7  T
   8   -185.2742913 -0.408504E-07  0.629E-04    0.83      18.1  T
     SCC iter.                  ...        0 min,  0.064 sec
     gradient                   ...        0 min,  0.011 sec
 * total energy  :  -183.2784055 Eh     change       -0.2967181E-03 Eh
   gradient norm :     0.0079060 Eh/α   predicted    -0.2487935E-03 ( -16.15%)
   displ. norm   :     0.2816605 α      lambda       -0.3938246E-03
   maximum displ.:     0.0982985 α      in ANC's #10, #20, #9, ...

........................................................................
.............................. CYCLE   46 ..............................
........................................................................
   1   -185.2717472 -0.185272E+03  0.167E-01    0.83       0.0  T
   2   -185.2717792 -0.320382E-04  0.958E-02    0.82       1.0  T
   3   -185.2716859  0.933193E-04  0.372E-02    0.83       1.0  T
   4   -185.2717936 -0.107678E-03  0.112E-02    0.83       1.0  T
   5   -185.2717965 -0.295024E-05  0.756E-03    0.83       1.5  T
   6   -185.2717996 -0.302963E-05  0.357E-03    0.83       3.2  T
   7   -185.2718003 -0.758846E-06  0.148E-03    0.83       7.7  T
   8   -185.2718004 -0.508354E-07  0.688E-04    0.83      16.6  T
     SCC iter.                  ...        0 min,  0.064 sec
     gradient                   ...        0 min,  0.011 sec
 * total energy  :  -183.2786629 Eh     change       -0.2574620E-03 Eh
   gradient norm :     0.0131458 Eh/α   predicted    -0.2125348E-03 ( -17.45%)
   displ. norm   :     0.2838956 α      lambda       -0.3719878E-03
   maximum displ.:     0.1088407 α      in ANC's #9, #10, #38, ...

........................................................................
.............................. CYCLE   47 ..............................
........................................................................
   1   -185.2713213 -0.185271E+03  0.161E-01    0.83       0.0  T
   2   -185.2713479 -0.265813E-04  0.918E-02    0.82       1.0  T
   3   -185.2712594  0.884469E-04  0.359E-02    0.83       1.0  T
   4   -185.2713628 -0.103414E-03  0.102E-02    0.82       1.1  T
   5   -185.2713641 -0.125462E-05  0.679E-03    0.82       1.7  T
   6   -185.2713661 -0.202258E-05  0.343E-03    0.82       3.3  T
   7   -185.2713669 -0.785109E-06  0.139E-03    0.82       8.2  T
   8   -185.2713669 -0.483080E-07  0.731E-04    0.82      15.6  T
     SCC iter.                  ...        0 min,  0.064 sec
     gradient                   ...        0 min,  0.011 sec
 * total energy  :  -183.2789251 Eh     change       -0.2622168E-03 Eh
   gradient norm :     0.0129522 Eh/α   predicted    -0.2009852E-03 ( -23.35%)
   displ. norm   :     0.2670430 α      lambda       -0.4222592E-03
   maximum displ.:     0.1215351 α      in ANC's #9, #10, #1, ...

........................................................................
.............................. CYCLE   48 ..............................
........................................................................
   1   -185.2753090 -0.185275E+03  0.132E-01    0.83       0.0  T
   2   -185.2753363 -0.272745E-04  0.744E-02    0.82       1.0  T
   3   -185.2752782  0.581080E-04  0.300E-02    0.83       1.0  T
   4   -185.2753420 -0.638183E-04  0.112E-02    0.82       1.0  T
   5   -185.2753462 -0.419033E-05  0.656E-03    0.82       1.7  T
   6   -185.2753484 -0.225048E-05  0.296E-03    0.82       3.9  T
   7   -185.2753489 -0.456380E-06  0.137E-03    0.82       8.3  T
     SCC iter.                  ...        0 min,  0.056 sec
     gradient                   ...        0 min,  0.011 sec
 * total energy  :  -183.2791734 Eh     change       -0.2482125E-03 Eh
   gradient norm :     0.0062348 Eh/α   predicted    -0.2261872E-03 (  -8.87%)
   displ. norm   :     0.2605716 α      lambda       -0.1899002E-03
   maximum displ.:     0.1232474 α      in ANC's #9, #10, #38, ...

........................................................................
.............................. CYCLE   49 ..............................
........................................................................
   1   -185.2749580 -0.185275E+03  0.146E-01    0.82       0.0  T
   2   -185.2749787 -0.206969E-04  0.833E-02    0.82       1.0  T
   3   -185.2749077  0.710276E-04  0.322E-02    0.83       1.0  T
   4   -185.2749855 -0.777990E-04  0.104E-02    0.82       1.1  T
   5   -185.2749893 -0.384464E-05  0.653E-03    0.82       1.7  T
   6   -185.2749916 -0.225940E-05  0.285E-03    0.82       4.0  T
   7   -185.2749921 -0.510574E-06  0.103E-03    0.82      11.1  T
     SCC iter.                  ...        0 min,  0.057 sec
     gradient                   ...        0 min,  0.011 sec
 * total energy  :  -183.2792966 Eh     change       -0.1231973E-03 Eh
   gradient norm :     0.0066979 Eh/α   predicted    -0.1014017E-03 ( -17.69%)
   displ. norm   :     0.2077980 α      lambda       -0.1565006E-03
   maximum displ.:     0.1122171 α      in ANC's #9, #1, #2, ...

........................................................................
.............................. CYCLE   50 ..............................
........................................................................
   1   -185.2760708 -0.185276E+03  0.110E-01    0.82       0.0  T
   2   -185.2760798 -0.901180E-05  0.615E-02    0.82       1.0  T
   3   -185.2760173  0.624599E-04  0.283E-02    0.83       1.0  T
   4   -185.2760829 -0.655724E-04  0.868E-03    0.82       1.3  T
   5   -185.2760851 -0.219595E-05  0.513E-03    0.82       2.2  T
   6   -185.2760867 -0.167658E-05  0.167E-03    0.82       6.8  T
   7   -185.2760869 -0.160007E-06  0.666E-04    0.82      17.1  T
     SCC iter.                  ...        0 min,  0.056 sec
     gradient                   ...        0 min,  0.011 sec
 * total energy  :  -183.2793962 Eh     change       -0.9960191E-04 Eh
   gradient norm :     0.0040283 Eh/α   predicted    -0.8162987E-04 ( -18.04%)
   displ. norm   :     0.1866950 α      lambda       -0.9745903E-04
   maximum displ.:     0.1075558 α      in ANC's #9, #1, #2, ...

........................................................................
.............................. CYCLE   51 ..............................
........................................................................
   1   -185.2763200 -0.185276E+03  0.982E-02    0.82       0.0  T
   2   -185.2763283 -0.824684E-05  0.542E-02    0.82       1.0  T
   3   -185.2763117  0.165833E-04  0.172E-02    0.82       1.0  T
   4   -185.2763289 -0.171924E-04  0.808E-03    0.82       1.4  T
   5   -185.2763306 -0.174230E-05  0.528E-03    0.82       2.2  T
   6   -185.2763324 -0.181497E-05  0.185E-03    0.82       6.1  T
   7   -185.2763327 -0.291765E-06  0.534E-04    0.82      21.3  T
     SCC iter.                  ...        0 min,  0.056 sec
     gradient                   ...        0 min,  0.011 sec
 * total energy  :  -183.2794565 Eh     change       -0.6034514E-04 Eh
   gradient norm :     0.0042326 Eh/α   predicted    -0.5043795E-04 ( -16.42%)
   displ. norm   :     0.2001953 α      lambda       -0.7910305E-04
   maximum displ.:     0.1194024 α      in ANC's #9, #1, #2, ...

........................................................................
.............................. CYCLE   52 ..............................
........................................................................
   1   -185.2751477 -0.185275E+03  0.106E-01    0.82       0.0  T
   2   -185.2751578 -0.101446E-04  0.586E-02    0.82       1.0  T
   3   -185.2751296  0.282604E-04  0.208E-02    0.82       1.0  T
   4   -185.2751570 -0.273905E-04  0.980E-03    0.82       1.2  T
   5   -185.2751612 -0.428789E-05  0.546E-03    0.82       2.1  T
   6   -185.2751631 -0.183355E-05  0.204E-03    0.82       5.6  T
   7   -185.2751634 -0.323016E-06  0.677E-04    0.82      16.8  T
     SCC iter.                  ...        0 min,  0.057 sec
     gradient                   ...        0 min,  0.012 sec
 * total energy  :  -183.2794995 Eh     change       -0.4302393E-04 Eh
   gradient norm :     0.0046228 Eh/α   predicted    -0.4114159E-04 (  -4.38%)
   displ. norm   :     0.1674303 α      lambda       -0.9614878E-04
   maximum displ.:     0.0956683 α      in ANC's #9, #1, #2, ...

........................................................................
.............................. CYCLE   53 ..............................
........................................................................
   1   -185.2765481 -0.185277E+03  0.885E-02    0.83       0.0  T
   2   -185.2765612 -0.130860E-04  0.472E-02    0.83       1.0  T
   3   -185.2765467  0.145372E-04  0.175E-02    0.82       1.0  T
   4   -185.2765618 -0.151177E-04  0.831E-03    0.83       1.4  T
   5   -185.2765647 -0.290590E-05  0.451E-03    0.82       2.5  T
   6   -185.2765656 -0.940194E-06  0.171E-03    0.82       6.7  T
   7   -185.2765658 -0.187600E-06  0.735E-04    0.82      15.5  T
     SCC iter.                  ...        0 min,  0.056 sec
     gradient                   ...        0 min,  0.011 sec
 * total energy  :  -183.2795345 Eh     change       -0.3497984E-04 Eh
   gradient norm :     0.0071007 Eh/α   predicted    -0.4942481E-04 (  41.30%)
   displ. norm   :     0.1232438 α      lambda       -0.8698998E-04
   maximum displ.:     0.0747689 α      in ANC's #9, #2, #1, ...

........................................................................
.............................. CYCLE   54 ..............................
........................................................................
   1   -185.2754391 -0.185275E+03  0.686E-02    0.82       0.0  T
   2   -185.2754449 -0.580668E-05  0.373E-02    0.83       1.0  T
   3   -185.2754391  0.582416E-05  0.118E-02    0.82       1.0  T
   4   -185.2754463 -0.723408E-05  0.485E-03    0.83       2.3  T
   5   -185.2754469 -0.619923E-06  0.243E-03    0.83       4.7  T
   6   -185.2754472 -0.260727E-06  0.745E-04    0.83      15.3  T
     SCC iter.                  ...        0 min,  0.048 sec
     gradient                   ...        0 min,  0.011 sec
 * total energy  :  -183.2795883 Eh     change       -0.5381521E-04 Eh
   gradient norm :     0.0050395 Eh/α   predicted    -0.4415665E-04 ( -17.95%)
   displ. norm   :     0.1231793 α      lambda        0.3048212E-04
   maximum displ.:     0.0747690 α      in ANC's #9, #2, #1, ...

........................................................................
.............................. CYCLE   55 ..............................
........................................................................
   1   -185.2739961 -0.185274E+03  0.688E-02    0.83       0.0  T
   2   -185.2740020 -0.594316E-05  0.374E-02    0.83       1.0  T
   3   -185.2739952  0.687296E-05  0.125E-02    0.82       1.0  T
   4   -185.2740026 -0.738031E-05  0.589E-03    0.83       1.9  T
   5   -185.2740035 -0.902152E-06  0.370E-03    0.83       3.1  T
   6   -185.2740042 -0.745322E-06  0.152E-03    0.83       7.5  T
   7   -185.2740044 -0.212477E-06  0.443E-04    0.83      25.7  T
     SCC iter.                  ...        0 min,  0.056 sec
     gradient                   ...        0 min,  0.011 sec
 * total energy  :  -183.2795733 Eh     change        0.1506827E-04 Eh
   gradient norm :     0.0077867 Eh/α   predicted     0.1547214E-04 (   2.68%)
   displ. norm   :     0.0481018 α      lambda       -0.1113869E-03
   maximum displ.:     0.0160731 α      in ANC's #2, #9, #44, ...

........................................................................
.............................. CYCLE   56 ..............................
........................................................................
   1   -185.2745200 -0.185275E+03  0.344E-02    0.83       0.0  T
   2   -185.2745238 -0.381236E-05  0.194E-02    0.83       1.0  T
   3   -185.2745192  0.461187E-05  0.106E-02    0.83       1.1  T
   4   -185.2745234 -0.419157E-05  0.495E-03    0.83       2.3  T
   5   -185.2745256 -0.218176E-05  0.198E-03    0.83       5.8  T
   6   -185.2745258 -0.174761E-06  0.104E-03    0.83      10.9  T
     SCC iter.                  ...        0 min,  0.048 sec
     gradient                   ...        0 min,  0.011 sec
 * total energy  :  -183.2796415 Eh     change       -0.6829334E-04 Eh
   gradient norm :     0.0038094 Eh/α   predicted    -0.5582629E-04 ( -18.26%)
   displ. norm   :     0.1331908 α      lambda       -0.6540634E-04
   maximum displ.:     0.0688389 α      in ANC's #9, #2, #1, ...

........................................................................
.............................. CYCLE   57 ..............................
........................................................................
   1   -185.2754926 -0.185275E+03  0.706E-02    0.83       0.0  T
   2   -185.2754967 -0.413334E-05  0.379E-02    0.83       1.0  T
   3   -185.2754944  0.230120E-05  0.895E-03    0.83       1.3  T
   4   -185.2754970 -0.262619E-05  0.508E-03    0.83       2.2  T
   5   -185.2754979 -0.887659E-06  0.195E-03    0.83       5.8  T
   6   -185.2754981 -0.190587E-06  0.650E-04    0.83      17.5  T
   7   -185.2754981 -0.138566E-07  0.436E-04    0.83      26.1  T
     SCC iter.                  ...        0 min,  0.056 sec
     gradient                   ...        0 min,  0.012 sec
 * total energy  :  -183.2796880 Eh     change       -0.4648948E-04 Eh
   gradient norm :     0.0028935 Eh/α   predicted    -0.3328491E-04 ( -28.40%)
   displ. norm   :     0.2997690 α      lambda       -0.8488847E-04
   maximum displ.:     0.1735113 α      in ANC's #9, #2, #1, ...

........................................................................
.............................. CYCLE   58 ..............................
........................................................................
   1   -185.2743882 -0.185274E+03  0.153E-01    0.82       0.0  T
   2   -185.2744017 -0.135273E-04  0.821E-02    0.82       1.0  T
   3   -185.2743754  0.262980E-04  0.223E-02    0.82       1.0  T
   4   -185.2743961 -0.207100E-04  0.139E-02    0.82       1.0  T
   5   -185.2744041 -0.794564E-05  0.723E-03    0.82       1.6  T
   6   -185.2744084 -0.427826E-05  0.180E-03    0.82       6.3  T
   7   -185.2744085 -0.180090E-06  0.728E-04    0.82      15.7  T
   8   -185.2744085 -0.142288E-08  0.396E-04    0.82      28.8  T
     SCC iter.                  ...        0 min,  0.064 sec
     gradient                   ...        0 min,  0.012 sec
 * total energy  :  -183.2797494 Eh     change       -0.6138043E-04 Eh
   gradient norm :     0.0045258 Eh/α   predicted    -0.4625888E-04 ( -24.64%)
[...]
 printout                       ...        0 min,  0.001 sec (  1.161%)

         :::::::::::::::::::::::::::::::::::::::::::::::::::::
         ::                     SUMMARY                     ::
         :::::::::::::::::::::::::::::::::::::::::::::::::::::
         :: total energy            -183.284061944827 Eh    ::
         :: gradient norm              0.000654496044 Eh/a0 ::
         :: HOMO-LUMO gap              0.799005724959 eV    ::
         ::.................................................::
         :: SCC energy              -185.282853487974 Eh    ::
         :: -> isotropic ES            0.371153404881 Eh    ::
         :: -> anisotropic ES          0.042417964445 Eh    ::
         :: -> anisotropic XC         -0.000909089516 Eh    ::
         :: -> dispersion             -0.126105304220 Eh    ::
         :: repulsion energy           1.999221285630 Eh    ::
         :: add. restraining           0.000000000000 Eh    ::
         :::::::::::::::::::::::::::::::::::::::::::::::::::::

           -------------------------------------------------
          |                Property Printout                |
           -------------------------------------------------

    * Orbital Energies and Occupations

         #    Occupation            Energy/Eh            Energy/eV
      -------------------------------------------------------------
         1        2.0000           -0.8134260             -22.1344
       ...           ...                  ...                  ...
       146        2.0000           -0.4522943             -12.3076
       147        2.0000           -0.4517898             -12.2938
       148        2.0000           -0.4489018             -12.2152
       149        2.0000           -0.4480399             -12.1918
       150        2.0000           -0.4468416             -12.1592
       151        2.0000           -0.4435166             -12.0687
       152        2.0000           -0.4414403             -12.0122
       153        2.0000           -0.4362064             -11.8698
       154        2.0000           -0.4348341             -11.8324
       155        2.0000           -0.4316064             -11.7446
       156        2.0000           -0.4258579             -11.5882
       157        2.0000           -0.4241070             -11.5405
       158        2.0000           -0.4016293             -10.9289 (HOMO)
       159        0.0000           -0.3722663             -10.1299 (LUMO)
       160                         -0.3673072              -9.9949
       161                         -0.3565589              -9.7025
       162                         -0.3510080              -9.5514
       163                         -0.3448489              -9.3838
       164                         -0.3367388              -9.1631
       165                         -0.3297049              -8.9717
       166                         -0.3270621              -8.8998
       167                         -0.3261125              -8.8740
       168                         -0.3052924              -8.3074
       169                         -0.2923268              -7.9546
       ...                                ...                  ...
       294                          0.7304687              19.8771
      -------------------------------------------------------------
                  HL-Gap            0.0293629 Eh            0.7990 eV
             Fermi-level           -0.3869504 Eh          -10.5295 eV

     #   Z        covCN         q      C6AA      α(0)
     1   6 C      2.929    -0.018    28.456     8.748
     2   6 C      3.227    -0.001    27.265     8.483
     3   6 C      3.259    -0.029    27.538     8.482
     4   6 C      2.924    -0.012    28.314     8.726
     5  16 S      2.343     0.093   137.306    19.722
     6   6 C      2.851     0.237    23.049     7.869
     7   8 O      0.856    -0.357    20.844     6.121
     8   6 C      3.016    -0.025    28.602     8.773
     9   6 C      3.002     0.047    26.932     8.513
    10   6 C      2.826    -0.040    28.991     8.823
    11   7 N      2.758     0.553    13.443     5.446
    12   8 O      0.931    -0.373    21.117     6.163
    13   8 O      0.930    -0.401    21.666     6.242
    14   7 N      2.757     0.563    13.342     5.425
    15   8 O      0.930    -0.356    20.790     6.115
    16   8 O      0.930    -0.379    21.236     6.180
    17   6 C      2.957    -0.004    28.133     8.700
    18   6 C      2.995     0.028    27.377     8.583
    19  16 S      2.291     0.080   137.843    19.760
    20   6 C      3.097     0.031    27.198     8.547
    21   6 C      3.214    -0.035    28.185     8.639
    22   6 C      3.040    -0.019    28.453     8.749
    23   6 C      2.884     0.237    23.056     7.872
    24   8 O      0.856    -0.309    19.943     5.987
    25   6 C      3.045    -0.010    28.212     8.711
    26   6 C      2.963    -0.033    28.821     8.806
    27   6 C      2.899    -0.023    28.567     8.763
    28   6 C      2.920    -0.028    28.694     8.784
    29   6 C      2.965     0.004    27.929     8.668
    30  16 S      2.409     0.065   138.429    19.802
    31   6 C      3.015     0.014    27.673     8.629
    32   6 C      3.263    -0.020    27.280     8.435
    33   6 C      3.351     0.121    22.822     7.527
    34   8 O      1.717    -0.163    16.764     5.528
    35   6 C      3.098     0.123    25.194     8.226
    36   7 N      2.755     0.542    13.567     5.470
    37   8 O      0.933    -0.377    21.197     6.175
    38   8 O      0.931    -0.356    20.786     6.114
    39   6 C      2.977    -0.043    29.074     8.845
    40   6 C      3.019     0.037    27.156     8.548
    41  16 S      2.359     0.040   139.447    19.875
    42   6 C      2.983    -0.043    29.060     8.843
    43   6 C      2.712     0.356    20.956     7.493
    44   8 O      0.857    -0.397    21.627     6.235
    45   8 O      1.660    -0.354    19.973     6.033
    46   6 C      3.138     0.020    27.341     8.558
    47   6 C      3.100    -0.044    28.958     8.818
    48   6 C      2.901     0.002    27.969     8.671
    49   6 C      3.030    -0.001    28.011     8.681
    50   6 C      2.989     0.070    26.428     8.433
    51   6 C      2.825    -0.036    28.895     8.808
    52   7 N      2.757     0.558    13.399     5.437
    53   8 O      0.930    -0.385    21.353     6.197
    54   8 O      0.931    -0.369    21.033     6.151
    55   7 N      2.758     0.562    13.350     5.427
    56   8 O      0.930    -0.373    21.110     6.162
    57   8 O      0.929    -0.371    21.075     6.157
    58   6 C      3.237     0.012    26.853     8.406
    59   6 C      2.926    -0.016    28.401     8.740
    60  16 S      2.346     0.130   135.843    19.616
    61   6 C      2.923    -0.013    28.341     8.730
    62   6 C      3.255    -0.021    27.404     8.466
    63   6 C      2.852     0.245    22.910     7.845
    64   8 O      0.856    -0.324    20.227     6.030
    65   1 H      0.926     0.105     1.741     2.064
    66   1 H      0.926     0.081     1.972     2.196
    67   1 H      0.925     0.065     2.144     2.290
    68   1 H      0.926     0.121     1.603     1.980
    69   1 H      0.926     0.065     2.139     2.287
    70   1 H      0.925     0.078     2.000     2.211
    71   1 H      0.925     0.073     2.049     2.238
    72   1 H      0.927     0.093     1.850     2.127
    73   1 H      0.805     0.332     0.631     1.248
    74   1 H      0.926     0.073     2.053     2.241
    75   1 H      0.925     0.101     1.778     2.085
    76   1 H      0.926     0.116     1.648     2.007
    77   1 H      0.926     0.087     1.906     2.159

 Mol. C6AA /au·bohr⁶  :     132515.782021
 Mol. C8AA /au·bohr⁸  :    3776906.542042
 Mol. α(0) /au        :        574.645197


Wiberg/Mayer (AO) data.
largest (>0.10) Wiberg bond orders for each atom
          total WBO             WBO to atom ...
     1  C   3.943        C    2 1.547    S    5 1.229    H   65 0.952
     2  C   3.974        C    1 1.547    C    3 1.150    C    9 1.101
     3  C   3.976        C    4 1.589    C    2 1.150    C    6 1.026
     4  C   3.951        C    3 1.589    S    5 1.204    H   66 0.965
     5  S   2.680        C    1 1.229    C    4 1.204
     6  C   3.935        O    7 1.765    C    3 1.026    C    8 1.023
     7  O   2.081        C    6 1.765
     8  C   3.943        C   17 1.497    C    9 1.141    C    6 1.023
     9  C   3.964        C   10 1.500    C    8 1.141    C    2 1.101
    10  C   3.885        C    9 1.500    N   11 1.005    N   14 0.944
    11  N   3.911        O   12 1.442    O   13 1.409    C   10 1.005
    12  O   1.923        N   11 1.442    O   13 0.344
    13  O   1.908        N   11 1.409    O   12 0.344
    14  N   3.914        O   15 1.470    O   16 1.449    C   10 0.944
    15  O   1.955        N   14 1.470    O   16 0.373
    16  O   1.945        N   14 1.449    O   15 0.373
    17  C   3.956        C    8 1.497    C   18 1.302    H   67 0.952
    18  C   3.909        C   22 1.355    C   17 1.302    S   19 1.087
    19  S   2.649        C   20 1.245    C   18 1.087
    20  C   3.926        C   21 1.278    S   19 1.245    C   26 1.212
    21  C   3.950        C   22 1.428    C   20 1.278    C   23 1.015
    22  C   3.956        C   21 1.428    C   18 1.355    H   68 0.934
    23  C   3.926        O   24 1.848    C   21 1.015    C   25 0.961
    24  O   2.114        C   23 1.848
    25  C   3.937        C   26 1.517    C   27 1.252    C   23 0.961
    26  C   3.902        C   25 1.517    C   20 1.212    H   69 0.966
    27  C   3.950        C   28 1.565    C   25 1.252    H   70 0.951
    28  C   3.926        C   27 1.565    C   29 1.251    H   71 0.951
    29  C   3.925        C   33 1.343    C   28 1.251    S   30 1.119
    30  S   2.609        C   31 1.172    C   29 1.119
    31  C   3.893        C   32 1.307    C   40 1.210    S   30 1.172
    32  C   3.973        C   31 1.307    C   39 1.238    C   33 1.217
    33  C   3.883        C   29 1.343    C   32 1.217    O   34 1.096
    34  O   2.413        C   33 1.096    C   35 1.085
    35  C   3.894        C   39 1.540    O   34 1.085    N   36 0.996
    36  N   3.915        O   38 1.446    O   37 1.425    C   35 0.996
    37  O   1.910        N   36 1.425    O   38 0.367
    38  O   1.935        N   36 1.446    O   37 0.367
    39  C   3.975        C   35 1.540    C   32 1.238    H   72 0.963
    40  C   3.955        C   47 1.436    C   31 1.210    S   41 1.140
    41  S   2.642        C   42 1.161    C   40 1.140
    42  C   3.890        C   46 1.410    S   41 1.161    C   43 1.046
    43  C   3.925        O   44 1.703    O   45 1.130    C   42 1.046
    44  O   2.030        C   43 1.703    O   45 0.157
    45  O   2.217        C   43 1.130    H   73 0.862    O   44 0.157
    46  C   3.986        C   42 1.410    C   47 1.311    C   48 1.073
    47  C   3.942        C   40 1.436    C   46 1.311    H   74 0.957
    48  C   3.953        C   49 1.717    C   46 1.073    H   75 0.940
    49  C   3.978        C   48 1.717    C   50 1.072    C   63 0.972
    50  C   3.974        C   51 1.539    C   58 1.121    C   49 1.072
    51  C   3.921        C   50 1.539    N   52 0.991    N   55 0.950
    52  N   3.918        O   54 1.446    O   53 1.425    C   51 0.991
    53  O   1.937        N   52 1.425    O   54 0.353
    54  O   1.930        N   52 1.446    O   53 0.353
    55  N   3.916        O   57 1.460    O   56 1.456    C   51 0.950
    56  O   1.939        N   55 1.456    O   57 0.370
    57  O   1.949        N   55 1.460    O   56 0.370
    58  C   3.982        C   59 1.524    C   62 1.141    C   50 1.121
    59  C   3.947        C   58 1.524    S   60 1.254    H   76 0.950
    60  S   2.714        C   59 1.254    C   61 1.209
    61  C   3.953        C   62 1.586    S   60 1.209    H   77 0.964
    62  C   3.978        C   61 1.586    C   58 1.141    C   63 1.028
    63  C   3.939        O   64 1.818    C   62 1.028    C   49 0.972
    64  O   2.116        C   63 1.818
    65  H   0.989        C    1 0.952
    66  H   0.993        C    4 0.965
    67  H   0.994        C   17 0.952
    68  H   0.985        C   22 0.934
    69  H   0.995        C   26 0.966
    70  H   0.993        C   27 0.951
    71  H   0.994        C   28 0.951
    72  H   0.991        C   39 0.963
    73  H   0.889        O   45 0.862
    74  H   0.994        C   47 0.957
    75  H   0.988        C   48 0.940
    76  H   0.986        C   59 0.950
    77  H   0.992        C   61 0.964

molecular dipole:
                 x           y           z       tot (Debye)
 q only:       -3.321       0.519      -3.338
   full:       -2.584       0.170      -2.757       9.614
molecular quadrupole (traceless):
                xx          xy          yy          xz          yz          zz
 q only:      -78.213      91.873      23.868      -8.397      60.108      54.345
  q+dip:      -60.720      72.508      33.317     -21.439      49.076      27.403
   full:      -57.325      75.813      29.381     -29.607      46.112      27.943

           -------------------------------------------------
          |                Geometry Summary                 |
           -------------------------------------------------

      molecular mass/u    :      955.8446000
   center of mass at/Å    :        4.8350784      -6.0634732      -5.2465627
  moments of inertia/u·Å² :        0.7488286E+04   0.6481604E+05   0.7026587E+05
rotational constants/cm⁻¹ :        0.2251200E-02   0.2600843E-03   0.2399121E-03

 * 70 selected distances

     #   Z        #   Z                                     value/Å
     1   6 C      2   6 C                                 1.3641592
     2   6 C      3   6 C                                 1.4349090
     3   6 C      4   6 C                                 1.3558344
     1   6 C      5  16 S                                 1.7189422
     4   6 C      5  16 S                                 1.7246073
     6   6 C      7   8 O                                 1.2094435
     2   6 C      9   6 C                                 1.4498895
     9   6 C     10   6 C                                 1.3706549
    11   7 N     12   8 O                                 1.2110036
    11   7 N     13   8 O                                 1.2152537
    14   7 N     15   8 O                                 1.2068341
    14   7 N     16   8 O                                 1.2104112
     8   6 C     17   6 C                                 1.3740236
    17   6 C     18   6 C                                 1.4018757
    19  16 S     20   6 C                                 1.6971140
    20   6 C     21   6 C                                 1.4082189
    18   6 C     22   6 C                                 1.3984911
    21   6 C     22   6 C                                 1.3793869
    23   6 C     24   8 O                                 1.2027889
    20   6 C     26   6 C                                 1.4195077
    25   6 C     26   6 C                                 1.3751163
    25   6 C     27   6 C                                 1.4093205
    27   6 C     28   6 C                                 1.3612490
    28   6 C     29   6 C                                 1.4090497
    29   6 C     30  16 S                                 1.7504920 (max)
    30  16 S     31   6 C                                 1.7397963
    31   6 C     32   6 C                                 1.3964948
    29   6 C     33   6 C                                 1.3865156
    32   6 C     33   6 C                                 1.4220986
    33   6 C     34   8 O                                 1.3440323
    34   8 O     35   6 C                                 1.3588990
    35   6 C     36   7 N                                 1.4215908
    36   7 N     37   8 O                                 1.2138351
    36   7 N     38   8 O                                 1.2093171
    32   6 C     39   6 C                                 1.4193037
    35   6 C     39   6 C                                 1.3693059
    31   6 C     40   6 C                                 1.4144910
    40   6 C     41  16 S                                 1.7329435
    41  16 S     42   6 C                                 1.7352656
    43   6 C     44   8 O                                 1.2066194
    43   6 C     45   8 O                                 1.3370117
    42   6 C     46   6 C                                 1.3914099
    40   6 C     47   6 C                                 1.3799651
    46   6 C     47   6 C                                 1.4039971
    48   6 C     49   6 C                                 1.3410311
    50   6 C     51   6 C                                 1.3636167
    52   7 N     53   8 O                                 1.2109565
    52   7 N     54   8 O                                 1.2100474
    55   7 N     56   8 O                                 1.2100882
    55   7 N     57   8 O                                 1.2082580
    50   6 C     58   6 C                                 1.4432960
    58   6 C     59   6 C                                 1.3672917
    59   6 C     60  16 S                                 1.7129233
    60  16 S     61   6 C                                 1.7233888
    58   6 C     62   6 C                                 1.4405980
    61   6 C     62   6 C                                 1.3565021
    63   6 C     64   8 O                                 1.2019699
     1   6 C     65   1 H                                 1.0716927
     4   6 C     66   1 H                                 1.0715492
    17   6 C     67   1 H                                 1.0853465
    22   6 C     68   1 H                                 1.0750793
    26   6 C     69   1 H                                 1.0744589
    27   6 C     70   1 H                                 1.0842326
    28   6 C     71   1 H                                 1.0813358
    39   6 C     72   1 H                                 1.0699104
    45   8 O     73   1 H                                 0.9670068 (min)
    47   6 C     74   1 H                                 1.0729431
    48   6 C     75   1 H                                 1.0842462
    59   6 C     76   1 H                                 1.0716762
    61   6 C     77   1 H                                 1.0717118

 * 7 distinct bonds (by element types)

   Z      Z             #   av. dist./Å        max./Å        min./Å
   1 H    6 C          12     1.0761819     1.0853465     1.0699104
   6 C    6 C          30     1.3935868     1.4498895     1.3410311
   6 C    7 N           1     1.4215908     1.4215908     1.4215908
   1 H    8 O           1     0.9670068     0.9670068     0.9670068
   6 C    8 O           7     1.2658235     1.3588990     1.2019699
   7 N    8 O          10     1.2106005     1.2152537     1.2068341
   6 C   16 S           9     1.7261637     1.7504920     1.6971140


optimized geometry written to: xtbopt.xyz


           -------------------------------------------------
          | TOTAL ENERGY             -183.284061944827 Eh   |
          | GRADIENT NORM               0.000654496044 Eh/α |
          | HOMO-LUMO GAP               0.799005724959 eV   |
           -------------------------------------------------

------------------------------------------------------------------------
 * finished run on 2021/06/03 at 17:02:48.568     
------------------------------------------------------------------------
 total:
 * wall-time:     0 d,  0 h,  0 min, 14.775 sec
 *  cpu-time:     0 d,  0 h,  2 min, 57.155 sec
 * ratio c/w:    11.991 speedup
 SCF:
 * wall-time:     0 d,  0 h,  0 min,  0.154 sec
 *  cpu-time:     0 d,  0 h,  0 min,  1.837 sec
 * ratio c/w:    11.962 speedup
 ANC optimizer:
 * wall-time:     0 d,  0 h,  0 min, 14.583 sec
 *  cpu-time:     0 d,  0 h,  2 min, 54.973 sec
 * ratio c/w:    11.998 speedup

