      -----------------------------------------------------------      
     |                   =====================                   |     
     |                           x T B                           |     
     |                   =====================                   |     
     |                         S. Grimme                         |     
     |          Mulliken Center for Theoretical Chemistry        |     
     |                    University of Bonn                     |     
     |                Version 6.2 RC2 (SAW190805)                |     
      -----------------------------------------------------------      

   This program is distributed in the hope that it will be useful,
   but WITHOUT ANY WARRANTY; without even the implied warranty of
   MERCHANTABILITY or FITNESS FOR A PARTICULAR PURPOSE.
   
   FOR NON-COMMERCIAL, ACADEMIA USE ONLY.
   
   Cite this work as:
   * S. Grimme, C. Bannwarth, P. Shushkov, J. Chem. Theory Comput., 2017,
     13, 1989-2009. DOI: 10.1021/acs.jctc.7b00118
   * C. Bannwarth, S. Ehlert and S. Grimme., J. Chem. Theory Comput., 2019,
     15, 1652-1671. DOI: 10.1021/acs.jctc.8b01176
   * P. Pracht, E. Caldeweyher, S. Ehlert, S. Grimme, ChemRxiv, 2019, preprint.
     DOI: 10.26434/chemrxiv.8326202.v1
   
   for DFT-D4:
   * E. Caldeweyher, C. Bannwarth and S. Grimme, J. Chem. Phys., 2017,
     147, 034112. DOI: 10.1063/1.4993215
   * E. Caldeweyher, S. Ehlert, A. Hansen, H. Neugebauer, S. Spicher,
     C. Bannwarth and S. Grimme, J. Chem. Phys., 2019, 150, 154122.
     DOI: 10.1063/1.5090222
   
   for sTDA-xTB:
   * S. Grimme and C. Bannwarth, J. Chem. Phys., 2016, 145, 054103.
     DOI: 10.1063/1.4959605
   
   in the mass-spec context:
   * V. Asgeirsson, C. Bauer and S. Grimme, Chem. Sci., 2017, 8, 4879.
     DOI: 10.1039/c7sc00601b
   
   for metadynamics refer to:
   * S. Grimme, J. Chem. Theory Comput., 2019, 155, 2847-2862
     DOI: 10.1021/acs.jctc.9b00143
   
   with help from (in alphabetical order)
   C. Bannwarth, F. Bohle, G. Brandenburg, E. Caldeweyher, M. Checinski,
   S. Dohm, S. Ehlert, S. Ehrlich, F. März, H. Neugebauer, J. Pisarek,
   P. Pracht, P. Shushkov, and S. Spicher.
   
 * started run on 2021/06/04 at 03:22:39.123     

           -------------------------------------------------
          |                Calculation Setup                |
           -------------------------------------------------

          program call               : /ihome/ghutchison/geoffh/xtb/xtb /ihome/ghutchison/blp62/GA/running_GA/sequence/generations/19/262_123_181_627_627_13500.xyz -opt
          hostname                   : smp-n5
          coordinate file            : /ihome/ghutchison/blp62/GA/running_GA/sequence/generations/19/262_123_181_627_627_13500.xyz
          omp threads                :                    12
          number of atoms            :                    85
          number of electrons        :                   300
          charge                     :                     0
          spin                       :                   0.0
          first test random number   :      0.06784749672145


########################################################################
# WARNING! Please study the warnings concerning your input carefully
#  - XTBPATH is not set, using XTBHOME instead
#  - the use of '-opt' is discouraged, please use '--opt' next time
########################################################################

           ------------------------------------------------- 
          |                 G F N 2 - x T B                 |
          | Geometry, Frequencies, Noncovalent interactions |
          |            JCTC 2019 parametrisation            |
           ------------------------------------------------- 
             KAB for C  - Si     :                1.0500
             KAB for H  - Pd     :                0.9500
             k(s)              :                1.8500
             k(p)              :                2.2300
             k(d)              :                2.2300
             k(f)              :                2.0000
             kEN (H0ij)        :               -2.0000
             D4 a1             :                0.5200
             D4 a2             :                5.0000
             D4 s6             :                1.0000
             D4 s8             :                2.7000
             D4 s9             :                5.0000
             alphaj            :                2.0000

  Z AO/shell   Hii/eV     exponent
  1     Wed Apr 25 08:07:45 CEST 2018   EN: 2.200 GM2: 0.406  GM3: 0.0800  RAES: 1.40
     1s    -10.707211    1.230000
  6     Wed Apr 25 08:07:45 CEST 2018   EN: 2.550 GM2: 0.538  GM3: 0.1500  RAES: 3.00
     2s    -13.970922    2.096432
     2p    -10.063292    1.800000
  7     Wed Apr 25 08:07:45 CEST 2018   EN: 3.040 GM2: 0.461  GM3:-0.0640  RAES: 1.90
     2s    -16.686243    2.339881
     2p    -12.523956    2.014332
  8     Wed Apr 25 08:07:45 CEST 2018   EN: 3.440 GM2: 0.452  GM3:-0.0517  RAES: 1.80
     2s    -20.229985    2.439742
     2p    -15.503117    2.137023
 16     Tue Apr 24 11:44:34 CEST 2018   EN: 2.580 GM2: 0.340  GM3:-0.0502  RAES: 3.10
     3s    -20.029654    1.981333
     3p    -11.377694    2.025643
     3d     -0.420282    1.702555

           ------------------------------------------------- 
          |        Self-Consistent Charge Iterations        |
           ------------------------------------------------- 

          ...................................................
          :                      SETUP                      :
          :.................................................:
          :  # basis functions                 298          :
          :  # atomic orbitals                 293          :
          :  # shells                          151          :
          :  # electrons                       300          :
          :  max. iterations                   250          :
          :  Hamiltonian                  GFN2-xTB          :
          :  restarted?                      false          :
          :  GBSA solvation                  false          :
          :  PC potential                    false          :
          :  electronic temp.          300.0000000     K    :
          :  accuracy                    1.0000000          :
          :  -> integral cutoff          0.2500000E+02      :
          :  -> integral neglect         0.1000000E-07      :
          :  -> SCF convergence          0.1000000E-05 Eh   :
          :  -> wf. convergence          0.1000000E-03 e    :
          :  Broyden damping             0.4000000          :
          ...................................................

 iter      E             dE          RMSdq      gap      omega  full diag
   1   -170.5062971 -0.170506E+03  0.516E+00    0.77       0.0  T
   2   -170.8763624 -0.370065E+00  0.271E+00    0.57       1.0  T
   3   -170.8542857  0.220768E-01  0.161E+00    0.24       1.0  T
   4   -170.4251238  0.429162E+00  0.155E+00    0.10       1.0  T
   5   -170.8837227 -0.458599E+00  0.665E-01    0.92       1.0  T
   6   -170.9236244 -0.399017E-01  0.386E-01    0.90       1.0  T
   7   -170.9263742 -0.274975E-02  0.227E-01    0.90       1.0  T
   8   -170.9285341 -0.215989E-02  0.176E-01    0.78       1.0  T
   9   -170.9299531 -0.141904E-02  0.141E-01    0.59       1.0  T
  10   -170.9306093 -0.656202E-03  0.114E-01    0.46       1.0  T
  11   -170.9319005 -0.129115E-02  0.519E-02    0.22       1.0  T
  12   -170.9137456  0.181548E-01  0.255E-01    0.07       1.0  T
  13   -170.9320575 -0.183119E-01  0.367E-02    0.21       1.0  T
  14   -170.9322756 -0.218071E-03  0.168E-02    0.18       1.0  T
  15   -170.9323348 -0.592207E-04  0.411E-03    0.17       2.6  T
  16   -170.9323355 -0.706021E-06  0.211E-03    0.17       5.2  T
  17   -170.9323354  0.160909E-06  0.194E-03    0.17       5.6  T
  18   -170.9323362 -0.801279E-06  0.475E-04    0.17      22.8  T
  19   -170.9323362 -0.245438E-07  0.215E-04    0.17      50.3  T

   *** convergence criteria satisfied after 19 iterations ***

         #    Occupation            Energy/Eh            Energy/eV
      -------------------------------------------------------------
         1        2.0000           -0.8054516             -21.9175
       ...           ...                  ...                  ...
       144        2.0000           -0.4091284             -11.1330
       145        2.0000           -0.4063487             -11.0573
       146        2.0000           -0.4061085             -11.0508
       147        2.0000           -0.4029931             -10.9660
       148        2.0000           -0.3948964             -10.7457
       149        1.9995           -0.3749407             -10.2027
       150        1.9279           -0.3701027             -10.0710 (HOMO)
       151        0.0726           -0.3638663              -9.9013 (LUMO)
       152                         -0.3486261              -9.4866
       153                         -0.3402903              -9.2598
       154                         -0.3385120              -9.2114
       155                         -0.3328768              -9.0580
       ...                                ...                  ...
       293                          0.7394155              20.1205
      -------------------------------------------------------------
                  HL-Gap            0.0062364 Eh            0.1697 eV
             Fermi-level           -0.3669814 Eh           -9.9861 eV

 SCC (total)                   0 d,  0 h,  0 min,  0.195 sec
 SCC setup                      ...        0 min,  0.002 sec (  0.805%)
 Dispersion                     ...        0 min,  0.003 sec (  1.585%)
 integral evaluation            ...        0 min,  0.017 sec (  8.527%)
 zeroth order Hamiltonian       ...        0 min,  0.001 sec (  0.497%)
 iterations                     ...        0 min,  0.158 sec ( 81.476%)
 molecular gradient             ...        0 min,  0.013 sec (  6.720%)
 printout                       ...        0 min,  0.001 sec (  0.345%)

         :::::::::::::::::::::::::::::::::::::::::::::::::::::
         ::                     SUMMARY                     ::
         :::::::::::::::::::::::::::::::::::::::::::::::::::::
         :: total energy            -168.754191763933 Eh    ::
         :: gradient norm              0.188091215394 Eh/a0 ::
         :: HOMO-LUMO gap              0.169700417915 eV    ::
         ::.................................................::
         :: SCC energy              -170.932336200426 Eh    ::
         :: -> isotropic ES            0.208411047173 Eh    ::
         :: -> anisotropic ES          0.021398296342 Eh    ::
         :: -> anisotropic XC          0.037217765344 Eh    ::
         :: -> dispersion             -0.124584933193 Eh    ::
         :: repulsion energy           2.177272612998 Eh    ::
         :: add. restraining           0.000000000000 Eh    ::
         :::::::::::::::::::::::::::::::::::::::::::::::::::::

      ----------------------------------------------------------- 
     |                   =====================                   |
     |                        A N C O P T                        |
     |                   =====================                   |
     |               Approximate Normal Coordinate               |
     |                Rational Function Optimizer                |
      ----------------------------------------------------------- 

          ...................................................
          :                      SETUP                      :
          :.................................................:
          :   optimization level            normal          :
          :   max. optcycles                   255          :
          :   ANC micro-cycles                  20          :
          :   degrees of freedom               249          :
          :.................................................:
          :   RF solver                   davidson          :
          :   input Hessian                  false          :
          :   write xtbopt.log                true          :
          :   linear?                        false          :
          :   energy convergence         0.5000000E-05 Eh   :
          :   grad. convergence          0.1000000E-02 Eh/α :
          :   maximium RF displ.         2.0000000          :
          :   Hlow (freq-cutoff)         0.5000000E-02      :
          :   Hmax (freq-cutoff)         5.0000000          :
          :   S6 in model hess.         20.0000000          :
          ...................................................

generating ANC from model Hessian ...
Using Lindh-Hessian (1995)
 Shifting diagonal of input Hessian by   4.980651216812577E-003
 Lowest  eigenvalues of input Hessian
   -0.000000   -0.000000   -0.000000   -0.000000   -0.000000    0.000000
    0.005000    0.005028    0.005072    0.005135    0.005198    0.005223
    0.005439    0.005533    0.005720    0.005880    0.006143    0.006293
 Highest eigenvalues
    2.181195    2.294885    2.295987    2.313627    2.442625    2.481486
 

........................................................................
.............................. CYCLE    1 ..............................
........................................................................
   1   -170.9323361 -0.170932E+03  0.580E-04    0.17       0.0  T
   2   -170.9323348  0.132702E-05  0.218E-03    0.17       5.0  T
   3   -170.9323362 -0.140749E-05  0.150E-04    0.17      72.1  T
   4   -170.9323362 -0.478315E-08  0.586E-05    0.17     185.0  T
   5   -170.9323362 -0.108287E-09  0.335E-05    0.17     323.7  T
     SCC iter.                  ...        0 min,  0.041 sec
     gradient                   ...        0 min,  0.013 sec
 * total energy  :  -168.7541918 Eh     change       -0.5886105E-07 Eh
   gradient norm :     0.1880876 Eh/α   predicted     0.0000000E+00 (-100.00%)
   displ. norm   :     0.3440945 α      lambda       -0.3510024E-01
   maximum displ.:     0.0696684 α      in ANC's #61, #32, #45, ...

........................................................................
.............................. CYCLE    2 ..............................
........................................................................
   1   -170.9715201 -0.170972E+03  0.267E-01    0.41       0.0  T
   2   -170.9718360 -0.315825E-03  0.164E-01    0.16       1.0  T
   3   -170.9714590  0.376973E-03  0.118E-01    0.35       1.0  T
   4   -170.9728503 -0.139136E-02  0.501E-02    0.21       1.0  T
   5   -170.9729118 -0.614304E-04  0.251E-02    0.18       1.0  T
   6   -170.9729593 -0.475054E-04  0.128E-02    0.21       1.0  T
   7   -170.9729765 -0.171867E-04  0.736E-03    0.19       1.5  T
   8   -170.9729840 -0.757024E-05  0.293E-03    0.20       3.7  T
   9   -170.9729848 -0.799684E-06  0.143E-03    0.20       7.6  T
  10   -170.9729850 -0.196701E-06  0.704E-04    0.20      15.4  T
     SCC iter.                  ...        0 min,  0.078 sec
     gradient                   ...        0 min,  0.012 sec
 * total energy  :  -168.7785234 Eh     change       -0.2433160E-01 Eh
   gradient norm :     0.0794764 Eh/α   predicted    -0.1962810E-01 ( -19.33%)
   displ. norm   :     0.4377833 α      lambda       -0.1369870E-01
   maximum displ.:     0.1190829 α      in ANC's #32, #16, #45, ...

........................................................................
.............................. CYCLE    3 ..............................
........................................................................
   1   -170.9893469 -0.170989E+03  0.272E-01    0.39       0.0  T
   2   -170.9897528 -0.405909E-03  0.155E-01    0.26       1.0  T
   3   -170.9892112  0.541562E-03  0.105E-01    0.27       1.0  T
   4   -170.9899626 -0.751364E-03  0.330E-02    0.24       1.0  T
   5   -170.9900091 -0.465170E-04  0.167E-02    0.25       1.0  T
   6   -170.9900230 -0.139659E-04  0.890E-03    0.25       1.2  T
   7   -170.9900278 -0.477521E-05  0.444E-03    0.25       2.4  T
   8   -170.9900290 -0.119681E-05  0.177E-03    0.25       6.1  T
     SCC iter.                  ...        0 min,  0.065 sec
     gradient                   ...        0 min,  0.012 sec
 * total energy  :  -168.7860048 Eh     change       -0.7481374E-02 Eh
   gradient norm :     0.0285209 Eh/α   predicted    -0.8162063E-02 (   9.10%)
   displ. norm   :     0.4574070 α      lambda       -0.5147027E-02
   maximum displ.:     0.1600108 α      in ANC's #16, #15, #42, ...

........................................................................
.............................. CYCLE    4 ..............................
........................................................................
   1   -170.9840448 -0.170984E+03  0.237E-01    0.22       0.0  T
   2   -170.9841067 -0.618995E-04  0.133E-01    0.27       1.0  T
   3   -170.9833916  0.715131E-03  0.749E-02    0.18       1.0  T
   4   -170.9841333 -0.741752E-03  0.234E-02    0.27       1.0  T
   5   -170.9841737 -0.403719E-04  0.137E-02    0.25       1.0  T
   6   -170.9841820 -0.829770E-05  0.695E-03    0.24       1.6  T
   7   -170.9841858 -0.377392E-05  0.296E-03    0.24       3.7  T
   8   -170.9841863 -0.552405E-06  0.142E-03    0.24       7.6  T
     SCC iter.                  ...        0 min,  0.065 sec
     gradient                   ...        0 min,  0.012 sec
 * total energy  :  -168.7892516 Eh     change       -0.3246801E-02 Eh
   gradient norm :     0.0250271 Eh/α   predicted    -0.3112127E-02 (  -4.15%)
   displ. norm   :     0.5289309 α      lambda       -0.3503336E-02
   maximum displ.:     0.2106181 α      in ANC's #16, #15, #45, ...

........................................................................
.............................. CYCLE    5 ..............................
........................................................................
   1   -170.9717252 -0.170972E+03  0.245E-01    0.16       0.0  T
   2   -170.9719613 -0.236093E-03  0.144E-01    0.36       1.0  T
   3   -170.9668909  0.507033E-02  0.152E-01    0.12       1.0  T
   4   -170.9721475 -0.525655E-02  0.499E-02    0.35       1.0  T
   5   -170.9723771 -0.229579E-03  0.290E-02    0.31       1.0  T
   6   -170.9724811 -0.103998E-03  0.183E-02    0.26       1.0  T
   7   -170.9725196 -0.384926E-04  0.988E-03    0.23       1.1  T
   8   -170.9725211 -0.151141E-05  0.623E-03    0.22       1.7  T
   9   -170.9725259 -0.479031E-05  0.261E-03    0.22       4.2  T
  10   -170.9725261 -0.223075E-06  0.113E-03    0.22       9.6  T
     SCC iter.                  ...        0 min,  0.081 sec
     gradient                   ...        0 min,  0.012 sec
 * total energy  :  -168.7920605 Eh     change       -0.2808908E-02 Eh
   gradient norm :     0.0202078 Eh/α   predicted    -0.2241741E-02 ( -20.19%)
   displ. norm   :     0.6354963 α      lambda       -0.3362194E-02
   maximum displ.:     0.2671336 α      in ANC's #15, #16, #21, ...

........................................................................
.............................. CYCLE    6 ..............................
........................................................................
   1   -170.9661256 -0.170966E+03  0.285E-01    0.15       0.0  T
   2   -170.9663385 -0.212883E-03  0.169E-01    0.38       1.0  T
   3   -170.9518917  0.144468E-01  0.232E-01    0.08       1.0  T
   4   -170.9665550 -0.146633E-01  0.713E-02    0.43       1.0  T
   5   -170.9668891 -0.334180E-03  0.479E-02    0.37       1.0  T
   6   -170.9670241 -0.134938E-03  0.390E-02    0.32       1.0  T
   7   -170.9671427 -0.118597E-03  0.289E-02    0.28       1.0  T
   8   -170.9672852 -0.142548E-03  0.124E-02    0.22       1.0  T
   9   -170.9673001 -0.148760E-04  0.548E-03    0.20       2.0  T
  10   -170.9673033 -0.318851E-05  0.305E-03    0.21       3.6  T
  11   -170.9673041 -0.832443E-06  0.110E-03    0.21       9.8  T
     SCC iter.                  ...        0 min,  0.088 sec
     gradient                   ...        0 min,  0.012 sec
 * total energy  :  -168.7947301 Eh     change       -0.2669574E-02 Eh
   gradient norm :     0.0234499 Eh/α   predicted    -0.2360022E-02 ( -11.60%)
   displ. norm   :     0.6556465 α      lambda       -0.3117091E-02
   maximum displ.:     0.2867447 α      in ANC's #15, #16, #12, ...

........................................................................
.............................. CYCLE    7 ..............................
........................................................................
   1   -170.9686427 -0.170969E+03  0.287E-01    0.16       0.0  T
   2   -170.9685620  0.806955E-04  0.163E-01    0.32       1.0  T
   3   -170.9116153  0.569467E-01  0.426E-01    0.04       1.0  T
   4   -170.9685143 -0.568991E-01  0.835E-02    0.40       1.0  T
   5   -170.9687614 -0.247100E-03  0.539E-02    0.37       1.0  T
   6   -170.9688688 -0.107338E-03  0.460E-02    0.34       1.0  T
   7   -170.9689680 -0.992069E-04  0.395E-02    0.30       1.0  T
   8   -170.9690704 -0.102418E-03  0.314E-02    0.28       1.0  T
   9   -170.9691669 -0.964832E-04  0.218E-02    0.25       1.0  T
  10   -170.9692602 -0.932631E-04  0.873E-03    0.21       1.2  T
  11   -170.9692668 -0.666929E-05  0.554E-03    0.19       2.0  T
  12   -170.9692742 -0.739945E-05  0.113E-03    0.20       9.6  T
  13   -170.9692742  0.123314E-07  0.847E-04    0.20      12.8  T
  14   -170.9692743 -0.121420E-06  0.352E-04    0.20      30.8  T
     SCC iter.                  ...        0 min,  0.113 sec
     gradient                   ...        0 min,  0.012 sec
 * total energy  :  -168.7971125 Eh     change       -0.2382459E-02 Eh
   gradient norm :     0.0245987 Eh/α   predicted    -0.2228523E-02 (  -6.46%)
   displ. norm   :     0.6666683 α      lambda       -0.3083556E-02
   maximum displ.:     0.2977495 α      in ANC's #15, #16, #12, ...

........................................................................
.............................. CYCLE    8 ..............................
........................................................................
   1   -170.9751726 -0.170975E+03  0.298E-01    0.13       0.0  T
   2   -170.9750450  0.127573E-03  0.177E-01    0.39       1.0  T
   3   -170.9302156  0.448294E-01  0.394E-01    0.04       1.0  T
   4   -170.9754883 -0.452728E-01  0.954E-02    0.47       1.0  T
   5   -170.9757411 -0.252821E-03  0.688E-02    0.42       1.0  T
   6   -170.9759509 -0.209790E-03  0.581E-02    0.37       1.0  T
   7   -170.9761090 -0.158089E-03  0.500E-02    0.32       1.0  T
   8   -170.9762974 -0.188356E-03  0.363E-02    0.27       1.0  T
   9   -170.9764690 -0.171574E-03  0.206E-02    0.23       1.0  T
  10   -170.9765578 -0.888119E-04  0.469E-03    0.19       2.3  T
  11   -170.9765571  0.670885E-06  0.398E-03    0.19       2.7  T
  12   -170.9765600 -0.289261E-05  0.118E-03    0.19       9.2  T
     SCC iter.                  ...        0 min,  0.093 sec
     gradient                   ...        0 min,  0.014 sec
 * total energy  :  -168.7994227 Eh     change       -0.2310112E-02 Eh
   gradient norm :     0.0212444 Eh/α   predicted    -0.2227020E-02 (  -3.60%)
   displ. norm   :     0.6673339 α      lambda       -0.2476915E-02
   maximum displ.:     0.2810237 α      in ANC's #15, #12, #21, ...

........................................................................
.............................. CYCLE    9 ..............................
........................................................................
   1   -170.9725724 -0.170973E+03  0.332E-01    0.09       0.0  T
   2   -170.9736954 -0.112302E-02  0.241E-01    0.68       1.0  T
   3   -170.9782192 -0.452374E-02  0.155E-01    0.25       1.0  T
   4   -170.9757030  0.251620E-02  0.138E-01    0.11       1.0  T
   5   -170.9786697 -0.296675E-02  0.732E-02    0.25       1.0  T
   6   -170.9790308 -0.361061E-03  0.411E-02    0.23       1.0  T
   7   -170.9792506 -0.219848E-03  0.168E-02    0.20       1.0  T
   8   -170.9792697 -0.190580E-04  0.971E-03    0.18       1.1  T
   9   -170.9792816 -0.118955E-04  0.376E-03    0.18       2.9  T
  10   -170.9792805  0.111094E-05  0.301E-03    0.18       3.6  T
  11   -170.9792822 -0.173034E-05  0.104E-03    0.18      10.4  T
     SCC iter.                  ...        0 min,  0.085 sec
     gradient                   ...        0 min,  0.012 sec
 * total energy  :  -168.8014284 Eh     change       -0.2005756E-02 Eh
   gradient norm :     0.0191236 Eh/α   predicted    -0.1789991E-02 ( -10.76%)
   displ. norm   :     0.6465185 α      lambda       -0.2539939E-02
   maximum displ.:     0.2666779 α      in ANC's #15, #21, #12, ...

........................................................................
.............................. CYCLE   10 ..............................
........................................................................
   1   -170.9921610 -0.170992E+03  0.272E-01    0.17       0.0  T
   2   -170.9922326 -0.716175E-04  0.147E-01    0.21       1.0  T
   3   -170.9812672  0.109655E-01  0.203E-01    0.09       1.0  T
   4   -170.9917075 -0.104403E-01  0.721E-02    0.30       1.0  T
   5   -170.9922347 -0.527170E-03  0.349E-02    0.23       1.0  T
   6   -170.9923530 -0.118320E-03  0.227E-02    0.21       1.0  T
   7   -170.9924422 -0.891902E-04  0.107E-02    0.19       1.0  T
   8   -170.9924519 -0.964388E-05  0.495E-03    0.18       2.2  T
   9   -170.9924532 -0.135322E-05  0.262E-03    0.18       4.1  T
  10   -170.9924536 -0.361123E-06  0.143E-03    0.18       7.6  T
     SCC iter.                  ...        0 min,  0.077 sec
     gradient                   ...        0 min,  0.012 sec
 * total energy  :  -168.8030052 Eh     change       -0.1576743E-02 Eh
   gradient norm :     0.0204979 Eh/α   predicted    -0.1800802E-02 (  14.21%)
   displ. norm   :     0.6834946 α      lambda       -0.2114109E-02
   maximum displ.:     0.2555760 α      in ANC's #15, #21, #14, ...

........................................................................
.............................. CYCLE   11 ..............................
........................................................................
   1   -170.9632908 -0.170963E+03  0.367E-01    0.08       0.0  T
   2   -170.9646497 -0.135897E-02  0.292E-01    0.71       1.0  T
   3   -170.9726050 -0.795525E-02  0.170E-01    0.33       1.0  T
   4   -170.9731127 -0.507682E-03  0.112E-01    0.15       1.0  T
   5   -170.9731570 -0.443505E-04  0.794E-02    0.15       1.0  T
   6   -170.9737035 -0.546514E-03  0.441E-02    0.20       1.0  T
   7   -170.9738677 -0.164157E-03  0.154E-02    0.18       1.0  T
   8   -170.9738775 -0.982518E-05  0.953E-03    0.17       1.1  T
   9   -170.9738888 -0.112985E-04  0.358E-03    0.18       3.0  T
  10   -170.9738890 -0.161792E-06  0.204E-03    0.18       5.3  T
  11   -170.9738893 -0.317923E-06  0.129E-03    0.17       8.4  T
     SCC iter.                  ...        0 min,  0.085 sec
     gradient                   ...        0 min,  0.012 sec
 * total energy  :  -168.8042344 Eh     change       -0.1229230E-02 Eh
   gradient norm :     0.0246082 Eh/α   predicted    -0.1550876E-02 (  26.17%)
   displ. norm   :     0.4373705 α      lambda       -0.1244892E-02
   maximum displ.:     0.1529679 α      in ANC's #15, #13, #14, ...

........................................................................
.............................. CYCLE   12 ..............................
........................................................................
   1   -170.9725389 -0.170973E+03  0.183E-01    0.16       0.0  T
   2   -170.9723378  0.201150E-03  0.105E-01    0.22       1.0  T
   3   -170.9261762  0.461616E-01  0.405E-01    0.04       1.0  T
   4   -170.9721917 -0.460155E-01  0.706E-02    0.25       1.0  T
   5   -170.9724535 -0.261739E-03  0.377E-02    0.23       1.0  T
   6   -170.9725504 -0.969144E-04  0.297E-02    0.22       1.0  T
   7   -170.9726495 -0.991232E-04  0.214E-02    0.20       1.0  T
   8   -170.9726997 -0.502100E-04  0.146E-02    0.19       1.0  T
   9   -170.9727278 -0.281153E-04  0.878E-03    0.19       1.2  T
  10   -170.9727414 -0.135396E-04  0.454E-03    0.18       2.4  T
  11   -170.9727449 -0.356949E-05  0.123E-03    0.18       8.8  T
  12   -170.9727452 -0.224635E-06  0.314E-04    0.18      34.6  T
     SCC iter.                  ...        0 min,  0.092 sec
     gradient                   ...        0 min,  0.012 sec
 * total energy  :  -168.8050353 Eh     change       -0.8008985E-03 Eh
   gradient norm :     0.0211299 Eh/α   predicted    -0.7415175E-03 (  -7.41%)
   displ. norm   :     0.4686130 α      lambda       -0.1706438E-02
   maximum displ.:     0.2262470 α      in ANC's #14, #15, #12, ...

........................................................................
.............................. CYCLE   13 ..............................
........................................................................
   1   -170.9881879 -0.170988E+03  0.188E-01    0.22       0.0  T
   2   -170.9881416  0.462399E-04  0.105E-01    0.16       1.0  T
   3   -170.9874811  0.660583E-03  0.862E-02    0.32       1.0  T
   4   -170.9883658 -0.884720E-03  0.290E-02    0.22       1.0  T
   5   -170.9884224 -0.565950E-04  0.138E-02    0.20       1.0  T
   6   -170.9884120  0.103500E-04  0.119E-02    0.18       1.0  T
   7   -170.9884326 -0.205421E-04  0.510E-03    0.19       2.1  T
   8   -170.9884345 -0.192603E-05  0.209E-03    0.19       5.2  T
   9   -170.9884347 -0.221934E-06  0.106E-03    0.19      10.2  T
     SCC iter.                  ...        0 min,  0.069 sec
     gradient                   ...        0 min,  0.012 sec
 * total energy  :  -168.8057373 Eh     change       -0.7020135E-03 Eh
   gradient norm :     0.0257829 Eh/α   predicted    -0.1040586E-02 (  48.23%)
   displ. norm   :     0.4753835 α      lambda       -0.1476282E-02
   maximum displ.:     0.1642374 α      in ANC's #14, #15, #13, ...

........................................................................
.............................. CYCLE   14 ..............................
........................................................................
   1   -170.9760856 -0.170976E+03  0.214E-01    0.19       0.0  T
   2   -170.9761516 -0.660172E-04  0.116E-01    0.21       1.0  T
   3   -170.9746952  0.145639E-02  0.981E-02    0.15       1.0  T
   4   -170.9760065 -0.131131E-02  0.438E-02    0.25       1.0  T
   5   -170.9763077 -0.301223E-03  0.142E-02    0.20       1.0  T
   6   -170.9763078 -0.494649E-07  0.990E-03    0.19       1.1  T
   7   -170.9763123 -0.452497E-05  0.600E-03    0.20       1.8  T
   8   -170.9763152 -0.290809E-05  0.228E-03    0.20       4.8  T
     SCC iter.                  ...        0 min,  0.062 sec
     gradient                   ...        0 min,  0.012 sec
 * total energy  :  -168.8064226 Eh     change       -0.6853406E-03 Eh
   gradient norm :     0.0232107 Eh/α   predicted    -0.9049550E-03 (  32.04%)
   displ. norm   :     0.3194389 α      lambda       -0.1234741E-02
   maximum displ.:     0.1307955 α      in ANC's #14, #21, #13, ...

........................................................................
.............................. CYCLE   15 ..............................
........................................................................
   1   -170.9783025 -0.170978E+03  0.154E-01    0.16       0.0  T
   2   -170.9780958  0.206737E-03  0.961E-02    0.28       1.0  T
   3   -170.9722855  0.581028E-02  0.159E-01    0.10       1.0  T
   4   -170.9783208 -0.603531E-02  0.501E-02    0.28       1.0  T
   5   -170.9784946 -0.173817E-03  0.319E-02    0.25       1.0  T
   6   -170.9786371 -0.142453E-03  0.186E-02    0.22       1.0  T
   7   -170.9786936 -0.565205E-04  0.874E-03    0.20       1.2  T
   8   -170.9787012 -0.764989E-05  0.338E-03    0.19       3.2  T
   9   -170.9787017 -0.464759E-06  0.189E-03    0.19       5.7  T
  10   -170.9787018 -0.506636E-07  0.146E-03    0.20       7.4  T
     SCC iter.                  ...        0 min,  0.077 sec
     gradient                   ...        0 min,  0.012 sec
 * total energy  :  -168.8067667 Eh     change       -0.3440865E-03 Eh
   gradient norm :     0.0198927 Eh/α   predicted    -0.6803716E-03 (  97.73%)
   displ. norm   :     0.3186179 α      lambda       -0.1277832E-02
   maximum displ.:     0.1294299 α      in ANC's #14, #17, #15, ...

........................................................................
.............................. CYCLE   16 ..............................
........................................................................
   1   -170.9784353 -0.170978E+03  0.127E-01    0.20       0.0  T
   2   -170.9784468 -0.114683E-04  0.749E-02    0.22       1.0  T
   3   -170.9779002  0.546590E-03  0.684E-02    0.17       1.0  T
   4   -170.9784138 -0.513592E-03  0.336E-02    0.24       1.0  T
   5   -170.9785960 -0.182239E-03  0.873E-03    0.21       1.2  T
   6   -170.9785962 -0.215577E-06  0.667E-03    0.20       1.6  T
   7   -170.9785990 -0.278317E-05  0.371E-03    0.20       2.9  T
   8   -170.9785997 -0.708121E-06  0.173E-03    0.20       6.3  T
   9   -170.9786000 -0.281082E-06  0.705E-04    0.20      15.4  T
     SCC iter.                  ...        0 min,  0.069 sec
     gradient                   ...        0 min,  0.012 sec
 * total energy  :  -168.8073342 Eh     change       -0.5675129E-03 Eh
   gradient norm :     0.0196224 Eh/α   predicted    -0.7037780E-03 (  24.01%)
   displ. norm   :     0.2680128 α      lambda       -0.1183375E-02
   maximum displ.:     0.1039992 α      in ANC's #14, #11, #17, ...

........................................................................
.............................. CYCLE   17 ..............................
........................................................................
   1   -170.9842670 -0.170984E+03  0.153E-01    0.25       0.0  T
   2   -170.9843773 -0.110290E-03  0.865E-02    0.19       1.0  T
   3   -170.9839732  0.404050E-03  0.621E-02    0.27       1.0  T
   4   -170.9844138 -0.440520E-03  0.277E-02    0.21       1.0  T
   5   -170.9844651 -0.513358E-04  0.160E-02    0.21       1.0  T
   6   -170.9844858 -0.207333E-04  0.483E-03    0.21       2.2  T
   7   -170.9844861 -0.240682E-06  0.334E-03    0.21       3.2  T
   8   -170.9844871 -0.103719E-05  0.136E-03    0.21       8.0  T
   9   -170.9844872 -0.116489E-06  0.646E-04    0.21      16.8  T
     SCC iter.                  ...        0 min,  0.070 sec
     gradient                   ...        0 min,  0.012 sec
 * total energy  :  -168.8077856 Eh     change       -0.4513361E-03 Eh
   gradient norm :     0.0226102 Eh/α   predicted    -0.6341934E-03 (  40.51%)
   displ. norm   :     0.3549498 α      lambda       -0.9777030E-03
   maximum displ.:     0.1511860 α      in ANC's #14, #17, #8, ...

........................................................................
.............................. CYCLE   18 ..............................
........................................................................
   1   -170.9869254 -0.170987E+03  0.157E-01    0.22       0.0  T
   2   -170.9869326 -0.725860E-05  0.864E-02    0.24       1.0  T
   3   -170.9860885  0.844176E-03  0.809E-02    0.18       1.0  T
   4   -170.9870051 -0.916673E-03  0.221E-02    0.24       1.0  T
   5   -170.9870436 -0.384409E-04  0.114E-02    0.22       1.0  T
   6   -170.9870467 -0.312641E-05  0.746E-03    0.22       1.5  T
   7   -170.9870512 -0.451050E-05  0.289E-03    0.22       3.7  T
   8   -170.9870518 -0.582826E-06  0.102E-03    0.22      10.6  T
     SCC iter.                  ...        0 min,  0.062 sec
     gradient                   ...        0 min,  0.012 sec
 * total energy  :  -168.8084003 Eh     change       -0.6147660E-03 Eh
   gradient norm :     0.0208850 Eh/α   predicted    -0.5504450E-03 ( -10.46%)
   displ. norm   :     0.4902632 α      lambda       -0.1307695E-02
   maximum displ.:     0.1889905 α      in ANC's #14, #17, #11, ...

........................................................................
.............................. CYCLE   19 ..............................
........................................................................
   1   -170.9823504 -0.170982E+03  0.228E-01    0.20       0.0  T
   2   -170.9824635 -0.113168E-03  0.128E-01    0.26       1.0  T
   3   -170.9807898  0.167371E-02  0.112E-01    0.16       1.0  T
   4   -170.9824935 -0.170367E-02  0.430E-02    0.27       1.0  T
   5   -170.9827203 -0.226833E-03  0.166E-02    0.24       1.0  T
   6   -170.9827285 -0.819336E-05  0.121E-02    0.22       1.0  T
   7   -170.9827384 -0.986952E-05  0.504E-03    0.22       2.2  T
   8   -170.9827398 -0.140050E-05  0.253E-03    0.22       4.3  T
   9   -170.9827402 -0.437887E-06  0.116E-03    0.22       9.3  T
     SCC iter.                  ...        0 min,  0.070 sec
     gradient                   ...        0 min,  0.012 sec
 * total energy  :  -168.8091237 Eh     change       -0.7233527E-03 Eh
   gradient norm :     0.0186242 Eh/α   predicted    -0.8110090E-03 (  12.12%)
   displ. norm   :     0.4820890 α      lambda       -0.1222785E-02
   maximum displ.:     0.2074184 α      in ANC's #14, #11, #17, ...

........................................................................
.............................. CYCLE   20 ..............................
........................................................................
   1   -170.9705261 -0.170971E+03  0.237E-01    0.20       0.0  T
   2   -170.9706080 -0.819580E-04  0.136E-01    0.28       1.0  T
   3   -170.9676396  0.296845E-02  0.132E-01    0.14       1.0  T
   4   -170.9706857 -0.304616E-02  0.430E-02    0.29       1.0  T
   5   -170.9709103 -0.224552E-03  0.190E-02    0.25       1.0  T
   6   -170.9709378 -0.275612E-04  0.134E-02    0.23       1.0  T
   7   -170.9709488 -0.109991E-04  0.622E-03    0.23       1.7  T
   8   -170.9709495 -0.687374E-06  0.361E-03    0.23       3.0  T
   9   -170.9709505 -0.978719E-06  0.163E-03    0.23       6.6  T
  10   -170.9709506 -0.130984E-06  0.970E-04    0.23      11.2  T
     SCC iter.                  ...        0 min,  0.078 sec
     gradient                   ...        0 min,  0.012 sec
 * total energy  :  -168.8096116 Eh     change       -0.4878855E-03 Eh
   gradient norm :     0.0253458 Eh/α   predicted    -0.7534886E-03 (  54.44%)
   displ. norm   :     0.3556645 α      lambda       -0.1335536E-02
   maximum displ.:     0.1205905 α      in ANC's #45, #8, #17, ...
 * RMSD in coord.:     0.8295770 α      energy gain  -0.5541981E-01 Eh

generating ANC from model Hessian ...
Using Lindh-Hessian (1995)
 Shifting diagonal of input Hessian by   4.978172790812601E-003
 Lowest  eigenvalues of input Hessian
   -0.000000   -0.000000   -0.000000    0.000000    0.000000    0.000000
    0.005000    0.005029    0.005075    0.005162    0.005242    0.005382
    0.005422    0.005516    0.005729    0.005832    0.006102    0.006306
 Highest eigenvalues
    2.220700    2.287584    2.288837    2.306775    2.574122    2.623615
 

........................................................................
.............................. CYCLE   21 ..............................
........................................................................
   1   -170.9817576 -0.170982E+03  0.197E-01    0.25       0.0  T
   2   -170.9818935 -0.135943E-03  0.112E-01    0.24       1.0  T
   3   -170.9818157  0.778606E-04  0.423E-02    0.24       1.0  T
   4   -170.9818813 -0.656832E-04  0.219E-02    0.24       1.0  T
   5   -170.9819135 -0.321221E-04  0.124E-02    0.24       1.0  T
   6   -170.9819258 -0.123217E-04  0.452E-03    0.24       2.4  T
   7   -170.9819266 -0.784548E-06  0.258E-03    0.24       4.2  T
   8   -170.9819269 -0.372343E-06  0.127E-03    0.24       8.5  T
   9   -170.9819270 -0.894898E-07  0.621E-04    0.24      17.5  T
  10   -170.9819270 -0.136201E-07  0.300E-04    0.24      36.1  T
     SCC iter.                  ...        0 min,  0.080 sec
     gradient                   ...        0 min,  0.013 sec
 * total energy  :  -168.8101313 Eh     change       -0.5197089E-03 Eh
   gradient norm :     0.0248166 Eh/α   predicted     0.0000000E+00 (-100.00%)
   displ. norm   :     0.2000482 α      lambda       -0.1039423E-02
   maximum displ.:     0.0905029 α      in ANC's #17, #11, #12, ...

........................................................................
.............................. CYCLE   22 ..............................
........................................................................
   1   -170.9836341 -0.170984E+03  0.113E-01    0.26       0.0  T
   2   -170.9836605 -0.264620E-04  0.619E-02    0.24       1.0  T
   3   -170.9834859  0.174680E-03  0.411E-02    0.26       1.0  T
   4   -170.9836542 -0.168308E-03  0.182E-02    0.25       1.0  T
   5   -170.9836775 -0.233039E-04  0.784E-03    0.24       1.4  T
   6   -170.9836807 -0.321854E-05  0.312E-03    0.25       3.5  T
   7   -170.9836811 -0.374281E-06  0.163E-03    0.25       6.7  T
     SCC iter.                  ...        0 min,  0.055 sec
     gradient                   ...        0 min,  0.012 sec
 * total energy  :  -168.8108776 Eh     change       -0.7463246E-03 Eh
   gradient norm :     0.0091423 Eh/α   predicted    -0.5405101E-03 ( -27.58%)
   displ. norm   :     0.2493717 α      lambda       -0.6394082E-03
   maximum displ.:     0.1114513 α      in ANC's #17, #11, #16, ...

........................................................................
.............................. CYCLE   23 ..............................
........................................................................
   1   -170.9847977 -0.170985E+03  0.127E-01    0.26       0.0  T
   2   -170.9848149 -0.172048E-04  0.713E-02    0.25       1.0  T
   3   -170.9845516  0.263305E-03  0.520E-02    0.26       1.0  T
   4   -170.9848201 -0.268532E-03  0.169E-02    0.26       1.0  T
   5   -170.9848371 -0.169898E-04  0.761E-03    0.25       1.4  T
   6   -170.9848395 -0.237478E-05  0.338E-03    0.25       3.2  T
   7   -170.9848401 -0.626272E-06  0.158E-03    0.25       6.9  T
   8   -170.9848402 -0.109600E-06  0.873E-04    0.25      12.4  T
     SCC iter.                  ...        0 min,  0.063 sec
     gradient                   ...        0 min,  0.012 sec
 * total energy  :  -168.8113098 Eh     change       -0.4321756E-03 Eh
   gradient norm :     0.0078502 Eh/α   predicted    -0.3395860E-03 ( -21.42%)
   displ. norm   :     0.3759836 α      lambda       -0.6226262E-03
   maximum displ.:     0.1624091 α      in ANC's #17, #11, #16, ...

........................................................................
.............................. CYCLE   24 ..............................
........................................................................
   1   -170.9835647 -0.170984E+03  0.196E-01    0.27       0.0  T
   2   -170.9835953 -0.305896E-04  0.111E-01    0.27       1.0  T
   3   -170.9831957  0.399621E-03  0.675E-02    0.26       1.0  T
   4   -170.9835996 -0.403964E-03  0.221E-02    0.26       1.0  T
   5   -170.9836305 -0.308712E-04  0.993E-03    0.26       1.1  T
   6   -170.9836339 -0.340942E-05  0.457E-03    0.26       2.4  T
   7   -170.9836354 -0.147394E-05  0.164E-03    0.26       6.6  T
   8   -170.9836354 -0.221056E-07  0.103E-03    0.26      10.5  T
     SCC iter.                  ...        0 min,  0.062 sec
     gradient                   ...        0 min,  0.012 sec
 * total energy  :  -168.8117876 Eh     change       -0.4778231E-03 Eh
   gradient norm :     0.0125022 Eh/α   predicted    -0.3553219E-03 ( -25.64%)
   displ. norm   :     0.5435644 α      lambda       -0.7961620E-03
   maximum displ.:     0.2320371 α      in ANC's #17, #11, #16, ...

........................................................................
.............................. CYCLE   25 ..............................
........................................................................
   1   -170.9794141 -0.170979E+03  0.289E-01    0.27       0.0  T
   2   -170.9795180 -0.103881E-03  0.161E-01    0.28       1.0  T
   3   -170.9790785  0.439466E-03  0.786E-02    0.27       1.0  T
   4   -170.9794895 -0.411011E-03  0.349E-02    0.27       1.0  T
   5   -170.9795729 -0.834468E-04  0.148E-02    0.28       1.0  T
   6   -170.9795827 -0.980080E-05  0.671E-03    0.28       1.6  T
   7   -170.9795858 -0.303627E-05  0.247E-03    0.28       4.4  T
   8   -170.9795859 -0.147878E-06  0.138E-03    0.28       7.9  T
   9   -170.9795860 -0.385421E-07  0.819E-04    0.28      13.2  T
     SCC iter.                  ...        0 min,  0.070 sec
     gradient                   ...        0 min,  0.012 sec
 * total energy  :  -168.8123254 Eh     change       -0.5377736E-03 Eh
   gradient norm :     0.0190042 Eh/α   predicted    -0.5157008E-03 (  -4.10%)
   displ. norm   :     0.3674292 α      lambda       -0.6472338E-03
   maximum displ.:     0.1360622 α      in ANC's #17, #11, #7, ...

........................................................................
.............................. CYCLE   26 ..............................
........................................................................
   1   -170.9813889 -0.170981E+03  0.168E-01    0.28       0.0  T
   2   -170.9814309 -0.420347E-04  0.929E-02    0.30       1.0  T
   3   -170.9813664  0.644618E-04  0.333E-02    0.28       1.0  T
   4   -170.9814349 -0.685073E-04  0.154E-02    0.29       1.0  T
   5   -170.9814424 -0.742991E-05  0.955E-03    0.29       1.1  T
   6   -170.9814470 -0.460557E-05  0.465E-03    0.29       2.3  T
   7   -170.9814490 -0.204675E-05  0.147E-03    0.29       7.4  T
   8   -170.9814491 -0.925689E-07  0.858E-04    0.29      12.6  T
     SCC iter.                  ...        0 min,  0.066 sec
     gradient                   ...        0 min,  0.013 sec
 * total energy  :  -168.8128148 Eh     change       -0.4893852E-03 Eh
   gradient norm :     0.0151573 Eh/α   predicted    -0.3673167E-03 ( -24.94%)
   displ. norm   :     0.4471873 α      lambda       -0.8326251E-03
   maximum displ.:     0.1615305 α      in ANC's #7, #11, #9, ...

........................................................................
.............................. CYCLE   27 ..............................
........................................................................
   1   -170.9862240 -0.170986E+03  0.195E-01    0.30       0.0  T
   2   -170.9863051 -0.810884E-04  0.107E-01    0.31       1.0  T
   3   -170.9862359  0.691694E-04  0.391E-02    0.29       1.0  T
   4   -170.9863127 -0.767988E-04  0.169E-02    0.31       1.0  T
   5   -170.9863249 -0.122476E-04  0.989E-03    0.31       1.1  T
   6   -170.9863300 -0.503966E-05  0.431E-03    0.31       2.5  T
   7   -170.9863310 -0.102652E-05  0.243E-03    0.31       4.5  T
   8   -170.9863314 -0.411586E-06  0.125E-03    0.31       8.7  T
     SCC iter.                  ...        0 min,  0.063 sec
     gradient                   ...        0 min,  0.012 sec
 * total energy  :  -168.8133500 Eh     change       -0.5352574E-03 Eh
   gradient norm :     0.0108818 Eh/α   predicted    -0.4995676E-03 (  -6.67%)
   displ. norm   :     0.6002487 α      lambda       -0.8258430E-03
   maximum displ.:     0.2183373 α      in ANC's #7, #11, #9, ...

........................................................................
.............................. CYCLE   28 ..............................
........................................................................
   1   -170.9817581 -0.170982E+03  0.282E-01    0.30       0.0  T
   2   -170.9818485 -0.904567E-04  0.158E-01    0.32       1.0  T
   3   -170.9815442  0.304302E-03  0.649E-02    0.30       1.0  T
   4   -170.9818353 -0.291108E-03  0.294E-02    0.31       1.0  T
   5   -170.9818811 -0.458183E-04  0.166E-02    0.32       1.0  T
   6   -170.9818979 -0.167329E-04  0.758E-03    0.31       1.4  T
   7   -170.9819016 -0.369268E-05  0.302E-03    0.31       3.6  T
   8   -170.9819019 -0.353786E-06  0.176E-03    0.31       6.2  T
   9   -170.9819021 -0.135104E-06  0.824E-04    0.31      13.2  T
     SCC iter.                  ...        0 min,  0.071 sec
     gradient                   ...        0 min,  0.012 sec
 * total energy  :  -168.8138793 Eh     change       -0.5292503E-03 Eh
   gradient norm :     0.0164641 Eh/α   predicted    -0.5617002E-03 (   6.13%)
   displ. norm   :     0.3517965 α      lambda       -0.6898164E-03
   maximum displ.:     0.1562769 α      in ANC's #7, #11, #9, ...

........................................................................
.............................. CYCLE   29 ..............................
........................................................................
   1   -170.9880534 -0.170988E+03  0.151E-01    0.31       0.0  T
   2   -170.9880915 -0.380904E-04  0.820E-02    0.32       1.0  T
   3   -170.9880360  0.554754E-04  0.305E-02    0.31       1.0  T
   4   -170.9880920 -0.560459E-04  0.139E-02    0.32       1.0  T
   5   -170.9881018 -0.979145E-05  0.713E-03    0.32       1.5  T
   6   -170.9881047 -0.287337E-05  0.287E-03    0.32       3.8  T
   7   -170.9881051 -0.391233E-06  0.149E-03    0.32       7.3  T
     SCC iter.                  ...        0 min,  0.055 sec
     gradient                   ...        0 min,  0.012 sec
 * total energy  :  -168.8142916 Eh     change       -0.4122947E-03 Eh
   gradient norm :     0.0121563 Eh/α   predicted    -0.3875945E-03 (  -5.99%)
   displ. norm   :     0.5614696 α      lambda       -0.8832597E-03
   maximum displ.:     0.2331738 α      in ANC's #7, #11, #9, ...

........................................................................
.............................. CYCLE   30 ..............................
........................................................................
   1   -170.9838737 -0.170984E+03  0.277E-01    0.30       0.0  T
   2   -170.9841587 -0.284992E-03  0.152E-01    0.32       1.0  T
   3   -170.9840232  0.135506E-03  0.759E-02    0.31       1.0  T
   4   -170.9842095 -0.186305E-03  0.290E-02    0.32       1.0  T
   5   -170.9842576 -0.481297E-04  0.178E-02    0.32       1.0  T
   6   -170.9842764 -0.188311E-04  0.888E-03    0.32       1.2  T
   7   -170.9842824 -0.594813E-05  0.266E-03    0.32       4.1  T
   8   -170.9842825 -0.176501E-06  0.175E-03    0.32       6.2  T
   9   -170.9842827 -0.141331E-06  0.869E-04    0.32      12.5  T
     SCC iter.                  ...        0 min,  0.070 sec
     gradient                   ...        0 min,  0.012 sec
 * total energy  :  -168.8146786 Eh     change       -0.3870519E-03 Eh
   gradient norm :     0.0244814 Eh/α   predicted    -0.5808616E-03 (  50.07%)
   displ. norm   :     0.3140896 α      lambda       -0.9331788E-03
   maximum displ.:     0.1437711 α      in ANC's #7, #9, #3, ...

........................................................................
.............................. CYCLE   31 ..............................
........................................................................
   1   -170.9871640 -0.170987E+03  0.144E-01    0.32       0.0  T
   2   -170.9873142 -0.150189E-03  0.805E-02    0.31       1.0  T
   3   -170.9873115  0.272433E-05  0.433E-02    0.32       1.0  T
   4   -170.9873297 -0.182129E-04  0.209E-02    0.31       1.0  T
   5   -170.9873647 -0.349543E-04  0.104E-02    0.31       1.0  T
   6   -170.9873704 -0.574507E-05  0.569E-03    0.31       1.9  T
   7   -170.9873724 -0.196685E-05  0.162E-03    0.31       6.7  T
     SCC iter.                  ...        0 min,  0.055 sec
     gradient                   ...        0 min,  0.012 sec
 * total energy  :  -168.8148961 Eh     change       -0.2174398E-03 Eh
   gradient norm :     0.0215985 Eh/α   predicted    -0.5126202E-03 ( 135.75%)
   displ. norm   :     0.2113438 α      lambda       -0.8298294E-03
   maximum displ.:     0.0998950 α      in ANC's #7, #9, #3, ...

........................................................................
.............................. CYCLE   32 ..............................
........................................................................
   1   -170.9885679 -0.170989E+03  0.960E-02    0.32       0.0  T
   2   -170.9886459 -0.779882E-04  0.540E-02    0.31       1.0  T
   3   -170.9886365  0.943183E-05  0.315E-02    0.32       1.0  T
   4   -170.9886298  0.666825E-05  0.213E-02    0.31       1.0  T
   5   -170.9886738 -0.440498E-04  0.678E-03    0.32       1.6  T
   6   -170.9886756 -0.179000E-05  0.399E-03    0.32       2.7  T
   7   -170.9886765 -0.849177E-06  0.175E-03    0.32       6.2  T
     SCC iter.                  ...        0 min,  0.055 sec
     gradient                   ...        0 min,  0.012 sec
 * total energy  :  -168.8152918 Eh     change       -0.3957749E-03 Eh
   gradient norm :     0.0145497 Eh/α   predicted    -0.4334506E-03 (   9.52%)
   displ. norm   :     0.3513088 α      lambda       -0.6852314E-03
   maximum displ.:     0.1787803 α      in ANC's #7, #9, #11, ...

........................................................................
.............................. CYCLE   33 ..............................
........................................................................
   1   -170.9888866 -0.170989E+03  0.159E-01    0.31       0.0  T
   2   -170.9889583 -0.716572E-04  0.877E-02    0.32       1.0  T
   3   -170.9888493  0.108992E-03  0.428E-02    0.31       1.0  T
   4   -170.9889619 -0.112652E-03  0.179E-02    0.31       1.0  T
   5   -170.9889807 -0.187526E-04  0.968E-03    0.31       1.1  T
   6   -170.9889862 -0.558179E-05  0.521E-03    0.31       2.1  T
   7   -170.9889881 -0.186347E-05  0.224E-03    0.31       4.8  T
   8   -170.9889884 -0.324803E-06  0.125E-03    0.31       8.7  T
     SCC iter.                  ...        0 min,  0.063 sec
     gradient                   ...        0 min,  0.012 sec
 * total energy  :  -168.8155611 Eh     change       -0.2692752E-03 Eh
   gradient norm :     0.0165835 Eh/α   predicted    -0.3849006E-03 (  42.94%)
   displ. norm   :     0.3015652 α      lambda       -0.4445765E-03
   maximum displ.:     0.1549202 α      in ANC's #7, #3, #11, ...

........................................................................
.............................. CYCLE   34 ..............................
........................................................................
   1   -170.9884903 -0.170988E+03  0.119E-01    0.31       0.0  T
   2   -170.9885072 -0.169626E-04  0.651E-02    0.30       1.0  T
   3   -170.9883172  0.190034E-03  0.465E-02    0.31       1.0  T
   4   -170.9885048 -0.187570E-03  0.181E-02    0.30       1.0  T
   5   -170.9885284 -0.236053E-04  0.732E-03    0.30       1.5  T
   6   -170.9885298 -0.138953E-05  0.421E-03    0.31       2.6  T
   7   -170.9885314 -0.161373E-05  0.161E-03    0.31       6.7  T
   8   -170.9885315 -0.158912E-06  0.861E-04    0.31      12.6  T
     SCC iter.                  ...        0 min,  0.063 sec
     gradient                   ...        0 min,  0.012 sec
 * total energy  :  -168.8158999 Eh     change       -0.3388336E-03 Eh
   gradient norm :     0.0101713 Eh/α   predicted    -0.2425064E-03 ( -28.43%)
   displ. norm   :     0.4513360 α      lambda       -0.6106214E-03
   maximum displ.:     0.2431844 α      in ANC's #7, #3, #2, ...

........................................................................
.............................. CYCLE   35 ..............................
........................................................................
   1   -170.9980474 -0.170998E+03  0.146E-01    0.32       0.0  T
   2   -170.9980780 -0.306020E-04  0.811E-02    0.30       1.0  T
   3   -170.9976865  0.391447E-03  0.637E-02    0.32       1.0  T
   4   -170.9981119 -0.425360E-03  0.196E-02    0.30       1.0  T
   5   -170.9981291 -0.172366E-04  0.112E-02    0.30       1.0  T
   6   -170.9981354 -0.625291E-05  0.529E-03    0.31       2.0  T
   7   -170.9981372 -0.180125E-05  0.268E-03    0.31       4.0  T
   8   -170.9981377 -0.566759E-06  0.101E-03    0.31      10.7  T
     SCC iter.                  ...        0 min,  0.064 sec
     gradient                   ...        0 min,  0.012 sec
 * total energy  :  -168.8162013 Eh     change       -0.3013739E-03 Eh
   gradient norm :     0.0114889 Eh/α   predicted    -0.3675053E-03 (  21.94%)
   displ. norm   :     0.6710946 α      lambda       -0.6433720E-03
   maximum displ.:     0.3515568 α      in ANC's #7, #11, #3, ...

........................................................................
.............................. CYCLE   36 ..............................
........................................................................
   1   -170.9823526 -0.170982E+03  0.273E-01    0.28       0.0  T
   2   -170.9824098 -0.571836E-04  0.151E-01    0.29       1.0  T
   3   -170.9815568  0.853009E-03  0.975E-02    0.29       1.0  T
   4   -170.9824281 -0.871286E-03  0.296E-02    0.28       1.0  T
   5   -170.9824728 -0.446708E-04  0.152E-02    0.29       1.0  T
   6   -170.9824844 -0.116733E-04  0.593E-03    0.29       1.8  T
   7   -170.9824866 -0.222090E-05  0.311E-03    0.29       3.5  T
   8   -170.9824873 -0.614613E-06  0.164E-03    0.29       6.6  T
   9   -170.9824874 -0.107108E-06  0.863E-04    0.29      12.6  T
     SCC iter.                  ...        0 min,  0.071 sec
     gradient                   ...        0 min,  0.012 sec
 * total energy  :  -168.8163588 Eh     change       -0.1575079E-03 Eh
   gradient norm :     0.0237742 Eh/α   predicted    -0.4665705E-03 ( 196.22%)
   displ. norm   :     0.2244472 α      lambda       -0.7963757E-03
   maximum displ.:     0.0998753 α      in ANC's #7, #4, #3, ...

........................................................................
.............................. CYCLE   37 ..............................
........................................................................
   1   -170.9880116 -0.170988E+03  0.929E-02    0.29       0.0  T
   2   -170.9880821 -0.705439E-04  0.517E-02    0.30       1.0  T
   3   -170.9880636  0.185286E-04  0.295E-02    0.29       1.0  T
   4   -170.9880835 -0.199128E-04  0.154E-02    0.29       1.0  T
   5   -170.9881031 -0.196059E-04  0.627E-03    0.29       1.7  T
   6   -170.9881048 -0.173394E-05  0.370E-03    0.29       2.9  T
   7   -170.9881058 -0.934687E-06  0.178E-03    0.29       6.1  T
     SCC iter.                  ...        0 min,  0.055 sec
     gradient                   ...        0 min,  0.012 sec
 * total energy  :  -168.8166618 Eh     change       -0.3030184E-03 Eh
   gradient norm :     0.0167107 Eh/α   predicted    -0.4182472E-03 (  38.03%)
   displ. norm   :     0.2534932 α      lambda       -0.5683055E-03
   maximum displ.:     0.1343310 α      in ANC's #7, #3, #4, ...

........................................................................
.............................. CYCLE   38 ..............................
........................................................................
   1   -170.9956076 -0.170996E+03  0.949E-02    0.30       0.0  T
   2   -170.9956626 -0.549520E-04  0.522E-02    0.29       1.0  T
   3   -170.9956172  0.453286E-04  0.327E-02    0.30       1.0  T
   4   -170.9956472 -0.300059E-04  0.195E-02    0.29       1.0  T
   5   -170.9956808 -0.335855E-04  0.685E-03    0.29       1.6  T
   6   -170.9956835 -0.270088E-05  0.319E-03    0.29       3.4  T
   7   -170.9956841 -0.562012E-06  0.172E-03    0.29       6.3  T
   8   -170.9956843 -0.191937E-06  0.860E-04    0.29      12.6  T
     SCC iter.                  ...        0 min,  0.063 sec
     gradient                   ...        0 min,  0.012 sec
 * total energy  :  -168.8168852 Eh     change       -0.2233640E-03 Eh
   gradient norm :     0.0142847 Eh/α   predicted    -0.3024130E-03 (  35.39%)
   displ. norm   :     0.3330095 α      lambda       -0.4839149E-03
   maximum displ.:     0.1909096 α      in ANC's #7, #3, #4, ...

........................................................................
.............................. CYCLE   39 ..............................
........................................................................
   1   -170.9947439 -0.170995E+03  0.114E-01    0.30       0.0  T
   2   -170.9947826 -0.387077E-04  0.653E-02    0.29       1.0  T
   3   -170.9946659  0.116742E-03  0.409E-02    0.30       1.0  T
   4   -170.9947465 -0.806351E-04  0.250E-02    0.29       1.0  T
   5   -170.9948054 -0.588906E-04  0.621E-03    0.30       1.7  T
   6   -170.9948056 -0.192268E-06  0.390E-03    0.30       2.8  T
   7   -170.9948067 -0.112087E-05  0.156E-03    0.30       7.0  T
   8   -170.9948069 -0.167477E-06  0.847E-04    0.30      12.8  T
     SCC iter.                  ...        0 min,  0.063 sec
     gradient                   ...        0 min,  0.012 sec
 * total energy  :  -168.8171883 Eh     change       -0.3031012E-03 Eh
   gradient norm :     0.0114140 Eh/α   predicted    -0.2687960E-03 ( -11.32%)
   displ. norm   :     0.5416005 α      lambda       -0.4402726E-03
   maximum displ.:     0.3100939 α      in ANC's #7, #3, #4, ...

........................................................................
.............................. CYCLE   40 ..............................
........................................................................
   1   -170.9886058 -0.170989E+03  0.188E-01    0.27       0.0  T
   2   -170.9886467 -0.409206E-04  0.105E-01    0.29       1.0  T
   3   -170.9885286  0.118097E-03  0.401E-02    0.27       1.0  T
   4   -170.9886333 -0.104680E-03  0.203E-02    0.28       1.0  T
   5   -170.9886551 -0.217948E-04  0.109E-02    0.29       1.0  T
   6   -170.9886644 -0.926356E-05  0.375E-03    0.28       2.9  T
   7   -170.9886650 -0.661046E-06  0.199E-03    0.28       5.5  T
   8   -170.9886653 -0.259285E-06  0.898E-04    0.28      12.1  T
     SCC iter.                  ...        0 min,  0.064 sec
     gradient                   ...        0 min,  0.012 sec
 * total energy  :  -168.8174749 Eh     change       -0.2866077E-03 Eh
   gradient norm :     0.0114056 Eh/α   predicted    -0.2847103E-03 (  -0.66%)
   displ. norm   :     0.4340217 α      lambda       -0.4230986E-03
   maximum displ.:     0.2312541 α      in ANC's #7, #4, #3, ...

........................................................................
.............................. CYCLE   41 ..............................
........................................................................
   1   -170.9887589 -0.170989E+03  0.143E-01    0.29       0.0  T
   2   -170.9887780 -0.190802E-04  0.786E-02    0.29       1.0  T
   3   -170.9887371  0.408704E-04  0.254E-02    0.29       1.0  T
   4   -170.9887636 -0.264654E-04  0.163E-02    0.29       1.0  T
   5   -170.9887819 -0.182779E-04  0.764E-03    0.29       1.4  T
   6   -170.9887847 -0.284268E-05  0.359E-03    0.29       3.0  T
   7   -170.9887858 -0.109309E-05  0.108E-03    0.29      10.0  T
   8   -170.9887859 -0.537582E-07  0.632E-04    0.29      17.2  T
     SCC iter.                  ...        0 min,  0.064 sec
     gradient                   ...        0 min,  0.012 sec
 * total energy  :  -168.8177750 Eh     change       -0.3000670E-03 Eh
   gradient norm :     0.0082094 Eh/α   predicted    -0.2514009E-03 ( -16.22%)
   displ. norm   :     0.5565660 α      lambda       -0.4055606E-03
   maximum displ.:     0.3021160 α      in ANC's #7, #4, #3, ...

........................................................................
.............................. CYCLE   42 ..............................
........................................................................
   1   -170.9903126 -0.170990E+03  0.186E-01    0.29       0.0  T
   2   -170.9903470 -0.344178E-04  0.102E-01    0.29       1.0  T
   3   -170.9903236  0.233779E-04  0.261E-02    0.29       1.0  T
   4   -170.9903458 -0.222076E-04  0.139E-02    0.29       1.0  T
   5   -170.9903481 -0.226907E-05  0.105E-02    0.29       1.0  T
   6   -170.9903577 -0.966424E-05  0.281E-03    0.29       3.9  T
   7   -170.9903582 -0.456907E-06  0.155E-03    0.29       7.0  T
   8   -170.9903584 -0.158965E-06  0.761E-04    0.29      14.2  T
     SCC iter.                  ...        0 min,  0.064 sec
     gradient                   ...        0 min,  0.012 sec
 * total energy  :  -168.8180450 Eh     change       -0.2700663E-03 Eh
   gradient norm :     0.0089898 Eh/α   predicted    -0.2655956E-03 (  -1.66%)
   displ. norm   :     0.4482062 α      lambda       -0.3366196E-03
   maximum displ.:     0.2384858 α      in ANC's #7, #4, #3, ...
 * RMSD in coord.:     0.7666917 α      energy gain  -0.8433475E-02 Eh

generating ANC from model Hessian ...
Using Lindh-Hessian (1995)
 Shifting diagonal of input Hessian by   4.978974123703601E-003
 Lowest  eigenvalues of input Hessian
   -0.000000   -0.000000   -0.000000    0.000000    0.000000    0.000000
    0.005000    0.005014    0.005068    0.005165    0.005225    0.005408
    0.005437    0.005523    0.005786    0.005981    0.006090    0.006329
 Highest eigenvalues
    2.243496    2.285587    2.297324    2.300840    2.621578    2.642366
 

........................................................................
.............................. CYCLE   43 ..............................
........................................................................
   1   -170.9928202 -0.170993E+03  0.149E-01    0.29       0.0  T
   2   -170.9928415 -0.212603E-04  0.804E-02    0.29       1.0  T
   3   -170.9928188  0.227090E-04  0.212E-02    0.30       1.0  T
   4   -170.9928378 -0.190386E-04  0.129E-02    0.29       1.0  T
   5   -170.9928426 -0.474831E-05  0.822E-03    0.29       1.3  T
   6   -170.9928480 -0.545304E-05  0.302E-03    0.30       3.6  T
   7   -170.9928487 -0.703528E-06  0.134E-03    0.30       8.1  T
   8   -170.9928489 -0.129667E-06  0.608E-04    0.30      17.8  T
   9   -170.9928489 -0.146644E-07  0.331E-04    0.30      32.8  T
     SCC iter.                  ...        0 min,  0.071 sec
     gradient                   ...        0 min,  0.013 sec
 * total energy  :  -168.8182716 Eh     change       -0.2265442E-03 Eh
   gradient norm :     0.0087432 Eh/α   predicted     0.0000000E+00 (-100.00%)
   displ. norm   :     0.1166724 α      lambda       -0.1940756E-03
   maximum displ.:     0.0615315 α      in ANC's #17, #13, #3, ...

........................................................................
.............................. CYCLE   44 ..............................
........................................................................
   1   -170.9930829 -0.170993E+03  0.569E-02    0.30       0.0  T
   2   -170.9930859 -0.296662E-05  0.302E-02    0.30       1.0  T
   3   -170.9930657  0.201637E-04  0.152E-02    0.30       1.0  T
   4   -170.9930856 -0.198736E-04  0.609E-03    0.30       1.8  T
   5   -170.9930874 -0.183190E-05  0.307E-03    0.30       3.5  T
   6   -170.9930879 -0.523176E-06  0.105E-03    0.30      10.3  T
   7   -170.9930880 -0.740169E-07  0.473E-04    0.30      22.9  T
     SCC iter.                  ...        0 min,  0.056 sec
     gradient                   ...        0 min,  0.012 sec
 * total energy  :  -168.8184285 Eh     change       -0.1569299E-03 Eh
   gradient norm :     0.0038971 Eh/α   predicted    -0.9842080E-04 ( -37.28%)
   displ. norm   :     0.1620442 α      lambda       -0.1834079E-03
   maximum displ.:     0.0844062 α      in ANC's #17, #13, #8, ...

........................................................................
.............................. CYCLE   45 ..............................
........................................................................
   1   -170.9934357 -0.170993E+03  0.814E-02    0.30       0.0  T
   2   -170.9934400 -0.432882E-05  0.442E-02    0.30       1.0  T
   3   -170.9933958  0.442489E-04  0.225E-02    0.30       1.0  T
   4   -170.9934406 -0.448554E-04  0.790E-03    0.30       1.4  T
   5   -170.9934430 -0.230476E-05  0.439E-03    0.30       2.5  T
   6   -170.9934442 -0.126385E-05  0.150E-03    0.30       7.2  T
   7   -170.9934444 -0.200254E-06  0.662E-04    0.30      16.4  T
   8   -170.9934444 -0.274046E-07  0.363E-04    0.30      29.8  T
     SCC iter.                  ...        0 min,  0.063 sec
     gradient                   ...        0 min,  0.013 sec
 * total energy  :  -168.8185679 Eh     change       -0.1393675E-03 Eh
   gradient norm :     0.0036190 Eh/α   predicted    -0.9411224E-04 ( -32.47%)
   displ. norm   :     0.3002771 α      lambda       -0.2353587E-03
   maximum displ.:     0.1477751 α      in ANC's #17, #13, #8, ...

........................................................................
.............................. CYCLE   46 ..............................
........................................................................
   1   -170.9931059 -0.170993E+03  0.148E-01    0.30       0.0  T
   2   -170.9931223 -0.164211E-04  0.802E-02    0.31       1.0  T
   3   -170.9930606  0.617186E-04  0.300E-02    0.30       1.0  T
   4   -170.9931203 -0.597173E-04  0.140E-02    0.30       1.0  T
   5   -170.9931256 -0.531639E-05  0.837E-03    0.31       1.3  T
   6   -170.9931320 -0.639721E-05  0.217E-03    0.31       5.0  T
   7   -170.9931324 -0.360798E-06  0.897E-04    0.31      12.1  T
   8   -170.9931324 -0.195029E-07  0.538E-04    0.31      20.2  T
     SCC iter.                  ...        0 min,  0.063 sec
     gradient                   ...        0 min,  0.013 sec
 * total energy  :  -168.8187047 Eh     change       -0.1367808E-03 Eh
   gradient norm :     0.0077264 Eh/α   predicted    -0.1282905E-03 (  -6.21%)
   displ. norm   :     0.2480076 α      lambda       -0.1675452E-03
   maximum displ.:     0.1154322 α      in ANC's #17, #8, #3, ...

........................................................................
.............................. CYCLE   47 ..............................
........................................................................
   1   -170.9927689 -0.170993E+03  0.121E-01    0.31       0.0  T
   2   -170.9927806 -0.116731E-04  0.649E-02    0.31       1.0  T
   3   -170.9927540  0.265785E-04  0.211E-02    0.31       1.0  T
   4   -170.9927769 -0.229234E-04  0.121E-02    0.31       1.0  T
   5   -170.9927826 -0.568258E-05  0.655E-03    0.31       1.7  T
   6   -170.9927862 -0.352768E-05  0.196E-03    0.31       5.5  T
   7   -170.9927865 -0.360828E-06  0.694E-04    0.31      15.6  T
   8   -170.9927865 -0.807381E-08  0.434E-04    0.31      25.0  T
     SCC iter.                  ...        0 min,  0.063 sec
     gradient                   ...        0 min,  0.012 sec
 * total energy  :  -168.8188212 Eh     change       -0.1165701E-03 Eh
   gradient norm :     0.0080892 Eh/α   predicted    -0.8892554E-04 ( -23.71%)
   displ. norm   :     0.3023612 α      lambda       -0.2072018E-03
   maximum displ.:     0.1280394 α      in ANC's #17, #8, #3, ...

........................................................................
.............................. CYCLE   48 ..............................
........................................................................
   1   -170.9931157 -0.170993E+03  0.142E-01    0.32       0.0  T
   2   -170.9931359 -0.202008E-04  0.759E-02    0.32       1.0  T
   3   -170.9931181  0.177841E-04  0.209E-02    0.31       1.0  T
   4   -170.9931340 -0.158721E-04  0.125E-02    0.32       1.0  T
   5   -170.9931372 -0.322307E-05  0.877E-03    0.32       1.2  T
   6   -170.9931430 -0.582238E-05  0.286E-03    0.32       3.8  T
   7   -170.9931439 -0.855087E-06  0.942E-04    0.32      11.5  T
   8   -170.9931439 -0.330151E-07  0.604E-04    0.32      18.0  T
     SCC iter.                  ...        0 min,  0.063 sec
     gradient                   ...        0 min,  0.012 sec
 * total energy  :  -168.8189877 Eh     change       -0.1664861E-03 Eh
   gradient norm :     0.0060149 Eh/α   predicted    -0.1130756E-03 ( -32.08%)
   displ. norm   :     0.4546348 α      lambda       -0.3154076E-03
   maximum displ.:     0.1775627 α      in ANC's #8, #17, #3, ...

........................................................................
.............................. CYCLE   49 ..............................
........................................................................
   1   -170.9931384 -0.170993E+03  0.208E-01    0.32       0.0  T
   2   -170.9931827 -0.442801E-04  0.112E-01    0.34       1.0  T
   3   -170.9931116  0.711315E-04  0.331E-02    0.32       1.0  T
   4   -170.9931760 -0.644414E-04  0.181E-02    0.34       1.0  T
   5   -170.9931910 -0.149939E-04  0.116E-02    0.33       1.0  T
   6   -170.9932018 -0.107924E-04  0.407E-03    0.33       2.7  T
   7   -170.9932029 -0.113608E-05  0.172E-03    0.33       6.3  T
   8   -170.9932031 -0.149075E-06  0.103E-03    0.33      10.5  T
     SCC iter.                  ...        0 min,  0.067 sec
     gradient                   ...        0 min,  0.013 sec
 * total energy  :  -168.8192120 Eh     change       -0.2243110E-03 Eh
   gradient norm :     0.0067820 Eh/α   predicted    -0.1903067E-03 ( -15.16%)
   displ. norm   :     0.4911077 α      lambda       -0.2936642E-03
   maximum displ.:     0.1966915 α      in ANC's #8, #3, #4, ...

........................................................................
.............................. CYCLE   50 ..............................
........................................................................
   1   -170.9912552 -0.170991E+03  0.222E-01    0.32       0.0  T
   2   -170.9913224 -0.671764E-04  0.120E-01    0.35       1.0  T
   3   -170.9911568  0.165568E-03  0.448E-02    0.32       1.0  T
   4   -170.9913087 -0.151904E-03  0.222E-02    0.35       1.0  T
   5   -170.9913470 -0.383077E-04  0.128E-02    0.34       1.0  T
   6   -170.9913557 -0.866884E-05  0.609E-03    0.34       1.8  T
   7   -170.9913585 -0.283372E-05  0.216E-03    0.34       5.0  T
   8   -170.9913588 -0.306275E-06  0.117E-03    0.34       9.3  T
     SCC iter.                  ...        0 min,  0.063 sec
     gradient                   ...        0 min,  0.012 sec
 * total energy  :  -168.8194180 Eh     change       -0.2059110E-03 Eh
   gradient norm :     0.0085754 Eh/α   predicted    -0.1822542E-03 ( -11.49%)
   displ. norm   :     0.4148289 α      lambda       -0.2880798E-03
   maximum displ.:     0.1808124 α      in ANC's #8, #3, #2, ...

........................................................................
.............................. CYCLE   51 ..............................
........................................................................
   1   -170.9925280 -0.170993E+03  0.171E-01    0.33       0.0  T
   2   -170.9925726 -0.445912E-04  0.924E-02    0.35       1.0  T
   3   -170.9924592  0.113421E-03  0.375E-02    0.33       1.0  T
   4   -170.9925584 -0.992244E-04  0.194E-02    0.36       1.0  T
   5   -170.9925890 -0.306158E-04  0.109E-02    0.35       1.0  T
   6   -170.9925938 -0.475385E-05  0.576E-03    0.35       1.9  T
   7   -170.9925969 -0.305631E-05  0.175E-03    0.35       6.2  T
   8   -170.9925971 -0.244354E-06  0.854E-04    0.35      12.7  T
   9   -170.9925971 -0.262061E-07  0.479E-04    0.35      22.6  T
     SCC iter.                  ...        0 min,  0.070 sec
     gradient                   ...        0 min,  0.012 sec
 * total energy  :  -168.8196418 Eh     change       -0.2238215E-03 Eh
   gradient norm :     0.0082947 Eh/α   predicted    -0.1688278E-03 ( -24.57%)
   displ. norm   :     0.5509792 α      lambda       -0.3704645E-03
   maximum displ.:     0.2345838 α      in ANC's #8, #3, #2, ...

........................................................................
.............................. CYCLE   52 ..............................
........................................................................
   1   -170.9902455 -0.170990E+03  0.228E-01    0.33       0.0  T
   2   -170.9903077 -0.621902E-04  0.124E-01    0.36       1.0  T
   3   -170.9900656  0.242125E-03  0.474E-02    0.33       1.0  T
   4   -170.9903091 -0.243512E-03  0.206E-02    0.36       1.0  T
   5   -170.9903310 -0.219663E-04  0.142E-02    0.36       1.0  T
   6   -170.9903453 -0.142041E-04  0.546E-03    0.36       2.0  T
   7   -170.9903472 -0.189714E-05  0.256E-03    0.36       4.2  T
   8   -170.9903477 -0.516468E-06  0.119E-03    0.36       9.1  T
     SCC iter.                  ...        0 min,  0.063 sec
     gradient                   ...        0 min,  0.012 sec
 * total energy  :  -168.8199272 Eh     change       -0.2853927E-03 Eh
   gradient norm :     0.0097270 Eh/α   predicted    -0.2414699E-03 ( -15.39%)
   displ. norm   :     0.5007625 α      lambda       -0.4595184E-03
   maximum displ.:     0.2189286 α      in ANC's #3, #8, #2, ...

........................................................................
.............................. CYCLE   53 ..............................
........................................................................
   1   -170.9946708 -0.170995E+03  0.182E-01    0.35       0.0  T
   2   -170.9947211 -0.502743E-04  0.991E-02    0.37       1.0  T
   3   -170.9946557  0.654036E-04  0.357E-02    0.36       1.0  T
   4   -170.9947293 -0.735871E-04  0.149E-02    0.37       1.0  T
   5   -170.9947363 -0.702717E-05  0.872E-03    0.37       1.2  T
   6   -170.9947410 -0.466956E-05  0.318E-03    0.37       3.4  T
   7   -170.9947417 -0.767780E-06  0.118E-03    0.37       9.2  T
   8   -170.9947418 -0.326262E-07  0.767E-04    0.37      14.1  T
     SCC iter.                  ...        0 min,  0.063 sec
     gradient                   ...        0 min,  0.012 sec
 * total energy  :  -168.8201812 Eh     change       -0.2540777E-03 Eh
   gradient norm :     0.0108287 Eh/α   predicted    -0.2873830E-03 (  13.11%)
   displ. norm   :     0.6197005 α      lambda       -0.4187537E-03
   maximum displ.:     0.2603757 α      in ANC's #3, #8, #2, ...

........................................................................
.............................. CYCLE   54 ..............................
........................................................................
   1   -170.9851653 -0.170985E+03  0.258E-01    0.34       0.0  T
   2   -170.9852626 -0.973578E-04  0.139E-01    0.39       1.0  T
   3   -170.9848109  0.451724E-03  0.626E-02    0.33       1.0  T
   4   -170.9852761 -0.465219E-03  0.239E-02    0.38       1.0  T
   5   -170.9853034 -0.272737E-04  0.164E-02    0.37       1.0  T
   6   -170.9853272 -0.238425E-04  0.528E-03    0.37       2.1  T
   7   -170.9853288 -0.159614E-05  0.263E-03    0.37       4.1  T
   8   -170.9853293 -0.446220E-06  0.131E-03    0.37       8.3  T
     SCC iter.                  ...        0 min,  0.063 sec
     gradient                   ...        0 min,  0.012 sec
 * total energy  :  -168.8204054 Eh     change       -0.2241868E-03 Eh
   gradient norm :     0.0138449 Eh/α   predicted    -0.2897871E-03 (  29.26%)
   displ. norm   :     0.2706162 α      lambda       -0.3299901E-03
   maximum displ.:     0.1291382 α      in ANC's #3, #2, #8, ...

........................................................................
.............................. CYCLE   55 ..............................
........................................................................
   1   -170.9875618 -0.170988E+03  0.101E-01    0.38       0.0  T
   2   -170.9875862 -0.244129E-04  0.545E-02    0.38       1.0  T
   3   -170.9875705  0.156785E-04  0.210E-02    0.38       1.0  T
   4   -170.9875897 -0.191147E-04  0.899E-03    0.38       1.2  T
   5   -170.9875912 -0.157150E-05  0.640E-03    0.38       1.7  T
   6   -170.9875935 -0.226550E-05  0.308E-03    0.38       3.5  T
   7   -170.9875945 -0.958763E-06  0.943E-04    0.38      11.5  T
   8   -170.9875945 -0.606032E-07  0.547E-04    0.38      19.8  T
     SCC iter.                  ...        0 min,  0.062 sec
     gradient                   ...        0 min,  0.012 sec
 * total energy  :  -168.8205948 Eh     change       -0.1893770E-03 Eh
[...]
       138        2.0000           -0.4334640             -11.7952
       139        2.0000           -0.4289572             -11.6725
       140        2.0000           -0.4257024             -11.5840
       141        2.0000           -0.4182555             -11.3813
       142        2.0000           -0.4173119             -11.3556
       143        2.0000           -0.4150058             -11.2929
       144        2.0000           -0.4140736             -11.2675
       145        2.0000           -0.4132430             -11.2449
       146        2.0000           -0.4092501             -11.1363
       147        2.0000           -0.4067072             -11.0671
       148        2.0000           -0.4016608             -10.9297
       149        2.0000           -0.3822092             -10.4004
       150        1.9999           -0.3698215             -10.0634 (HOMO)
       151        0.0001           -0.3503232              -9.5328 (LUMO)
       152        0.0000           -0.3455882              -9.4039
       153                         -0.3358030              -9.1377
       154                         -0.3249081              -8.8412
       155                         -0.3206802              -8.7262
       156                         -0.3052969              -8.3076
       157                         -0.2869186              -7.8075
       158                         -0.2838399              -7.7237
       159                         -0.2802543              -7.6261
       160                         -0.2705951              -7.3633
       161                         -0.2633101              -7.1650
       ...                                ...                  ...
       293                          0.7324951              19.9322
      -------------------------------------------------------------
                  HL-Gap            0.0194983 Eh            0.5306 eV
             Fermi-level           -0.3600756 Eh           -9.7982 eV

     #   Z        covCN         q      C6AA      α(0)
     1   6 C      2.931    -0.020    28.505     8.756
     2   6 C      3.237    -0.009    27.338     8.481
     3   6 C      3.252    -0.028    27.609     8.502
     4   6 C      2.924    -0.011    28.300     8.724
     5  16 S      2.341     0.078   137.890    19.764
     6   6 C      2.864     0.231    23.161     7.889
     7   8 O      0.972    -0.344    20.547     6.080
     8   6 C      3.015    -0.028    28.678     8.784
     9   6 C      2.994     0.040    27.103     8.540
    10   6 C      2.827    -0.041    29.020     8.827
    11   7 N      2.760     0.567    13.299     5.416
    12   8 O      0.929    -0.367    21.001     6.146
    13   8 O      0.929    -0.355    20.777     6.113
    14   7 N      2.759     0.541    13.573     5.472
    15   8 O      0.934    -0.392    21.479     6.216
    16   8 O      0.929    -0.421    22.067     6.300
    17   6 C      2.918    -0.020    28.511     8.756
    18   6 C      2.977     0.013    27.724     8.637
    19  16 S      2.391     0.087   137.568    19.741
    20   6 C      2.996    -0.006    28.156     8.704
    21   6 C      3.109    -0.005    28.008     8.671
    22   6 C      3.130     0.004    27.719     8.620
    23   6 C      3.808    -0.066    21.759     6.640
    24   6 C      3.812    -0.057    21.584     6.613
    25   6 C      3.858    -0.040    21.248     6.556
    26   6 C      2.764     0.213    23.487     7.937
    27   8 O      0.856    -0.308    19.934     5.986
    28   6 C      3.814    -0.059    21.620     6.618
    29   6 C      2.913     0.105    25.668     8.308
    30   6 C      2.864     0.113    25.496     8.277
    31   8 O      1.709    -0.238    17.938     5.718
    32   6 C      3.094     0.110    25.470     8.272
    33   6 C      3.097     0.110    25.455     8.269
    34   6 C      2.933    -0.056    29.395     8.892
    35  16 S      2.335     0.011   140.626    19.959
    36   6 C      2.933    -0.057    29.420     8.895
    37   8 O      1.709    -0.230    17.806     5.697
    38   6 C      2.898    -0.055    29.363     8.885
    39   6 C      2.945    -0.039    28.962     8.827
    40   6 C      2.998     0.018    27.595     8.617
    41  16 S      2.285     0.014   140.505    19.950
    42   6 C      3.102     0.025    27.308     8.563
    43   6 C      3.214    -0.044    28.405     8.672
    44   6 C      3.049    -0.031    28.716     8.789
    45   6 C      2.890     0.234    23.106     7.881
    46   8 O      0.856    -0.327    20.274     6.037
    47   6 C      3.046    -0.019    28.433     8.745
    48   6 C      2.966    -0.042    29.051     8.841
    49   6 C      2.897    -0.028    28.698     8.783
    50   6 C      2.941    -0.033    28.826     8.806
    51   6 C      2.999     0.024    27.462     8.596
    52  16 S      2.285     0.025   140.046    19.918
    53   6 C      3.094     0.022    27.393     8.578
    54   6 C      3.221    -0.041    28.262     8.642
    55   6 C      3.053    -0.028    28.653     8.779
    56   6 C      2.888     0.239    23.025     7.867
    57   8 O      0.856    -0.320    20.149     6.018
    58   6 C      3.040    -0.017    28.389     8.739
    59   6 C      2.974    -0.036    28.898     8.818
    60   6 C      2.890    -0.020    28.510     8.754
    61   6 C      2.840    -0.075    29.851     8.954
    62   1 H      0.926     0.076     2.017     2.221
    63   1 H      0.926     0.077     2.014     2.219
    64   1 H      0.926     0.109     1.708     2.044
    65   1 H      0.924     0.080     1.975     2.198
    66   1 H      0.924     0.066     2.133     2.284
    67   1 H      0.924     0.046     2.370     2.408
    68   1 H      0.924     0.050     2.317     2.380
    69   1 H      0.924     0.067     2.115     2.274
    70   1 H      0.922     0.018     2.763     2.600
    71   1 H      0.924     0.053     2.289     2.366
    72   1 H      0.924     0.048     2.344     2.394
    73   1 H      0.927     0.074     2.042     2.235
    74   1 H      0.927     0.072     2.060     2.245
    75   1 H      0.926     0.070     2.081     2.256
    76   1 H      0.926     0.053     2.286     2.364
    77   1 H      0.926     0.063     2.164     2.300
    78   1 H      0.926     0.052     2.291     2.367
    79   1 H      0.925     0.066     2.129     2.282
    80   1 H      0.925     0.053     2.280     2.361
    81   1 H      0.926     0.068     2.105     2.269
    82   1 H      0.926     0.055     2.257     2.349
    83   1 H      0.925     0.043     2.416     2.431
    84   1 H      0.926     0.079     1.990     2.206
    85   1 H      0.926     0.050     2.314     2.379

 Mol. C6AA /au·bohr⁶  :     140106.486223
 Mol. C8AA /au·bohr⁸  :    3987390.768098
 Mol. α(0) /au        :        596.262412


Wiberg/Mayer (AO) data.
largest (>0.10) Wiberg bond orders for each atom
          total WBO             WBO to atom ...
     1  C   3.936        C    2 1.559    S    5 1.216    H   62 0.965
     2  C   3.978        C    1 1.559    C    3 1.162    C    9 1.082
     3  C   3.977        C    4 1.586    C    2 1.162    C    6 1.029
     4  C   3.948        C    3 1.586    S    5 1.205    H   63 0.966
     5  S   2.663        C    1 1.216    C    4 1.205
     6  C   3.932        O    7 1.716    C    8 1.056    C    3 1.029
     7  O   2.141        C    6 1.716    S   19 0.139
     8  C   3.962        C   17 1.440    C    9 1.176    C    6 1.056
     9  C   3.947        C   10 1.475    C    8 1.176    C    2 1.082
    10  C   3.873        C    9 1.475    N   14 1.047    N   11 0.915
    11  N   3.913        O   13 1.482    O   12 1.470    C   10 0.915
    12  O   1.957        N   11 1.470    O   13 0.385
    13  O   1.966        N   11 1.482    O   12 0.385
    14  N   3.900        O   15 1.416    O   16 1.375    C   10 1.047
    15  O   1.885        N   14 1.416    O   16 0.317
    16  O   1.873        N   14 1.375    O   15 0.317
    17  C   3.927        C    8 1.440    C   18 1.349    H   64 0.917
    18  C   3.935        C   17 1.349    C   22 1.292    S   19 1.108
    19  S   2.796        C   20 1.199    C   18 1.108    O    7 0.139
    20  C   3.929        C   21 1.351    S   19 1.199    C   29 1.138
    21  C   3.963        C   22 1.400    C   20 1.351    C   28 1.012
    22  C   3.958        C   21 1.400    C   18 1.292    C   23 1.021
    23  C   3.992        C   22 1.021    C   24 1.003    H   65 0.951    H   66 0.950
    24  C   3.994        C   23 1.003    H   67 0.976    H   68 0.976    C   25 0.972
    25  C   3.993        C   26 0.990    C   28 0.973    C   24 0.972    H   69 0.963
    26  C   3.912        O   27 1.941    C   25 0.990    H   70 0.928
    27  O   2.103        C   26 1.941
    28  C   3.994        C   21 1.012    C   25 0.973    H   72 0.966    H   71 0.947
    29  C   3.858        C   30 1.474    C   20 1.138    O   37 1.022
    30  C   3.886        C   29 1.474    C   38 1.184    O   31 1.020
    31  O   2.294        C   32 1.025    C   30 1.020
    32  C   3.926        C   36 1.575    C   33 1.170    O   31 1.025
    33  C   3.925        C   34 1.573    C   32 1.170    O   37 1.025
    34  C   3.923        C   33 1.573    S   35 1.171    H   73 0.967
    35  S   2.593        C   34 1.171    C   36 1.171
    36  C   3.926        C   32 1.575    S   35 1.171    H   74 0.968
    37  O   2.304        C   33 1.025    C   29 1.022
    38  C   3.936        C   39 1.597    C   30 1.184    H   75 0.957
    39  C   3.958        C   38 1.597    C   40 1.237    H   76 0.954
    40  C   3.906        C   44 1.402    C   39 1.237    S   41 1.100
    41  S   2.588        C   42 1.198    C   40 1.100
    42  C   3.916        C   43 1.314    C   48 1.210    S   41 1.198
    43  C   3.945        C   44 1.387    C   42 1.314    C   45 1.015
    44  C   3.958        C   40 1.402    C   43 1.387    H   77 0.959
    45  C   3.919        O   46 1.836    C   43 1.015    C   47 0.965
    46  O   2.093        C   45 1.836
    47  C   3.940        C   48 1.511    C   49 1.258    C   45 0.965
    48  C   3.895        C   47 1.511    C   42 1.210    H   78 0.967
    49  C   3.953        C   50 1.549    C   47 1.258    H   79 0.958
    50  C   3.934        C   49 1.549    C   51 1.260    H   80 0.960
    51  C   3.924        C   55 1.384    C   50 1.260    S   52 1.105
    52  S   2.617        C   53 1.210    C   51 1.105
    53  C   3.898        C   54 1.334    S   52 1.210    C   59 1.169
    54  C   3.965        C   55 1.396    C   53 1.334    C   56 0.999
    55  C   3.944        C   54 1.396    C   51 1.384    H   81 0.958
    56  C   3.921        O   57 1.844    C   54 0.999    C   58 0.972
    57  O   2.109        C   56 1.844
    58  C   3.927        C   59 1.598    C   60 1.160    C   56 0.972
    59  C   3.981        C   58 1.598    C   53 1.169    H   82 0.968    C   61 0.121
    60  C   3.985        C   61 1.818    C   58 1.160    H   83 0.961
    61  C   3.914        C   60 1.818    H   85 0.978    H   84 0.970    C   59 0.121
    62  H   0.994        C    1 0.965
    63  H   0.994        C    4 0.966
    64  H   0.987        C   17 0.917
    65  H   0.990        C   23 0.951
    66  H   0.993        C   23 0.950
    67  H   0.998        C   24 0.976
    68  H   0.997        C   24 0.976
    69  H   0.995        C   25 0.963
    70  H   1.000        C   26 0.928
    71  H   0.995        C   28 0.947
    72  H   0.996        C   28 0.966
    73  H   0.995        C   34 0.967
    74  H   0.995        C   36 0.968
    75  H   0.993        C   38 0.957
    76  H   0.997        C   39 0.954
    77  H   0.996        C   44 0.959
    78  H   0.997        C   48 0.967
    79  H   0.995        C   49 0.958
    80  H   0.997        C   50 0.960
    81  H   0.995        C   55 0.958
    82  H   0.997        C   59 0.968
    83  H   0.998        C   60 0.961
    84  H   0.994        C   61 0.970
    85  H   0.997        C   61 0.978

molecular dipole:
                 x           y           z       tot (Debye)
 q only:       -1.597      -2.541      -0.254
   full:       -1.355      -2.615       0.127       7.493
molecular quadrupole (traceless):
                xx          xy          yy          xz          yz          zz
 q only:      -47.805     -43.330      11.255       7.441    -105.571      36.551
  q+dip:      -52.018     -48.522      12.178      16.853    -111.127      39.840
   full:      -49.714     -40.980      12.700      16.493    -114.484      37.014

           -------------------------------------------------
          |                Geometry Summary                 |
           -------------------------------------------------

      molecular mass/u    :      900.9810000
   center of mass at/Å    :        7.9376507      -5.2261048       5.3623156
  moments of inertia/u·Å² :        0.1417663E+05   0.3862400E+05   0.4790448E+05
rotational constants/cm⁻¹ :        0.1189114E-02   0.4364549E-03   0.3519009E-03

 * 81 selected distances

     #   Z        #   Z                                     value/Å
     1   6 C      2   6 C                                 1.3635989
     2   6 C      3   6 C                                 1.4310972
     3   6 C      4   6 C                                 1.3555648
     1   6 C      5  16 S                                 1.7218469
     4   6 C      5  16 S                                 1.7239911
     6   6 C      7   8 O                                 1.2161830
     9   6 C     10   6 C                                 1.3761754
    11   7 N     12   8 O                                 1.2071084
    11   7 N     13   8 O                                 1.2049964
    10   6 C     14   7 N                                 1.4114650
    14   7 N     15   8 O                                 1.2177877
    14   7 N     16   8 O                                 1.2218610
     8   6 C     17   6 C                                 1.3805503
    17   6 C     18   6 C                                 1.3936453
    18   6 C     19  16 S                                 1.7505349 (max)
    19  16 S     20   6 C                                 1.7288625
    20   6 C     21   6 C                                 1.3959733
    18   6 C     22   6 C                                 1.4119200
    21   6 C     22   6 C                                 1.3885173
    22   6 C     23   6 C                                 1.4952447
    23   6 C     24   6 C                                 1.5267504
    24   6 C     25   6 C                                 1.5327168
    26   6 C     27   8 O                                 1.1965228
    21   6 C     28   6 C                                 1.4950941
    25   6 C     28   6 C                                 1.5319797
    20   6 C     29   6 C                                 1.4368995
    29   6 C     30   6 C                                 1.3724365
    30   6 C     31   8 O                                 1.3817803
    31   8 O     32   6 C                                 1.3644071
    32   6 C     33   6 C                                 1.4249266
    33   6 C     34   6 C                                 1.3557715
    34   6 C     35  16 S                                 1.7233916
    32   6 C     36   6 C                                 1.3557151
    35  16 S     36   6 C                                 1.7237486
    29   6 C     37   8 O                                 1.3810023
    33   6 C     37   8 O                                 1.3628957
    30   6 C     38   6 C                                 1.4284024
    38   6 C     39   6 C                                 1.3571716
    39   6 C     40   6 C                                 1.4131824
    41  16 S     42   6 C                                 1.7070068
    42   6 C     43   6 C                                 1.4005624
    40   6 C     44   6 C                                 1.3910170
    43   6 C     44   6 C                                 1.3868846
    45   6 C     46   8 O                                 1.2052856
    42   6 C     48   6 C                                 1.4183673
    47   6 C     48   6 C                                 1.3760123
    47   6 C     49   6 C                                 1.4089960
    49   6 C     50   6 C                                 1.3639976
    50   6 C     51   6 C                                 1.4094380
    52  16 S     53   6 C                                 1.7043218
    53   6 C     54   6 C                                 1.3957667
    51   6 C     55   6 C                                 1.3945616
    54   6 C     55   6 C                                 1.3850742
    56   6 C     57   8 O                                 1.2044820
    53   6 C     59   6 C                                 1.4279130
    58   6 C     59   6 C                                 1.3657127
    58   6 C     60   6 C                                 1.4335375
    60   6 C     61   6 C                                 1.3351452
     1   6 C     62   1 H                                 1.0715011
     4   6 C     63   1 H                                 1.0713944
    17   6 C     64   1 H                                 1.0803099
    23   6 C     65   1 H                                 1.0916514
    23   6 C     66   1 H                                 1.0946240
    24   6 C     67   1 H                                 1.0921019
    24   6 C     68   1 H                                 1.0905694
    25   6 C     69   1 H                                 1.0938185
    28   6 C     71   1 H                                 1.0946788
    28   6 C     72   1 H                                 1.0921673
    34   6 C     73   1 H                                 1.0696460 (min)
    36   6 C     74   1 H                                 1.0696984
    38   6 C     75   1 H                                 1.0803445
    39   6 C     76   1 H                                 1.0806899
    44   6 C     77   1 H                                 1.0742880
    48   6 C     78   1 H                                 1.0740792
    49   6 C     79   1 H                                 1.0814204
    50   6 C     80   1 H                                 1.0816400
    55   6 C     81   1 H                                 1.0739509
    59   6 C     82   1 H                                 1.0753356
    60   6 C     83   1 H                                 1.0842446
    61   6 C     84   1 H                                 1.0757237
    61   6 C     85   1 H                                 1.0762940

 * 6 distinct bonds (by element types)

   Z      Z             #   av. dist./Å        max./Å        min./Å
   1 H    6 C          23     1.0813118     1.0946788     1.0696460
   6 C    6 C          37     1.4085492     1.5327168     1.3351452
   6 C    7 N           1     1.4114650     1.4114650     1.4114650
   6 C    8 O           8     1.2890699     1.3817803     1.1965228
   7 N    8 O           4     1.2129384     1.2218610     1.2049964
   6 C   16 S           8     1.7229630     1.7505349     1.7043218


optimized geometry written to: xtbopt.xyz


           -------------------------------------------------
          | TOTAL ENERGY             -168.829839588382 Eh   |
          | GRADIENT NORM               0.000820023893 Eh/α |
          | HOMO-LUMO GAP               0.530575701672 eV   |
           -------------------------------------------------

------------------------------------------------------------------------
 * finished run on 2021/06/04 at 03:22:56.741     
------------------------------------------------------------------------
 total:
 * wall-time:     0 d,  0 h,  0 min, 17.618 sec
 *  cpu-time:     0 d,  0 h,  3 min, 31.272 sec
 * ratio c/w:    11.992 speedup
 SCF:
 * wall-time:     0 d,  0 h,  0 min,  0.195 sec
 *  cpu-time:     0 d,  0 h,  0 min,  2.322 sec
 * ratio c/w:    11.903 speedup
 ANC optimizer:
 * wall-time:     0 d,  0 h,  0 min, 17.386 sec
 *  cpu-time:     0 d,  0 h,  3 min, 28.628 sec
 * ratio c/w:    12.000 speedup

