      -----------------------------------------------------------      
     |                   =====================                   |     
     |                           x T B                           |     
     |                   =====================                   |     
     |                         S. Grimme                         |     
     |          Mulliken Center for Theoretical Chemistry        |     
     |                    University of Bonn                     |     
     |                Version 6.2 RC2 (SAW190805)                |     
      -----------------------------------------------------------      

   This program is distributed in the hope that it will be useful,
   but WITHOUT ANY WARRANTY; without even the implied warranty of
   MERCHANTABILITY or FITNESS FOR A PARTICULAR PURPOSE.
   
   FOR NON-COMMERCIAL, ACADEMIA USE ONLY.
   
   Cite this work as:
   * S. Grimme, C. Bannwarth, P. Shushkov, J. Chem. Theory Comput., 2017,
     13, 1989-2009. DOI: 10.1021/acs.jctc.7b00118
   * C. Bannwarth, S. Ehlert and S. Grimme., J. Chem. Theory Comput., 2019,
     15, 1652-1671. DOI: 10.1021/acs.jctc.8b01176
   * P. Pracht, E. Caldeweyher, S. Ehlert, S. Grimme, ChemRxiv, 2019, preprint.
     DOI: 10.26434/chemrxiv.8326202.v1
   
   for DFT-D4:
   * E. Caldeweyher, C. Bannwarth and S. Grimme, J. Chem. Phys., 2017,
     147, 034112. DOI: 10.1063/1.4993215
   * E. Caldeweyher, S. Ehlert, A. Hansen, H. Neugebauer, S. Spicher,
     C. Bannwarth and S. Grimme, J. Chem. Phys., 2019, 150, 154122.
     DOI: 10.1063/1.5090222
   
   for sTDA-xTB:
   * S. Grimme and C. Bannwarth, J. Chem. Phys., 2016, 145, 054103.
     DOI: 10.1063/1.4959605
   
   in the mass-spec context:
   * V. Asgeirsson, C. Bauer and S. Grimme, Chem. Sci., 2017, 8, 4879.
     DOI: 10.1039/c7sc00601b
   
   for metadynamics refer to:
   * S. Grimme, J. Chem. Theory Comput., 2019, 155, 2847-2862
     DOI: 10.1021/acs.jctc.9b00143
   
   with help from (in alphabetical order)
   C. Bannwarth, F. Bohle, G. Brandenburg, E. Caldeweyher, M. Checinski,
   S. Dohm, S. Ehlert, S. Ehrlich, F. März, H. Neugebauer, J. Pisarek,
   P. Pracht, P. Shushkov, and S. Spicher.
   
 * started run on 2021/06/04 at 07:34:44.591     

           -------------------------------------------------
          |                Calculation Setup                |
           -------------------------------------------------

          program call               : /ihome/ghutchison/geoffh/xtb/xtb /ihome/ghutchison/blp62/GA/running_GA/sequence/generations/25/262_627_19_684_262_10241.xyz -opt
          hostname                   : smp-n97
          coordinate file            : /ihome/ghutchison/blp62/GA/running_GA/sequence/generations/25/262_627_19_684_262_10241.xyz
          omp threads                :                    12
          number of atoms            :                    81
          number of electrons        :                   318
          charge                     :                     0
          spin                       :                   0.0
          first test random number   :      0.06000265437189


########################################################################
# WARNING! Please study the warnings concerning your input carefully
#  - XTBPATH is not set, using XTBHOME instead
#  - the use of '-opt' is discouraged, please use '--opt' next time
########################################################################

           ------------------------------------------------- 
          |                 G F N 2 - x T B                 |
          | Geometry, Frequencies, Noncovalent interactions |
          |            JCTC 2019 parametrisation            |
           ------------------------------------------------- 
             KAB for C  - Si     :                1.0500
             KAB for H  - Pd     :                0.9500
             k(s)              :                1.8500
             k(p)              :                2.2300
             k(d)              :                2.2300
             k(f)              :                2.0000
             kEN (H0ij)        :               -2.0000
             D4 a1             :                0.5200
             D4 a2             :                5.0000
             D4 s6             :                1.0000
             D4 s8             :                2.7000
             D4 s9             :                5.0000
             alphaj            :                2.0000

  Z AO/shell   Hii/eV     exponent
  1     Wed Apr 25 08:07:45 CEST 2018   EN: 2.200 GM2: 0.406  GM3: 0.0800  RAES: 1.40
     1s    -10.707211    1.230000
  6     Wed Apr 25 08:07:45 CEST 2018   EN: 2.550 GM2: 0.538  GM3: 0.1500  RAES: 3.00
     2s    -13.970922    2.096432
     2p    -10.063292    1.800000
  7     Wed Apr 25 08:07:45 CEST 2018   EN: 3.040 GM2: 0.461  GM3:-0.0640  RAES: 1.90
     2s    -16.686243    2.339881
     2p    -12.523956    2.014332
  8     Wed Apr 25 08:07:45 CEST 2018   EN: 3.440 GM2: 0.452  GM3:-0.0517  RAES: 1.80
     2s    -20.229985    2.439742
     2p    -15.503117    2.137023
 16     Tue Apr 24 11:44:34 CEST 2018   EN: 2.580 GM2: 0.340  GM3:-0.0502  RAES: 3.10
     3s    -20.029654    1.981333
     3p    -11.377694    2.025643
     3d     -0.420282    1.702555

           ------------------------------------------------- 
          |        Self-Consistent Charge Iterations        |
           ------------------------------------------------- 

          ...................................................
          :                      SETUP                      :
          :.................................................:
          :  # basis functions                 312          :
          :  # atomic orbitals                 306          :
          :  # shells                          152          :
          :  # electrons                       318          :
          :  max. iterations                   250          :
          :  Hamiltonian                  GFN2-xTB          :
          :  restarted?                      false          :
          :  GBSA solvation                  false          :
          :  PC potential                    false          :
          :  electronic temp.          300.0000000     K    :
          :  accuracy                    1.0000000          :
          :  -> integral cutoff          0.2500000E+02      :
          :  -> integral neglect         0.1000000E-07      :
          :  -> SCF convergence          0.1000000E-05 Eh   :
          :  -> wf. convergence          0.1000000E-03 e    :
          :  Broyden damping             0.4000000          :
          ...................................................

 iter      E             dE          RMSdq      gap      omega  full diag
   1   -182.9689726 -0.182969E+03  0.595E+00    1.34       0.0  T
   2   -183.5957901 -0.626817E+00  0.304E+00    0.91       1.0  T
   3   -183.5825423  0.132478E-01  0.177E+00    0.73       1.0  T
   4   -183.5722857  0.102566E-01  0.120E+00    0.07       1.0  T
   5   -183.6546105 -0.823248E-01  0.397E-01    0.56       1.0  T
   6   -183.6672925 -0.126820E-01  0.199E-01    0.52       1.0  T
   7   -183.6687850 -0.149251E-02  0.117E-01    0.49       1.0  T
   8   -183.6691782 -0.393132E-03  0.829E-02    0.45       1.0  T
   9   -183.6695016 -0.323424E-03  0.479E-02    0.26       1.0  T
  10   -183.6693829  0.118698E-03  0.375E-02    0.19       1.0  T
  11   -183.6694448 -0.619381E-04  0.304E-02    0.30       1.0  T
  12   -183.6695645 -0.119684E-03  0.116E-02    0.25       1.0  T
  13   -183.6695801 -0.156197E-04  0.336E-03    0.23       3.3  T
  14   -183.6695803 -0.211235E-06  0.183E-03    0.23       6.1  T
  15   -183.6695799  0.460306E-06  0.212E-03    0.22       5.2  T
  16   -183.6695806 -0.685746E-06  0.497E-04    0.23      22.3  T
  17   -183.6695806  0.599829E-08  0.319E-04    0.23      34.8  T

   *** convergence criteria satisfied after 17 iterations ***

         #    Occupation            Energy/Eh            Energy/eV
      -------------------------------------------------------------
         1        2.0000           -0.8174731             -22.2446
       ...           ...                  ...                  ...
       153        2.0000           -0.4288960             -11.6709
       154        2.0000           -0.4273333             -11.6283
       155        2.0000           -0.4172239             -11.3532
       156        2.0000           -0.4124612             -11.2236
       157        2.0000           -0.4028466             -10.9620
       158        2.0000           -0.3898432             -10.6082
       159        1.9762           -0.3790483             -10.3144 (HOMO)
       160        0.0238           -0.3706506             -10.0859 (LUMO)
       161        0.0000           -0.3631737              -9.8825
       162                         -0.3580032              -9.7418
       163                         -0.3553089              -9.6684
       164                         -0.3463896              -9.4257
       ...                                ...                  ...
       306                          0.7305132              19.8783
      -------------------------------------------------------------
                  HL-Gap            0.0083977 Eh            0.2285 eV
             Fermi-level           -0.3748496 Eh          -10.2002 eV

 SCC (total)                   0 d,  0 h,  0 min,  1.495 sec
 SCC setup                      ...        0 min,  0.012 sec (  0.795%)
 Dispersion                     ...        0 min,  0.004 sec (  0.237%)
 integral evaluation            ...        0 min,  0.043 sec (  2.860%)
 zeroth order Hamiltonian       ...        0 min,  0.001 sec (  0.080%)
 iterations                     ...        0 min,  1.369 sec ( 91.566%)
 molecular gradient             ...        0 min,  0.065 sec (  4.381%)
 printout                       ...        0 min,  0.001 sec (  0.076%)

         :::::::::::::::::::::::::::::::::::::::::::::::::::::
         ::                     SUMMARY                     ::
         :::::::::::::::::::::::::::::::::::::::::::::::::::::
         :: total energy            -181.521080358194 Eh    ::
         :: gradient norm              0.214643405567 Eh/a0 ::
         :: HOMO-LUMO gap              0.228512964239 eV    ::
         ::.................................................::
         :: SCC energy              -183.669580560425 Eh    ::
         :: -> isotropic ES            0.302732224794 Eh    ::
         :: -> anisotropic ES          0.038236215870 Eh    ::
         :: -> anisotropic XC          0.024205427723 Eh    ::
         :: -> dispersion             -0.128762014045 Eh    ::
         :: repulsion energy           2.148961180393 Eh    ::
         :: add. restraining           0.000000000000 Eh    ::
         :::::::::::::::::::::::::::::::::::::::::::::::::::::

      ----------------------------------------------------------- 
     |                   =====================                   |
     |                        A N C O P T                        |
     |                   =====================                   |
     |               Approximate Normal Coordinate               |
     |                Rational Function Optimizer                |
      ----------------------------------------------------------- 

          ...................................................
          :                      SETUP                      :
          :.................................................:
          :   optimization level            normal          :
          :   max. optcycles                   243          :
          :   ANC micro-cycles                  20          :
          :   degrees of freedom               237          :
          :.................................................:
          :   RF solver                   davidson          :
          :   input Hessian                  false          :
          :   write xtbopt.log                true          :
          :   linear?                        false          :
          :   energy convergence         0.5000000E-05 Eh   :
          :   grad. convergence          0.1000000E-02 Eh/α :
          :   maximium RF displ.         2.0000000          :
          :   Hlow (freq-cutoff)         0.5000000E-02      :
          :   Hmax (freq-cutoff)         5.0000000          :
          :   S6 in model hess.         20.0000000          :
          ...................................................

generating ANC from model Hessian ...
Using Lindh-Hessian (1995)
 Shifting diagonal of input Hessian by   4.981962148732656E-003
 Lowest  eigenvalues of input Hessian
   -0.000000    0.000000    0.000000    0.000000    0.000000    0.000000
    0.005000    0.005010    0.005020    0.005051    0.005123    0.005208
    0.005420    0.005626    0.005697    0.005980    0.006331    0.006466
 Highest eigenvalues
    2.299169    2.301113    2.448428    2.458757    2.462938    2.479775
 

........................................................................
.............................. CYCLE    1 ..............................
........................................................................
   1   -183.6695806 -0.183670E+03  0.122E-04    0.23       0.0  T
   2   -183.6695806  0.117166E-08  0.131E-04    0.23      84.8  T
   3   -183.6695806 -0.224887E-08  0.522E-05    0.23     212.9  T
     SCC iter.                  ...        0 min,  0.127 sec
     gradient                   ...        0 min,  0.084 sec
 * total energy  :  -181.5210804 Eh     change       -0.8582225E-07 Eh
   gradient norm :     0.2146234 Eh/α   predicted     0.0000000E+00 (-100.00%)
   displ. norm   :     0.4014409 α      lambda       -0.4665095E-01
   maximum displ.:     0.1479279 α      in ANC's #51, #109, #60, ...

........................................................................
.............................. CYCLE    2 ..............................
........................................................................
   1   -183.7263415 -0.183726E+03  0.322E-01    0.56       0.0  T
   2   -183.7272046 -0.863117E-03  0.173E-01    0.43       1.0  T
   3   -183.7268471  0.357531E-03  0.108E-01    0.37       1.0  T
   4   -183.7274106 -0.563491E-03  0.463E-02    0.34       1.0  T
   5   -183.7274813 -0.707563E-04  0.215E-02    0.34       1.0  T
   6   -183.7275033 -0.220232E-04  0.835E-03    0.34       1.3  T
   7   -183.7275054 -0.207969E-05  0.421E-03    0.34       2.6  T
   8   -183.7275063 -0.893730E-06  0.162E-03    0.35       6.8  T
     SCC iter.                  ...        0 min,  1.064 sec
     gradient                   ...        0 min,  0.042 sec
 * total energy  :  -181.5541374 Eh     change       -0.3305697E-01 Eh
   gradient norm :     0.0942940 Eh/α   predicted    -0.2708459E-01 ( -18.07%)
   displ. norm   :     0.4544898 α      lambda       -0.1892408E-01
   maximum displ.:     0.1722786 α      in ANC's #51, #46, #38, ...

........................................................................
.............................. CYCLE    3 ..............................
........................................................................
   1   -183.7575867 -0.183758E+03  0.314E-01    0.66       0.0  T
   2   -183.7579792 -0.392553E-03  0.175E-01    0.63       1.0  T
   3   -183.7573958  0.583431E-03  0.117E-01    0.59       1.0  T
   4   -183.7581877 -0.791909E-03  0.380E-02    0.58       1.0  T
   5   -183.7582272 -0.395095E-04  0.199E-02    0.59       1.0  T
   6   -183.7582462 -0.189772E-04  0.710E-03    0.58       1.6  T
   7   -183.7582478 -0.159397E-05  0.324E-03    0.58       3.4  T
   8   -183.7582483 -0.458729E-06  0.140E-03    0.58       7.9  T
     SCC iter.                  ...        0 min,  0.194 sec
     gradient                   ...        0 min,  0.028 sec
 * total energy  :  -181.5648103 Eh     change       -0.1067287E-01 Eh
   gradient norm :     0.0308983 Eh/α   predicted    -0.1141653E-01 (   6.97%)
   displ. norm   :     0.4793983 α      lambda       -0.6528208E-02
   maximum displ.:     0.1610301 α      in ANC's #13, #24, #35, ...

........................................................................
.............................. CYCLE    4 ..............................
........................................................................
   1   -183.7562173 -0.183756E+03  0.276E-01    0.56       0.0  T
   2   -183.7563383 -0.121056E-03  0.157E-01    0.57       1.0  T
   3   -183.7560712  0.267146E-03  0.714E-02    0.55       1.0  T
   4   -183.7563952 -0.323975E-03  0.192E-02    0.56       1.0  T
   5   -183.7564047 -0.953638E-05  0.917E-03    0.56       1.2  T
   6   -183.7564068 -0.206914E-05  0.437E-03    0.56       2.5  T
   7   -183.7564077 -0.967377E-06  0.193E-03    0.56       5.8  T
     SCC iter.                  ...        0 min,  0.131 sec
     gradient                   ...        0 min,  0.031 sec
 * total energy  :  -181.5690392 Eh     change       -0.4228922E-02 Eh
   gradient norm :     0.0248695 Eh/α   predicted    -0.4014271E-02 (  -5.08%)
   displ. norm   :     0.5584070 α      lambda       -0.4384646E-02
   maximum displ.:     0.2047280 α      in ANC's #21, #13, #46, ...

........................................................................
.............................. CYCLE    5 ..............................
........................................................................
   1   -183.7477077 -0.183748E+03  0.290E-01    0.52       0.0  T
   2   -183.7478971 -0.189382E-03  0.165E-01    0.55       1.0  T
   3   -183.7475917  0.305328E-03  0.770E-02    0.54       1.0  T
   4   -183.7479668 -0.375122E-03  0.197E-02    0.55       1.0  T
   5   -183.7479802 -0.133242E-04  0.969E-03    0.55       1.1  T
   6   -183.7479830 -0.286291E-05  0.419E-03    0.55       2.7  T
   7   -183.7479834 -0.366927E-06  0.231E-03    0.55       4.8  T
     SCC iter.                  ...        0 min,  0.238 sec
     gradient                   ...        0 min,  0.039 sec
 * total energy  :  -181.5722954 Eh     change       -0.3256231E-02 Eh
   gradient norm :     0.0342761 Eh/α   predicted    -0.2875953E-02 ( -11.68%)
   displ. norm   :     0.5874563 α      lambda       -0.4217158E-02
   maximum displ.:     0.2275698 α      in ANC's #21, #13, #24, ...

........................................................................
.............................. CYCLE    6 ..............................
........................................................................
   1   -183.7463892 -0.183746E+03  0.265E-01    0.51       0.0  T
   2   -183.7465346 -0.145406E-03  0.148E-01    0.53       1.0  T
   3   -183.7464012  0.133377E-03  0.590E-02    0.53       1.0  T
   4   -183.7465686 -0.167349E-03  0.200E-02    0.54       1.0  T
   5   -183.7465844 -0.158302E-04  0.910E-03    0.54       1.2  T
   6   -183.7465867 -0.228900E-05  0.340E-03    0.54       3.3  T
   7   -183.7465871 -0.386961E-06  0.195E-03    0.54       5.7  T
     SCC iter.                  ...        0 min,  0.286 sec
     gradient                   ...        0 min,  0.044 sec
 * total energy  :  -181.5754315 Eh     change       -0.3136026E-02 Eh
   gradient norm :     0.0338136 Eh/α   predicted    -0.2836271E-02 (  -9.56%)
   displ. norm   :     0.6227968 α      lambda       -0.4677165E-02
   maximum displ.:     0.2506647 α      in ANC's #21, #11, #12, ...

........................................................................
.............................. CYCLE    7 ..............................
........................................................................
   1   -183.7537900 -0.183754E+03  0.285E-01    0.50       0.0  T
   2   -183.7540315 -0.241524E-03  0.162E-01    0.54       1.0  T
   3   -183.7538174  0.214110E-03  0.788E-02    0.54       1.0  T
   4   -183.7540892 -0.271817E-03  0.292E-02    0.56       1.0  T
   5   -183.7541313 -0.421265E-04  0.121E-02    0.55       1.0  T
   6   -183.7541342 -0.284365E-05  0.591E-03    0.55       1.9  T
   7   -183.7541362 -0.207571E-05  0.217E-03    0.55       5.1  T
     SCC iter.                  ...        0 min,  1.075 sec
     gradient                   ...        0 min,  0.039 sec
 * total energy  :  -181.5786768 Eh     change       -0.3245358E-02 Eh
   gradient norm :     0.0372781 Eh/α   predicted    -0.3245669E-02 (   0.01%)
   displ. norm   :     0.6069689 α      lambda       -0.4478551E-02
   maximum displ.:     0.1848473 α      in ANC's #13, #21, #12, ...

........................................................................
.............................. CYCLE    8 ..............................
........................................................................
   1   -183.7621799 -0.183762E+03  0.312E-01    0.56       0.0  T
   2   -183.7624743 -0.294317E-03  0.172E-01    0.60       1.0  T
   3   -183.7620989  0.375327E-03  0.985E-02    0.60       1.0  T
   4   -183.7625407 -0.441759E-03  0.361E-02    0.61       1.0  T
   5   -183.7626100 -0.692641E-04  0.135E-02    0.61       1.0  T
   6   -183.7626132 -0.323017E-05  0.725E-03    0.60       1.5  T
   7   -183.7626165 -0.330417E-05  0.222E-03    0.60       5.0  T
   8   -183.7626166 -0.106215E-06  0.121E-03    0.61       9.2  T
     SCC iter.                  ...        0 min,  0.674 sec
     gradient                   ...        0 min,  0.041 sec
 * total energy  :  -181.5820426 Eh     change       -0.3365768E-02 Eh
   gradient norm :     0.0311087 Eh/α   predicted    -0.3064251E-02 (  -8.96%)
   displ. norm   :     0.6497162 α      lambda       -0.4446674E-02
   maximum displ.:     0.1800369 α      in ANC's #27, #13, #21, ...

........................................................................
.............................. CYCLE    9 ..............................
........................................................................
   1   -183.7659694 -0.183766E+03  0.317E-01    0.58       0.0  T
   2   -183.7662521 -0.282758E-03  0.174E-01    0.61       1.0  T
   3   -183.7654587  0.793380E-03  0.124E-01    0.58       1.0  T
   4   -183.7664068 -0.948102E-03  0.366E-02    0.60       1.0  T
   5   -183.7664634 -0.566096E-04  0.166E-02    0.60       1.0  T
   6   -183.7664726 -0.918028E-05  0.832E-03    0.60       1.3  T
   7   -183.7664768 -0.413487E-05  0.269E-03    0.60       4.1  T
   8   -183.7664769 -0.185174E-06  0.157E-03    0.60       7.1  T
     SCC iter.                  ...        0 min,  0.287 sec
     gradient                   ...        0 min,  0.051 sec
 * total energy  :  -181.5849552 Eh     change       -0.2912602E-02 Eh
   gradient norm :     0.0319175 Eh/α   predicted    -0.3161936E-02 (   8.56%)
   displ. norm   :     0.6470922 α      lambda       -0.4026575E-02
   maximum displ.:     0.1871014 α      in ANC's #21, #16, #46, ...

........................................................................
.............................. CYCLE   10 ..............................
........................................................................
   1   -183.7565554 -0.183757E+03  0.335E-01    0.53       0.0  T
   2   -183.7568524 -0.296999E-03  0.191E-01    0.55       1.0  T
   3   -183.7558957  0.956690E-03  0.133E-01    0.56       1.0  T
   4   -183.7570573 -0.116157E-02  0.345E-02    0.56       1.0  T
   5   -183.7570973 -0.400330E-04  0.199E-02    0.56       1.0  T
   6   -183.7571192 -0.219596E-04  0.798E-03    0.56       1.4  T
   7   -183.7571220 -0.272039E-05  0.356E-03    0.56       3.1  T
   8   -183.7571224 -0.440554E-06  0.181E-03    0.56       6.1  T
     SCC iter.                  ...        0 min,  0.883 sec
     gradient                   ...        0 min,  0.043 sec
 * total energy  :  -181.5874382 Eh     change       -0.2483022E-02 Eh
   gradient norm :     0.0336407 Eh/α   predicted    -0.2856313E-02 (  15.03%)
   displ. norm   :     0.5223308 α      lambda       -0.3975931E-02
   maximum displ.:     0.1914191 α      in ANC's #16, #10, #45, ...

........................................................................
.............................. CYCLE   11 ..............................
........................................................................
   1   -183.7712649 -0.183771E+03  0.280E-01    0.62       0.0  T
   2   -183.7717922 -0.527326E-03  0.155E-01    0.62       1.0  T
   3   -183.7716272  0.165002E-03  0.860E-02    0.60       1.0  T
   4   -183.7718717 -0.244499E-03  0.366E-02    0.61       1.0  T
   5   -183.7719592 -0.875221E-04  0.141E-02    0.60       1.0  T
   6   -183.7719667 -0.751014E-05  0.692E-03    0.60       1.6  T
   7   -183.7719687 -0.200223E-05  0.352E-03    0.60       3.2  T
   8   -183.7719691 -0.421839E-06  0.163E-03    0.60       6.8  T
     SCC iter.                  ...        0 min,  0.529 sec
     gradient                   ...        0 min,  0.099 sec
 * total energy  :  -181.5877343 Eh     change       -0.2960489E-03 Eh
   gradient norm :     0.0544199 Eh/α   predicted    -0.2530363E-02 ( 754.71%)
   displ. norm   :     0.3943424 α      lambda       -0.4842135E-02
   maximum displ.:     0.1191142 α      in ANC's #27, #21, #24, ...

........................................................................
.............................. CYCLE   12 ..............................
........................................................................
   1   -183.7556740 -0.183756E+03  0.178E-01    0.56       0.0  T
   2   -183.7558213 -0.147256E-03  0.104E-01    0.59       1.0  T
   3   -183.7555442  0.277024E-03  0.829E-02    0.57       1.0  T
   4   -183.7559346 -0.390395E-03  0.300E-02    0.58       1.0  T
   5   -183.7559818 -0.471639E-04  0.105E-02    0.58       1.1  T
   6   -183.7559858 -0.401547E-05  0.604E-03    0.58       1.8  T
   7   -183.7559879 -0.212769E-05  0.218E-03    0.58       5.1  T
   8   -183.7559881 -0.127891E-06  0.119E-03    0.58       9.3  T
     SCC iter.                  ...        0 min,  1.291 sec
     gradient                   ...        0 min,  0.044 sec
 * total energy  :  -181.5902314 Eh     change       -0.2497111E-02 Eh
   gradient norm :     0.0314176 Eh/α   predicted    -0.2797563E-02 (  12.03%)
   displ. norm   :     0.3745150 α      lambda       -0.4055590E-02
   maximum displ.:     0.1227977 α      in ANC's #16, #18, #21, ...

........................................................................
.............................. CYCLE   13 ..............................
........................................................................
   1   -183.7617959 -0.183762E+03  0.279E-01    0.59       0.0  T
   2   -183.7631914 -0.139555E-02  0.160E-01    0.60       1.0  T
   3   -183.7635661 -0.374667E-03  0.872E-02    0.61       1.0  T
   4   -183.7635804 -0.143162E-04  0.286E-02    0.61       1.0  T
   5   -183.7636298 -0.494264E-04  0.126E-02    0.61       1.0  T
   6   -183.7636363 -0.642367E-05  0.627E-03    0.61       1.8  T
   7   -183.7636369 -0.601484E-06  0.407E-03    0.61       2.7  T
   8   -183.7636376 -0.737470E-06  0.179E-03    0.61       6.2  T
     SCC iter.                  ...        0 min,  0.254 sec
     gradient                   ...        0 min,  0.044 sec
 * total energy  :  -181.5883920 Eh     change        0.1839348E-02 Eh
   gradient norm :     0.0821525 Eh/α   predicted    -0.2312221E-02 (-225.71%)
   displ. norm   :     0.2396742 α      lambda       -0.6878862E-02
   maximum displ.:     0.0803986 α      in ANC's #21, #27, #46, ...

........................................................................
.............................. CYCLE   14 ..............................
........................................................................
   1   -183.7589010 -0.183759E+03  0.216E-01    0.59       0.0  T
   2   -183.7599432 -0.104220E-02  0.123E-01    0.59       1.0  T
   3   -183.7602582 -0.315026E-03  0.663E-02    0.58       1.0  T
   4   -183.7601904  0.677986E-04  0.376E-02    0.59       1.0  T
   5   -183.7602980 -0.107582E-03  0.950E-03    0.58       1.2  T
   6   -183.7603002 -0.212366E-05  0.604E-03    0.58       1.8  T
   7   -183.7603013 -0.111146E-05  0.311E-03    0.58       3.6  T
   8   -183.7603016 -0.374445E-06  0.147E-03    0.58       7.5  T
     SCC iter.                  ...        0 min,  0.906 sec
     gradient                   ...        0 min,  0.043 sec
 * total energy  :  -181.5920054 Eh     change       -0.3613381E-02 Eh
   gradient norm :     0.0221933 Eh/α   predicted    -0.3637024E-02 (   0.65%)
   displ. norm   :     0.4563704 α      lambda       -0.3910801E-02
   maximum displ.:     0.1267184 α      in ANC's #45, #8, #46, ...

........................................................................
.............................. CYCLE   15 ..............................
........................................................................
   1   -183.7628004 -0.183763E+03  0.294E-01    0.68       0.0  T
   2   -183.7635342 -0.733826E-03  0.156E-01    0.69       1.0  T
   3   -183.7633413  0.192972E-03  0.776E-02    0.68       1.0  T
   4   -183.7634941 -0.152863E-03  0.434E-02    0.69       1.0  T
   5   -183.7636311 -0.136940E-03  0.127E-02    0.68       1.0  T
   6   -183.7636408 -0.972886E-05  0.551E-03    0.68       2.0  T
   7   -183.7636414 -0.630151E-06  0.320E-03    0.68       3.5  T
   8   -183.7636418 -0.310304E-06  0.137E-03    0.68       8.1  T
     SCC iter.                  ...        0 min,  1.038 sec
     gradient                   ...        0 min,  0.073 sec
 * total energy  :  -181.5893211 Eh     change        0.2684334E-02 Eh
   gradient norm :     0.0843232 Eh/α   predicted    -0.2362669E-02 (-188.02%)
   displ. norm   :     0.2453403 α      lambda       -0.7482430E-02
   maximum displ.:     0.1164967 α      in ANC's #46, #13, #16, ...

........................................................................
.............................. CYCLE   16 ..............................
........................................................................
   1   -183.7609909 -0.183761E+03  0.179E-01    0.61       0.0  T
   2   -183.7613613 -0.370351E-03  0.905E-02    0.62       1.0  T
   3   -183.7613462  0.150623E-04  0.481E-02    0.62       1.0  T
   4   -183.7613617 -0.154860E-04  0.257E-02    0.63       1.0  T
   5   -183.7613920 -0.303332E-04  0.120E-02    0.62       1.0  T
   6   -183.7614011 -0.902608E-05  0.404E-03    0.62       2.7  T
   7   -183.7614016 -0.530437E-06  0.230E-03    0.63       4.8  T
   8   -183.7614017 -0.151262E-06  0.749E-04    0.63      14.8  T
     SCC iter.                  ...        0 min,  0.409 sec
     gradient                   ...        0 min,  0.042 sec
 * total energy  :  -181.5937346 Eh     change       -0.4413484E-02 Eh
   gradient norm :     0.0209036 Eh/α   predicted    -0.3966415E-02 ( -10.13%)
   displ. norm   :     0.4460176 α      lambda       -0.1713494E-02
   maximum displ.:     0.1600950 α      in ANC's #16, #8, #18, ...

........................................................................
.............................. CYCLE   17 ..............................
........................................................................
   1   -183.7607228 -0.183761E+03  0.194E-01    0.60       0.0  T
   2   -183.7608097 -0.868484E-04  0.108E-01    0.61       1.0  T
   3   -183.7604652  0.344485E-03  0.666E-02    0.61       1.0  T
   4   -183.7608621 -0.396887E-03  0.195E-02    0.62       1.0  T
   5   -183.7608785 -0.164544E-04  0.950E-03    0.61       1.2  T
   6   -183.7608825 -0.400640E-05  0.400E-03    0.61       2.8  T
   7   -183.7608831 -0.568665E-06  0.205E-03    0.61       5.4  T
     SCC iter.                  ...        0 min,  1.736 sec
     gradient                   ...        0 min,  0.048 sec
 * total energy  :  -181.5948816 Eh     change       -0.1147040E-02 Eh
   gradient norm :     0.0181916 Eh/α   predicted    -0.1027187E-02 ( -10.45%)
   displ. norm   :     0.6068283 α      lambda       -0.2488961E-02
   maximum displ.:     0.1967150 α      in ANC's #8, #16, #18, ...

........................................................................
.............................. CYCLE   18 ..............................
........................................................................
   1   -183.7660194 -0.183766E+03  0.252E-01    0.63       0.0  T
   2   -183.7661255 -0.106128E-03  0.140E-01    0.64       1.0  T
   3   -183.7658084  0.317156E-03  0.719E-02    0.62       1.0  T
   4   -183.7661679 -0.359546E-03  0.240E-02    0.63       1.0  T
   5   -183.7661859 -0.179789E-04  0.139E-02    0.63       1.0  T
   6   -183.7661938 -0.786623E-05  0.576E-03    0.63       1.9  T
   7   -183.7661956 -0.187396E-05  0.213E-03    0.63       5.2  T
   8   -183.7661957 -0.114165E-06  0.127E-03    0.63       8.7  T
     SCC iter.                  ...        0 min,  0.903 sec
     gradient                   ...        0 min,  0.041 sec
 * total energy  :  -181.5964672 Eh     change       -0.1585606E-02 Eh
   gradient norm :     0.0259530 Eh/α   predicted    -0.1702752E-02 (   7.39%)
   displ. norm   :     0.6139431 α      lambda       -0.2999219E-02
   maximum displ.:     0.2024374 α      in ANC's #16, #45, #8, ...

........................................................................
.............................. CYCLE   19 ..............................
........................................................................
   1   -183.7718827 -0.183772E+03  0.282E-01    0.66       0.0  T
   2   -183.7721313 -0.248596E-03  0.161E-01    0.66       1.0  T
   3   -183.7715970  0.534239E-03  0.995E-02    0.66       1.0  T
   4   -183.7721718 -0.574775E-03  0.392E-02    0.66       1.0  T
   5   -183.7722619 -0.901212E-04  0.156E-02    0.66       1.0  T
   6   -183.7722718 -0.992143E-05  0.674E-03    0.66       1.6  T
   7   -183.7722733 -0.148834E-05  0.274E-03    0.66       4.1  T
   8   -183.7722735 -0.200846E-06  0.126E-03    0.66       8.8  T
     SCC iter.                  ...        0 min,  2.269 sec
     gradient                   ...        0 min,  0.056 sec
 * total energy  :  -181.5983162 Eh     change       -0.1849045E-02 Eh
   gradient norm :     0.0350507 Eh/α   predicted    -0.2064862E-02 (  11.67%)
   displ. norm   :     0.5553305 α      lambda       -0.3181059E-02
   maximum displ.:     0.1867162 α      in ANC's #8, #11, #4, ...

........................................................................
.............................. CYCLE   20 ..............................
........................................................................
   1   -183.7795307 -0.183780E+03  0.259E-01    0.68       0.0  T
   2   -183.7797955 -0.264797E-03  0.142E-01    0.68       1.0  T
   3   -183.7795924  0.203092E-03  0.727E-02    0.69       1.0  T
   4   -183.7797973 -0.204922E-03  0.350E-02    0.68       1.0  T
   5   -183.7798756 -0.782219E-04  0.137E-02    0.68       1.0  T
   6   -183.7798827 -0.714526E-05  0.616E-03    0.68       1.8  T
   7   -183.7798843 -0.157817E-05  0.298E-03    0.68       3.7  T
   8   -183.7798846 -0.369702E-06  0.123E-03    0.68       9.0  T
     SCC iter.                  ...        0 min,  0.559 sec
     gradient                   ...        0 min,  0.049 sec
 * total energy  :  -181.6002601 Eh     change       -0.1943871E-02 Eh
   gradient norm :     0.0290117 Eh/α   predicted    -0.2081042E-02 (   7.06%)
   displ. norm   :     0.6632289 α      lambda       -0.3664057E-02
   maximum displ.:     0.2410010 α      in ANC's #45, #8, #16, ...
 * RMSD in coord.:     0.8371430 α      energy gain  -0.7917976E-01 Eh

generating ANC from model Hessian ...
Using Lindh-Hessian (1995)
 Shifting diagonal of input Hessian by   4.988737046753174E-003
 Lowest  eigenvalues of input Hessian
   -0.000000   -0.000000   -0.000000    0.000000    0.000000    0.000000
    0.005000    0.005017    0.005026    0.005085    0.005188    0.005228
    0.005626    0.005653    0.005747    0.006154    0.006360    0.006422
 Highest eigenvalues
    2.334416    2.362203    2.547984    2.601056    2.604673    2.679241
 

........................................................................
.............................. CYCLE   21 ..............................
........................................................................
   1   -183.7654415 -0.183765E+03  0.346E-01    0.66       0.0  T
   2   -183.7661258 -0.684266E-03  0.197E-01    0.69       1.0  T
   3   -183.7653927  0.733115E-03  0.114E-01    0.68       1.0  T
   4   -183.7662965 -0.903865E-03  0.351E-02    0.69       1.0  T
   5   -183.7663528 -0.562747E-04  0.193E-02    0.69       1.0  T
   6   -183.7663794 -0.265766E-04  0.734E-03    0.69       1.5  T
   7   -183.7663809 -0.153844E-05  0.369E-03    0.69       3.0  T
   8   -183.7663816 -0.659593E-06  0.183E-03    0.69       6.1  T
   9   -183.7663817 -0.124153E-06  0.107E-03    0.69      10.4  T
  10   -183.7663818 -0.438269E-07  0.425E-04    0.69      26.1  T
  11   -183.7663818 -0.530906E-08  0.246E-04    0.69      45.1  T
     SCC iter.                  ...        0 min,  1.468 sec
     gradient                   ...        0 min,  0.059 sec
 * total energy  :  -181.6012468 Eh     change       -0.9866974E-03 Eh
   gradient norm :     0.0497754 Eh/α   predicted     0.0000000E+00 (-100.00%)
   displ. norm   :     0.2848021 α      lambda       -0.3480594E-02
   maximum displ.:     0.1003448 α      in ANC's #7, #4, #8, ...

........................................................................
.............................. CYCLE   22 ..............................
........................................................................
   1   -183.7756563 -0.183776E+03  0.156E-01    0.68       0.0  T
   2   -183.7757714 -0.115059E-03  0.868E-02    0.67       1.0  T
   3   -183.7755731  0.198308E-03  0.556E-02    0.68       1.0  T
   4   -183.7757839 -0.210847E-03  0.230E-02    0.67       1.0  T
   5   -183.7758275 -0.436273E-04  0.776E-03    0.67       1.4  T
   6   -183.7758301 -0.260911E-05  0.351E-03    0.67       3.2  T
   7   -183.7758304 -0.229488E-06  0.235E-03    0.67       4.7  T
     SCC iter.                  ...        0 min,  0.252 sec
     gradient                   ...        0 min,  0.041 sec
 * total energy  :  -181.6035972 Eh     change       -0.2350432E-02 Eh
   gradient norm :     0.0171168 Eh/α   predicted    -0.1881458E-02 ( -19.95%)
   displ. norm   :     0.3426687 α      lambda       -0.2038927E-02
   maximum displ.:     0.1093585 α      in ANC's #7, #16, #8, ...

........................................................................
.............................. CYCLE   23 ..............................
........................................................................
   1   -183.7819127 -0.183782E+03  0.204E-01    0.68       0.0  T
   2   -183.7819918 -0.790746E-04  0.115E-01    0.69       1.0  T
   3   -183.7816610  0.330794E-03  0.653E-02    0.68       1.0  T
   4   -183.7820226 -0.361577E-03  0.197E-02    0.68       1.0  T
   5   -183.7820521 -0.295293E-04  0.801E-03    0.68       1.4  T
   6   -183.7820546 -0.253634E-05  0.379E-03    0.68       2.9  T
   7   -183.7820551 -0.455074E-06  0.206E-03    0.68       5.4  T
   8   -183.7820552 -0.159309E-06  0.928E-04    0.68      12.0  T
     SCC iter.                  ...        0 min,  1.086 sec
     gradient                   ...        0 min,  0.040 sec
 * total energy  :  -181.6046114 Eh     change       -0.1014113E-02 Eh
   gradient norm :     0.0168964 Eh/α   predicted    -0.1139174E-02 (  12.33%)
   displ. norm   :     0.3946669 α      lambda       -0.1507729E-02
   maximum displ.:     0.1279731 α      in ANC's #7, #16, #4, ...

........................................................................
.............................. CYCLE   24 ..............................
........................................................................
   1   -183.7807475 -0.183781E+03  0.216E-01    0.67       0.0  T
   2   -183.7808299 -0.824097E-04  0.123E-01    0.68       1.0  T
   3   -183.7805458  0.284138E-03  0.645E-02    0.68       1.0  T
   4   -183.7808623 -0.316507E-03  0.193E-02    0.68       1.0  T
   5   -183.7808855 -0.232108E-04  0.892E-03    0.68       1.2  T
   6   -183.7808882 -0.271108E-05  0.469E-03    0.68       2.4  T
   7   -183.7808892 -0.103136E-05  0.191E-03    0.68       5.8  T
   8   -183.7808893 -0.962573E-07  0.108E-03    0.68      10.3  T
     SCC iter.                  ...        0 min,  0.256 sec
     gradient                   ...        0 min,  0.058 sec
 * total energy  :  -181.6058445 Eh     change       -0.1233108E-02 Eh
   gradient norm :     0.0172342 Eh/α   predicted    -0.8712984E-03 ( -29.34%)
   displ. norm   :     0.6373760 α      lambda       -0.1857197E-02
   maximum displ.:     0.2164696 α      in ANC's #7, #16, #4, ...

........................................................................
.............................. CYCLE   25 ..............................
........................................................................
   1   -183.7731570 -0.183773E+03  0.333E-01    0.67       0.0  T
   2   -183.7734639 -0.306810E-03  0.190E-01    0.68       1.0  T
   3   -183.7730286  0.435259E-03  0.905E-02    0.68       1.0  T
   4   -183.7735603 -0.531711E-03  0.252E-02    0.68       1.0  T
   5   -183.7735822 -0.218691E-04  0.155E-02    0.68       1.0  T
   6   -183.7735938 -0.115883E-04  0.743E-03    0.68       1.5  T
   7   -183.7735963 -0.252508E-05  0.308E-03    0.68       3.6  T
   8   -183.7735966 -0.319650E-06  0.141E-03    0.68       7.9  T
   9   -183.7735966 -0.361110E-07  0.849E-04    0.68      13.1  T
     SCC iter.                  ...        0 min,  0.349 sec
     gradient                   ...        0 min,  0.039 sec
 * total energy  :  -181.6070532 Eh     change       -0.1208762E-02 Eh
   gradient norm :     0.0247263 Eh/α   predicted    -0.1305850E-02 (   8.03%)
   displ. norm   :     0.4531922 α      lambda       -0.1369652E-02
   maximum displ.:     0.1945098 α      in ANC's #7, #4, #11, ...

........................................................................
.............................. CYCLE   26 ..............................
........................................................................
   1   -183.7732858 -0.183773E+03  0.178E-01    0.67       0.0  T
   2   -183.7733399 -0.541283E-04  0.984E-02    0.68       1.0  T
   3   -183.7732337  0.106273E-03  0.434E-02    0.68       1.0  T
   4   -183.7733614 -0.127684E-03  0.139E-02    0.68       1.0  T
   5   -183.7733666 -0.521166E-05  0.699E-03    0.68       1.6  T
   6   -183.7733685 -0.189293E-05  0.283E-03    0.68       3.9  T
   7   -183.7733688 -0.348807E-06  0.140E-03    0.68       8.0  T
     SCC iter.                  ...        0 min,  0.293 sec
     gradient                   ...        0 min,  0.059 sec
 * total energy  :  -181.6080633 Eh     change       -0.1010070E-02 Eh
   gradient norm :     0.0160699 Eh/α   predicted    -0.8254861E-03 ( -18.27%)
   displ. norm   :     0.5695642 α      lambda       -0.1469600E-02
   maximum displ.:     0.2451608 α      in ANC's #7, #4, #2, ...

........................................................................
.............................. CYCLE   27 ..............................
........................................................................
   1   -183.7753561 -0.183775E+03  0.223E-01    0.68       0.0  T
   2   -183.7754784 -0.122391E-03  0.122E-01    0.69       1.0  T
   3   -183.7753987  0.797661E-04  0.493E-02    0.69       1.0  T
   4   -183.7755088 -0.110096E-03  0.177E-02    0.69       1.0  T
   5   -183.7755161 -0.734608E-05  0.102E-02    0.69       1.1  T
   6   -183.7755217 -0.562926E-05  0.321E-03    0.69       3.5  T
   7   -183.7755220 -0.285587E-06  0.212E-03    0.69       5.3  T
   8   -183.7755224 -0.322530E-06  0.910E-04    0.69      12.2  T
     SCC iter.                  ...        0 min,  1.125 sec
     gradient                   ...        0 min,  0.064 sec
 * total energy  :  -181.6090291 Eh     change       -0.9657555E-03 Eh
   gradient norm :     0.0175246 Eh/α   predicted    -0.9731795E-03 (   0.77%)
   displ. norm   :     0.6578822 α      lambda       -0.1510505E-02
   maximum displ.:     0.2627327 α      in ANC's #7, #4, #8, ...

........................................................................
.............................. CYCLE   28 ..............................
........................................................................
   1   -183.7728582 -0.183773E+03  0.279E-01    0.70       0.0  T
   2   -183.7729840 -0.125790E-03  0.156E-01    0.71       1.0  T
   3   -183.7727355  0.248475E-03  0.663E-02    0.70       1.0  T
   4   -183.7730476 -0.312064E-03  0.187E-02    0.71       1.0  T
   5   -183.7730514 -0.379181E-05  0.106E-02    0.71       1.1  T
   6   -183.7730557 -0.437176E-05  0.450E-03    0.71       2.5  T
   7   -183.7730568 -0.104671E-05  0.228E-03    0.71       4.9  T
   8   -183.7730570 -0.219200E-06  0.117E-03    0.71       9.5  T
     SCC iter.                  ...        0 min,  0.345 sec
     gradient                   ...        0 min,  0.061 sec
 * total energy  :  -181.6100485 Eh     change       -0.1019437E-02 Eh
   gradient norm :     0.0168856 Eh/α   predicted    -0.1082168E-02 (   6.15%)
   displ. norm   :     0.5706813 α      lambda       -0.9542778E-03
   maximum displ.:     0.2383388 α      in ANC's #7, #4, #2, ...

........................................................................
.............................. CYCLE   29 ..............................
........................................................................
   1   -183.7745649 -0.183775E+03  0.211E-01    0.71       0.0  T
   2   -183.7746315 -0.665924E-04  0.114E-01    0.71       1.0  T
   3   -183.7745734  0.580697E-04  0.375E-02    0.71       1.0  T
   4   -183.7746446 -0.711602E-04  0.164E-02    0.71       1.0  T
   5   -183.7746519 -0.729118E-05  0.883E-03    0.71       1.3  T
   6   -183.7746554 -0.353873E-05  0.341E-03    0.71       3.3  T
   7   -183.7746561 -0.620453E-06  0.157E-03    0.71       7.1  T
   8   -183.7746562 -0.101828E-06  0.832E-04    0.71      13.4  T
     SCC iter.                  ...        0 min,  0.364 sec
     gradient                   ...        0 min,  0.032 sec
 * total energy  :  -181.6108235 Eh     change       -0.7750044E-03 Eh
   gradient norm :     0.0136914 Eh/α   predicted    -0.6325328E-03 ( -18.38%)
   displ. norm   :     0.6451368 α      lambda       -0.1260587E-02
   maximum displ.:     0.2734466 α      in ANC's #4, #7, #2, ...

........................................................................
.............................. CYCLE   30 ..............................
........................................................................
   1   -183.7849397 -0.183785E+03  0.232E-01    0.73       0.0  T
   2   -183.7850615 -0.121786E-03  0.125E-01    0.73       1.0  T
   3   -183.7849678  0.936606E-04  0.454E-02    0.73       1.0  T
   4   -183.7850525 -0.846185E-04  0.240E-02    0.72       1.0  T
   5   -183.7850868 -0.343316E-04  0.115E-02    0.73       1.0  T
   6   -183.7850935 -0.666076E-05  0.510E-03    0.72       2.2  T
   7   -183.7850954 -0.189966E-05  0.209E-03    0.73       5.3  T
   8   -183.7850956 -0.212230E-06  0.105E-03    0.73      10.6  T
     SCC iter.                  ...        0 min,  0.766 sec
     gradient                   ...        0 min,  0.064 sec
 * total energy  :  -181.6114634 Eh     change       -0.6399055E-03 Eh
   gradient norm :     0.0226955 Eh/α   predicted    -0.8926356E-03 (  39.49%)
   displ. norm   :     0.6068224 α      lambda       -0.1196350E-02
   maximum displ.:     0.2597806 α      in ANC's #4, #7, #8, ...

........................................................................
.............................. CYCLE   31 ..............................
........................................................................
   1   -183.7768029 -0.183777E+03  0.242E-01    0.72       0.0  T
   2   -183.7769646 -0.161630E-03  0.133E-01    0.72       1.0  T
   3   -183.7768552  0.109401E-03  0.543E-02    0.73       1.0  T
   4   -183.7769866 -0.131466E-03  0.224E-02    0.72       1.0  T
   5   -183.7770114 -0.247717E-04  0.106E-02    0.72       1.1  T
   6   -183.7770152 -0.383644E-05  0.398E-03    0.72       2.8  T
   7   -183.7770161 -0.847228E-06  0.188E-03    0.72       5.9  T
     SCC iter.                  ...        0 min,  0.645 sec
     gradient                   ...        0 min,  0.042 sec
 * total energy  :  -181.6122305 Eh     change       -0.7671243E-03 Eh
   gradient norm :     0.0163349 Eh/α   predicted    -0.8184636E-03 (   6.69%)
   displ. norm   :     0.5158640 α      lambda       -0.9681510E-03
   maximum displ.:     0.2429860 α      in ANC's #4, #9, #7, ...

........................................................................
.............................. CYCLE   32 ..............................
........................................................................
   1   -183.7789941 -0.183779E+03  0.191E-01    0.72       0.0  T
   2   -183.7790894 -0.953593E-04  0.103E-01    0.71       1.0  T
   3   -183.7789538  0.135594E-03  0.452E-02    0.72       1.0  T
   4   -183.7790923 -0.138466E-03  0.200E-02    0.72       1.0  T
   5   -183.7791164 -0.240441E-04  0.954E-03    0.72       1.2  T
   6   -183.7791217 -0.531389E-05  0.418E-03    0.72       2.7  T
   7   -183.7791226 -0.931456E-06  0.205E-03    0.72       5.4  T
   8   -183.7791229 -0.280987E-06  0.872E-04    0.72      12.7  T
     SCC iter.                  ...        0 min,  0.373 sec
     gradient                   ...        0 min,  0.045 sec
 * total energy  :  -181.6126929 Eh     change       -0.4623859E-03 Eh
   gradient norm :     0.0194432 Eh/α   predicted    -0.6128966E-03 (  32.55%)
   displ. norm   :     0.5216604 α      lambda       -0.9336013E-03
   maximum displ.:     0.2436199 α      in ANC's #4, #8, #7, ...

........................................................................
.............................. CYCLE   33 ..............................
........................................................................
   1   -183.7771289 -0.183777E+03  0.186E-01    0.71       0.0  T
   2   -183.7772032 -0.742408E-04  0.100E-01    0.71       1.0  T
   3   -183.7771253  0.778263E-04  0.391E-02    0.71       1.0  T
   4   -183.7772072 -0.818564E-04  0.186E-02    0.71       1.0  T
   5   -183.7772234 -0.161844E-04  0.855E-03    0.71       1.3  T
   6   -183.7772260 -0.258198E-05  0.382E-03    0.71       2.9  T
   7   -183.7772266 -0.633124E-06  0.197E-03    0.71       5.6  T
   8   -183.7772268 -0.220850E-06  0.765E-04    0.71      14.5  T
     SCC iter.                  ...        0 min,  0.898 sec
     gradient                   ...        0 min,  0.043 sec
 * total energy  :  -181.6133156 Eh     change       -0.6227067E-03 Eh
   gradient norm :     0.0131930 Eh/α   predicted    -0.5938362E-03 (  -4.64%)
   displ. norm   :     0.5419865 α      lambda       -0.9185529E-03
   maximum displ.:     0.2737823 α      in ANC's #4, #9, #8, ...

........................................................................
.............................. CYCLE   34 ..............................
........................................................................
   1   -183.7800486 -0.183780E+03  0.183E-01    0.73       0.0  T
   2   -183.7801110 -0.624549E-04  0.100E-01    0.73       1.0  T
   3   -183.7799893  0.121700E-03  0.453E-02    0.72       1.0  T
   4   -183.7801225 -0.133126E-03  0.186E-02    0.73       1.0  T
   5   -183.7801403 -0.178216E-04  0.907E-03    0.73       1.2  T
   6   -183.7801430 -0.275101E-05  0.391E-03    0.72       2.8  T
   7   -183.7801443 -0.129991E-05  0.140E-03    0.73       7.9  T
   8   -183.7801444 -0.739774E-07  0.757E-04    0.73      14.7  T
     SCC iter.                  ...        0 min,  0.460 sec
     gradient                   ...        0 min,  0.043 sec
 * total energy  :  -181.6139205 Eh     change       -0.6049317E-03 Eh
   gradient norm :     0.0138099 Eh/α   predicted    -0.5941924E-03 (  -1.78%)
   displ. norm   :     0.5970305 α      lambda       -0.8238042E-03
   maximum displ.:     0.3228275 α      in ANC's #4, #9, #2, ...

........................................................................
.............................. CYCLE   35 ..............................
........................................................................
   1   -183.7877396 -0.183788E+03  0.200E-01    0.72       0.0  T
   2   -183.7877994 -0.597854E-04  0.109E-01    0.71       1.0  T
   3   -183.7876218  0.177592E-03  0.516E-02    0.73       1.0  T
   4   -183.7878165 -0.194730E-03  0.193E-02    0.71       1.0  T
   5   -183.7878347 -0.181190E-04  0.995E-03    0.71       1.1  T
   6   -183.7878387 -0.404773E-05  0.439E-03    0.72       2.5  T
   7   -183.7878403 -0.158216E-05  0.134E-03    0.72       8.3  T
   8   -183.7878403 -0.497700E-07  0.824E-04    0.72      13.5  T
     SCC iter.                  ...        0 min,  1.801 sec
     gradient                   ...        0 min,  0.045 sec
 * total energy  :  -181.6145189 Eh     change       -0.5983289E-03 Eh
   gradient norm :     0.0149416 Eh/α   predicted    -0.5587263E-03 (  -6.62%)
   displ. norm   :     0.6949769 α      lambda       -0.8458401E-03
   maximum displ.:     0.3751182 α      in ANC's #4, #9, #2, ...

........................................................................
.............................. CYCLE   36 ..............................
........................................................................
   1   -183.7811071 -0.183781E+03  0.236E-01    0.70       0.0  T
   2   -183.7811676 -0.605118E-04  0.128E-01    0.70       1.0  T
   3   -183.7809082  0.259467E-03  0.630E-02    0.71       1.0  T
   4   -183.7811966 -0.288426E-03  0.217E-02    0.71       1.0  T
   5   -183.7812079 -0.112427E-04  0.125E-02    0.71       1.0  T
   6   -183.7812144 -0.658914E-05  0.539E-03    0.71       2.1  T
   7   -183.7812163 -0.189001E-05  0.184E-03    0.71       6.0  T
   8   -183.7812165 -0.123295E-06  0.965E-04    0.71      11.5  T
     SCC iter.                  ...        0 min,  1.410 sec
     gradient                   ...        0 min,  0.041 sec
 * total energy  :  -181.6151291 Eh     change       -0.6101783E-03 Eh
   gradient norm :     0.0122360 Eh/α   predicted    -0.6271889E-03 (   2.79%)
   displ. norm   :     0.5700354 α      lambda       -0.7118437E-03
   maximum displ.:     0.3334247 α      in ANC's #4, #9, #2, ...

........................................................................
.............................. CYCLE   37 ..............................
........................................................................
   1   -183.7865008 -0.183787E+03  0.186E-01    0.73       0.0  T
   2   -183.7865843 -0.834694E-04  0.102E-01    0.73       1.0  T
   3   -183.7865053  0.790556E-04  0.436E-02    0.72       1.0  T
   4   -183.7865838 -0.785671E-04  0.215E-02    0.73       1.0  T
   5   -183.7866086 -0.247978E-04  0.104E-02    0.72       1.1  T
   6   -183.7866128 -0.421540E-05  0.360E-03    0.72       3.1  T
   7   -183.7866133 -0.503652E-06  0.183E-03    0.72       6.1  T
   8   -183.7866135 -0.178628E-06  0.843E-04    0.72      13.2  T
     SCC iter.                  ...        0 min,  1.121 sec
     gradient                   ...        0 min,  0.051 sec
 * total energy  :  -181.6155309 Eh     change       -0.4017972E-03 Eh
   gradient norm :     0.0147949 Eh/α   predicted    -0.4715801E-03 (  17.37%)
   displ. norm   :     0.5540741 α      lambda       -0.7227075E-03
   maximum displ.:     0.3246172 α      in ANC's #4, #2, #9, ...

........................................................................
.............................. CYCLE   38 ..............................
........................................................................
   1   -183.7780497 -0.183778E+03  0.186E-01    0.71       0.0  T
   2   -183.7781423 -0.926455E-04  0.103E-01    0.72       1.0  T
   3   -183.7779794  0.162875E-03  0.548E-02    0.71       1.0  T
   4   -183.7781524 -0.172944E-03  0.226E-02    0.72       1.0  T
   5   -183.7781861 -0.337236E-04  0.106E-02    0.72       1.1  T
   6   -183.7781902 -0.410180E-05  0.522E-03    0.72       2.1  T
   7   -183.7781920 -0.181201E-05  0.186E-03    0.72       6.0  T
   8   -183.7781921 -0.112403E-06  0.995E-04    0.72      11.2  T
     SCC iter.                  ...        0 min,  1.738 sec
     gradient                   ...        0 min,  0.039 sec
 * total energy  :  -181.6158943 Eh     change       -0.3634105E-03 Eh
   gradient norm :     0.0151827 Eh/α   predicted    -0.4722930E-03 (  29.96%)
   displ. norm   :     0.3628573 α      lambda       -0.6090063E-03
   maximum displ.:     0.2264456 α      in ANC's #4, #2, #16, ...

........................................................................
.............................. CYCLE   39 ..............................
........................................................................
   1   -183.7866091 -0.183787E+03  0.140E-01    0.71       0.0  T
   2   -183.7866685 -0.594683E-04  0.802E-02    0.71       1.0  T
   3   -183.7865959  0.726064E-04  0.382E-02    0.71       1.0  T
   4   -183.7866791 -0.832130E-04  0.138E-02    0.72       1.0  T
   5   -183.7866926 -0.134769E-04  0.648E-03    0.71       1.7  T
   6   -183.7866946 -0.196619E-05  0.319E-03    0.71       3.5  T
   7   -183.7866953 -0.664632E-06  0.158E-03    0.71       7.0  T
   8   -183.7866954 -0.110042E-06  0.789E-04    0.71      14.1  T
     SCC iter.                  ...        0 min,  0.595 sec
     gradient                   ...        0 min,  0.061 sec
 * total energy  :  -181.6161591 Eh     change       -0.2647937E-03 Eh
   gradient norm :     0.0176370 Eh/α   predicted    -0.3445968E-03 (  30.14%)
   displ. norm   :     0.3727747 α      lambda       -0.5952138E-03
   maximum displ.:     0.2324606 α      in ANC's #4, #2, #1, ...

........................................................................
.............................. CYCLE   40 ..............................
........................................................................
   1   -183.7837861 -0.183784E+03  0.125E-01    0.73       0.0  T
   2   -183.7838276 -0.415015E-04  0.691E-02    0.73       1.0  T
   3   -183.7837473  0.802385E-04  0.329E-02    0.73       1.0  T
   4   -183.7838264 -0.791089E-04  0.139E-02    0.73       1.0  T
   5   -183.7838416 -0.151432E-04  0.706E-03    0.73       1.6  T
   6   -183.7838448 -0.322437E-05  0.300E-03    0.73       3.7  T
   7   -183.7838452 -0.434430E-06  0.152E-03    0.73       7.3  T
   8   -183.7838453 -0.826642E-07  0.781E-04    0.73      14.2  T
     SCC iter.                  ...        0 min,  1.788 sec
     gradient                   ...        0 min,  0.282 sec
 * total energy  :  -181.6164613 Eh     change       -0.3022025E-03 Eh
   gradient norm :     0.0140529 Eh/α   predicted    -0.3389669E-03 (  12.17%)
   displ. norm   :     0.3477539 α      lambda       -0.5441276E-03
   maximum displ.:     0.2319721 α      in ANC's #4, #2, #16, ...

........................................................................
.............................. CYCLE   41 ..............................
........................................................................
   1   -183.7867162 -0.183787E+03  0.124E-01    0.74       0.0  T
   2   -183.7867590 -0.427739E-04  0.693E-02    0.74       1.0  T
   3   -183.7866953  0.636906E-04  0.312E-02    0.73       1.0  T
   4   -183.7867562 -0.608453E-04  0.140E-02    0.74       1.0  T
   5   -183.7867708 -0.146910E-04  0.674E-03    0.74       1.6  T
   6   -183.7867736 -0.280078E-05  0.295E-03    0.74       3.8  T
   7   -183.7867739 -0.304126E-06  0.140E-03    0.74       7.9  T
     SCC iter.                  ...        0 min,  0.338 sec
     gradient                   ...        0 min,  0.042 sec
 * total energy  :  -181.6167687 Eh     change       -0.3074102E-03 Eh
   gradient norm :     0.0141511 Eh/α   predicted    -0.3049682E-03 (  -0.79%)
   displ. norm   :     0.3929262 α      lambda       -0.5049079E-03
   maximum displ.:     0.2560823 α      in ANC's #4, #2, #1, ...

........................................................................
.............................. CYCLE   42 ..............................
........................................................................
   1   -183.7867038 -0.183787E+03  0.132E-01    0.73       0.0  T
   2   -183.7867318 -0.280335E-04  0.732E-02    0.74       1.0  T
   3   -183.7866977  0.341746E-04  0.256E-02    0.73       1.0  T
   4   -183.7867352 -0.375332E-04  0.110E-02    0.74       1.0  T
   5   -183.7867407 -0.552368E-05  0.641E-03    0.74       1.7  T
   6   -183.7867433 -0.258037E-05  0.219E-03    0.74       5.1  T
   7   -183.7867436 -0.323377E-06  0.989E-04    0.74      11.2  T
     SCC iter.                  ...        0 min,  1.100 sec
     gradient                   ...        0 min,  0.060 sec
 * total energy  :  -181.6171511 Eh     change       -0.3824695E-03 Eh
   gradient norm :     0.0097563 Eh/α   predicted    -0.2914318E-03 ( -23.80%)
   displ. norm   :     0.5635275 α      lambda       -0.5828284E-03
   maximum displ.:     0.3660222 α      in ANC's #4, #2, #1, ...
 * RMSD in coord.:     1.0846543 α      energy gain  -0.1689102E-01 Eh

generating ANC from model Hessian ...
Using Lindh-Hessian (1995)
 Shifting diagonal of input Hessian by   4.999516311157657E-003
 Lowest  eigenvalues of input Hessian
   -0.000000   -0.000000    0.000000    0.000000    0.000000    0.000000
    0.005000    0.005014    0.005028    0.005128    0.005183    0.005367
    0.005683    0.005805    0.006035    0.006316    0.006419    0.006497
 Highest eigenvalues
    2.321377    2.355404    2.594467    2.621790    2.635751    2.652447
 

........................................................................
.............................. CYCLE   43 ..............................
........................................................................
   1   -183.7844365 -0.183784E+03  0.198E-01    0.73       0.0  T
   2   -183.7844987 -0.622100E-04  0.110E-01    0.73       1.0  T
   3   -183.7844487  0.500032E-04  0.359E-02    0.73       1.0  T
   4   -183.7845149 -0.662408E-04  0.144E-02    0.73       1.0  T
   5   -183.7845179 -0.294706E-05  0.922E-03    0.73       1.2  T
   6   -183.7845222 -0.437286E-05  0.339E-03    0.73       3.3  T
   7   -183.7845228 -0.513272E-06  0.165E-03    0.73       6.7  T
   8   -183.7845229 -0.109016E-06  0.740E-04    0.73      15.0  T
   9   -183.7845229  0.719851E-08  0.512E-04    0.73      21.7  T
     SCC iter.                  ...        0 min,  0.881 sec
     gradient                   ...        0 min,  0.044 sec
 * total energy  :  -181.6175646 Eh     change       -0.4134767E-03 Eh
   gradient norm :     0.0127861 Eh/α   predicted     0.0000000E+00 (-100.00%)
   displ. norm   :     0.1685166 α      lambda       -0.3898816E-03
   maximum displ.:     0.0902847 α      in ANC's #4, #2, #9, ...

........................................................................
.............................. CYCLE   44 ..............................
........................................................................
   1   -183.7869732 -0.183787E+03  0.743E-02    0.73       0.0  T
   2   -183.7869868 -0.135363E-04  0.425E-02    0.73       1.0  T
   3   -183.7869606  0.261653E-04  0.198E-02    0.73       1.0  T
   4   -183.7869880 -0.273849E-04  0.750E-03    0.73       1.5  T
   5   -183.7869921 -0.414400E-05  0.348E-03    0.73       3.2  T
   6   -183.7869928 -0.649908E-06  0.176E-03    0.73       6.3  T
   7   -183.7869929 -0.176382E-06  0.778E-04    0.73      14.3  T
     SCC iter.                  ...        0 min,  0.351 sec
     gradient                   ...        0 min,  0.044 sec
 * total energy  :  -181.6178447 Eh     change       -0.2800591E-03 Eh
   gradient norm :     0.0057382 Eh/α   predicted    -0.2004768E-03 ( -28.42%)
   displ. norm   :     0.1700257 α      lambda       -0.3005807E-03
   maximum displ.:     0.0836297 α      in ANC's #4, #2, #9, ...

........................................................................
.............................. CYCLE   45 ..............................
........................................................................
   1   -183.7893750 -0.183789E+03  0.812E-02    0.73       0.0  T
   2   -183.7893891 -0.140814E-04  0.460E-02    0.73       1.0  T
   3   -183.7893537  0.353793E-04  0.228E-02    0.73       1.0  T
   4   -183.7893919 -0.381800E-04  0.797E-03    0.73       1.4  T
   5   -183.7893960 -0.407421E-05  0.353E-03    0.73       3.2  T
   6   -183.7893964 -0.483419E-06  0.176E-03    0.73       6.3  T
   7   -183.7893966 -0.128859E-06  0.777E-04    0.73      14.3  T
     SCC iter.                  ...        0 min,  0.367 sec
     gradient                   ...        0 min,  0.060 sec
 * total energy  :  -181.6180286 Eh     change       -0.1839047E-03 Eh
   gradient norm :     0.0058069 Eh/α   predicted    -0.1546372E-03 ( -15.91%)
   displ. norm   :     0.2527972 α      lambda       -0.2719817E-03
   maximum displ.:     0.1259911 α      in ANC's #4, #2, #9, ...

........................................................................
.............................. CYCLE   46 ..............................
........................................................................
   1   -183.7897910 -0.183790E+03  0.114E-01    0.72       0.0  T
   2   -183.7898049 -0.139419E-04  0.644E-02    0.73       1.0  T
   3   -183.7897660  0.389356E-04  0.235E-02    0.72       1.0  T
   4   -183.7898082 -0.421732E-04  0.880E-03    0.73       1.3  T
   5   -183.7898126 -0.444363E-05  0.430E-03    0.73       2.6  T
   6   -183.7898132 -0.595706E-06  0.206E-03    0.73       5.4  T
   7   -183.7898136 -0.360764E-06  0.741E-04    0.73      15.0  T
     SCC iter.                  ...        0 min,  0.863 sec
     gradient                   ...        0 min,  0.046 sec
 * total energy  :  -181.6182519 Eh     change       -0.2233253E-03 Eh
   gradient norm :     0.0081248 Eh/α   predicted    -0.1446894E-03 ( -35.21%)
   displ. norm   :     0.4703827 α      lambda       -0.4345275E-03
   maximum displ.:     0.2336930 α      in ANC's #4, #2, #9, ...

........................................................................
.............................. CYCLE   47 ..............................
........................................................................
   1   -183.7870114 -0.183787E+03  0.213E-01    0.71       0.0  T
   2   -183.7870658 -0.544121E-04  0.121E-01    0.72       1.0  T
   3   -183.7869777  0.881676E-04  0.398E-02    0.71       1.0  T
   4   -183.7870807 -0.103033E-03  0.146E-02    0.72       1.0  T
   5   -183.7870903 -0.957934E-05  0.809E-03    0.72       1.4  T
   6   -183.7870934 -0.313263E-05  0.323E-03    0.72       3.4  T
   7   -183.7870941 -0.726127E-06  0.153E-03    0.72       7.3  T
   8   -183.7870942 -0.887392E-07  0.752E-04    0.72      14.8  T
     SCC iter.                  ...        0 min,  0.671 sec
     gradient                   ...        0 min,  0.059 sec
 * total energy  :  -181.6185830 Eh     change       -0.3311243E-03 Eh
   gradient norm :     0.0110286 Eh/α   predicted    -0.2653373E-03 ( -19.87%)
   displ. norm   :     0.4568915 α      lambda       -0.3833803E-03
   maximum displ.:     0.2400266 α      in ANC's #4, #2, #9, ...

........................................................................
.............................. CYCLE   48 ..............................
........................................................................
   1   -183.7842708 -0.183784E+03  0.192E-01    0.71       0.0  T
   2   -183.7843116 -0.408697E-04  0.108E-01    0.71       1.0  T
   3   -183.7842559  0.557007E-04  0.326E-02    0.71       1.0  T
   4   -183.7843250 -0.690738E-04  0.121E-02    0.71       1.0  T
   5   -183.7843287 -0.374150E-05  0.688E-03    0.71       1.6  T
   6   -183.7843311 -0.237329E-05  0.280E-03    0.71       4.0  T
   7   -183.7843316 -0.437903E-06  0.149E-03    0.71       7.5  T
     SCC iter.                  ...        0 min,  0.884 sec
     gradient                   ...        0 min,  0.041 sec
 * total energy  :  -181.6188615 Eh     change       -0.2785097E-03 Eh
   gradient norm :     0.0146463 Eh/α   predicted    -0.2317152E-03 ( -16.80%)
   displ. norm   :     0.3731968 α      lambda       -0.4448373E-03
   maximum displ.:     0.2150223 α      in ANC's #4, #2, #9, ...

........................................................................
.............................. CYCLE   49 ..............................
........................................................................
   1   -183.7849278 -0.183785E+03  0.135E-01    0.71       0.0  T
   2   -183.7849659 -0.381956E-04  0.755E-02    0.71       1.0  T
   3   -183.7849244  0.415683E-04  0.304E-02    0.71       1.0  T
   4   -183.7849687 -0.443087E-04  0.138E-02    0.71       1.0  T
   5   -183.7849798 -0.111499E-04  0.704E-03    0.71       1.6  T
   6   -183.7849817 -0.189381E-05  0.275E-03    0.71       4.0  T
   7   -183.7849821 -0.411222E-06  0.107E-03    0.71      10.4  T
     SCC iter.                  ...        0 min,  1.207 sec
     gradient                   ...        0 min,  0.189 sec
 * total energy  :  -181.6192027 Eh     change       -0.3411167E-03 Eh
   gradient norm :     0.0130231 Eh/α   predicted    -0.2533994E-03 ( -25.71%)
   displ. norm   :     0.4619919 α      lambda       -0.5474839E-03
   maximum displ.:     0.2783221 α      in ANC's #4, #2, #1, ...

........................................................................
.............................. CYCLE   50 ..............................
........................................................................
   1   -183.7869244 -0.183787E+03  0.167E-01    0.72       0.0  T
   2   -183.7869573 -0.328723E-04  0.932E-02    0.72       1.0  T
   3   -183.7868743  0.829721E-04  0.371E-02    0.72       1.0  T
   4   -183.7869645 -0.902061E-04  0.150E-02    0.72       1.0  T
   5   -183.7869737 -0.919040E-05  0.779E-03    0.72       1.4  T
   6   -183.7869755 -0.181955E-05  0.339E-03    0.72       3.3  T
   7   -183.7869762 -0.718151E-06  0.115E-03    0.72       9.6  T
   8   -183.7869762 -0.134859E-07  0.750E-04    0.72      14.8  T
     SCC iter.                  ...        0 min,  0.955 sec
     gradient                   ...        0 min,  0.065 sec
 * total energy  :  -181.6196334 Eh     change       -0.4307553E-03 Eh
   gradient norm :     0.0110211 Eh/α   predicted    -0.3321691E-03 ( -22.89%)
   displ. norm   :     0.6199604 α      lambda       -0.6367913E-03
   maximum displ.:     0.3721560 α      in ANC's #4, #2, #1, ...

........................................................................
.............................. CYCLE   51 ..............................
........................................................................
   1   -183.7858348 -0.183786E+03  0.237E-01    0.72       0.0  T
   2   -183.7859028 -0.679886E-04  0.133E-01    0.73       1.0  T
   3   -183.7857755  0.127236E-03  0.481E-02    0.72       1.0  T
   4   -183.7859185 -0.142989E-03  0.194E-02    0.73       1.0  T
   5   -183.7859330 -0.145359E-04  0.108E-02    0.73       1.0  T
   6   -183.7859373 -0.428710E-05  0.378E-03    0.73       2.9  T
   7   -183.7859382 -0.824959E-06  0.160E-03    0.73       6.9  T
   8   -183.7859382 -0.501026E-07  0.921E-04    0.73      12.1  T
     SCC iter.                  ...        0 min,  0.620 sec
     gradient                   ...        0 min,  0.057 sec
 * total energy  :  -181.6200938 Eh     change       -0.4603677E-03 Eh
   gradient norm :     0.0133743 Eh/α   predicted    -0.4407763E-03 (  -4.26%)
   displ. norm   :     0.5174031 α      lambda       -0.5866145E-03
   maximum displ.:     0.3379044 α      in ANC's #4, #2, #1, ...

........................................................................
.............................. CYCLE   52 ..............................
........................................................................
   1   -183.7881938 -0.183788E+03  0.173E-01    0.73       0.0  T
   2   -183.7882329 -0.390654E-04  0.953E-02    0.73       1.0  T
   3   -183.7881838  0.490827E-04  0.313E-02    0.73       1.0  T
   4   -183.7882383 -0.544481E-04  0.143E-02    0.73       1.0  T
   5   -183.7882453 -0.700790E-05  0.743E-03    0.73       1.5  T
   6   -183.7882477 -0.248051E-05  0.302E-03    0.73       3.7  T
   7   -183.7882482 -0.434992E-06  0.140E-03    0.73       7.9  T
   8   -183.7882483 -0.854164E-07  0.659E-04    0.73      16.9  T
     SCC iter.                  ...        0 min,  1.965 sec
     gradient                   ...        0 min,  0.105 sec
 * total energy  :  -181.6204903 Eh     change       -0.3964958E-03 Eh
   gradient norm :     0.0099035 Eh/α   predicted    -0.3718280E-03 (  -6.22%)
   displ. norm   :     0.6790770 α      lambda       -0.5731892E-03
   maximum displ.:     0.4184748 α      in ANC's #4, #2, #1, ...

........................................................................
.............................. CYCLE   53 ..............................
........................................................................
   1   -183.7820466 -0.183782E+03  0.253E-01    0.73       0.0  T
   2   -183.7821237 -0.771091E-04  0.141E-01    0.74       1.0  T
   3   -183.7820865  0.372149E-04  0.326E-02    0.72       1.0  T
   4   -183.7821334 -0.468668E-04  0.173E-02    0.73       1.0  T
   5   -183.7821459 -0.125528E-04  0.694E-03    0.73       1.6  T
   6   -183.7821475 -0.161075E-05  0.380E-03    0.73       2.9  T
   7   -183.7821484 -0.916077E-06  0.196E-03    0.73       5.7  T
   8   -183.7821487 -0.207762E-06  0.906E-04    0.73      12.3  T
     SCC iter.                  ...        0 min,  0.590 sec
     gradient                   ...        0 min,  0.049 sec
 * total energy  :  -181.6208360 Eh     change       -0.3457730E-03 Eh
   gradient norm :     0.0186047 Eh/α   predicted    -0.4187676E-03 (  21.11%)
   displ. norm   :     0.4077955 α      lambda       -0.6566941E-03
   maximum displ.:     0.2706598 α      in ANC's #4, #2, #1, ...

........................................................................
.............................. CYCLE   54 ..............................
........................................................................
   1   -183.7882730 -0.183788E+03  0.136E-01    0.73       0.0  T
   2   -183.7883144 -0.414155E-04  0.757E-02    0.72       1.0  T
   3   -183.7882261  0.882294E-04  0.346E-02    0.73       1.0  T
   4   -183.7883101 -0.840052E-04  0.154E-02    0.72       1.0  T
   5   -183.7883313 -0.212009E-04  0.692E-03    0.73       1.6  T
   6   -183.7883338 -0.244064E-05  0.289E-03    0.73       3.8  T
   7   -183.7883341 -0.321957E-06  0.151E-03    0.73       7.3  T
     SCC iter.                  ...        0 min,  0.402 sec
     gradient                   ...        0 min,  0.044 sec
 * total energy  :  -181.6212513 Eh     change       -0.4152747E-03 Eh
   gradient norm :     0.0129613 Eh/α   predicted    -0.3829506E-03 (  -7.78%)
   displ. norm   :     0.5252818 α      lambda       -0.7725745E-03
   maximum displ.:     0.3388982 α      in ANC's #4, #2, #1, ...

........................................................................
.............................. CYCLE   55 ..............................
........................................................................
   1   -183.7903837 -0.183790E+03  0.187E-01    0.73       0.0  T
   2   -183.7904956 -0.111903E-03  0.105E-01    0.72       1.0  T
   3   -183.7903365  0.159114E-03  0.482E-02    0.72       1.0  T
   4   -183.7904939 -0.157404E-03  0.206E-02    0.72       1.0  T
   5   -183.7905281 -0.341916E-04  0.919E-03    0.72       1.2  T
   6   -183.7905331 -0.503060E-05  0.405E-03    0.72       2.7  T
   7   -183.7905337 -0.546504E-06  0.203E-03    0.72       5.5  T
   8   -183.7905338 -0.159338E-06  0.928E-04    0.72      12.0  T
     SCC iter.                  ...        0 min,  0.347 sec
     gradient                   ...        0 min,  0.043 sec
 * total energy  :  -181.6215314 Eh     change       -0.2800318E-03 Eh
   gradient norm :     0.0190293 Eh/α   predicted    -0.4928740E-03 (  76.01%)
   displ. norm   :     0.4157407 α      lambda       -0.6378593E-03
   maximum displ.:     0.2739020 α      in ANC's #4, #2, #1, ...

........................................................................
.............................. CYCLE   56 ..............................
........................................................................
   1   -183.7892068 -0.183789E+03  0.148E-01    0.72       0.0  T
   2   -183.7892581 -0.512156E-04  0.809E-02    0.73       1.0  T
   3   -183.7892270  0.310151E-04  0.273E-02    0.72       1.0  T
   4   -183.7892620 -0.349853E-04  0.120E-02    0.72       1.0  T
   5   -183.7892690 -0.700777E-05  0.595E-03    0.72       1.9  T
   6   -183.7892708 -0.180851E-05  0.276E-03    0.72       4.0  T
   7   -183.7892713 -0.408687E-06  0.154E-03    0.72       7.2  T
     SCC iter.                  ...        0 min,  0.215 sec
     gradient                   ...        0 min,  0.043 sec
 * total energy  :  -181.6219208 Eh     change       -0.3894820E-03 Eh
   gradient norm :     0.0115490 Eh/α   predicted    -0.3740562E-03 (  -3.96%)
   displ. norm   :     0.5354780 α      lambda       -0.4477313E-03
   maximum displ.:     0.3551334 α      in ANC's #4, #2, #1, ...

........................................................................
.............................. CYCLE   57 ..............................
........................................................................
   1   -183.7861382 -0.183786E+03  0.177E-01    0.73       0.0  T
   2   -183.7861832 -0.450110E-04  0.981E-02    0.72       1.0  T
   3   -183.7861254  0.577818E-04  0.343E-02    0.73       1.0  T
   4   -183.7861938 -0.683824E-04  0.138E-02    0.72       1.0  T
   5   -183.7861995 -0.571084E-05  0.833E-03    0.73       1.3  T
   6   -183.7862027 -0.315917E-05  0.366E-03    0.72       3.0  T
   7   -183.7862037 -0.101979E-05  0.126E-03    0.72       8.8  T
   8   -183.7862037 -0.357217E-07  0.700E-04    0.72      15.9  T
     SCC iter.                  ...        0 min,  0.293 sec
     gradient                   ...        0 min,  0.049 sec
 * total energy  :  -181.6221824 Eh     change       -0.2615712E-03 Eh
   gradient norm :     0.0122260 Eh/α   predicted    -0.2880603E-03 (  10.13%)
   displ. norm   :     0.3922838 α      lambda       -0.4497862E-03
   maximum displ.:     0.2600381 α      in ANC's #4, #2, #1, ...

........................................................................
.............................. CYCLE   58 ..............................
........................................................................
   1   -183.7935917 -0.183794E+03  0.124E-01    0.74       0.0  T
   2   -183.7936388 -0.470422E-04  0.673E-02    0.73       1.0  T
   3   -183.7935567  0.820983E-04  0.351E-02    0.74       1.0  T
   4   -183.7936444 -0.876751E-04  0.134E-02    0.73       1.0  T
   5   -183.7936537 -0.932122E-05  0.726E-03    0.73       1.5  T
   6   -183.7936566 -0.291216E-05  0.312E-03    0.73       3.6  T
   7   -183.7936570 -0.400431E-06  0.141E-03    0.73       7.9  T
   8   -183.7936571 -0.869605E-07  0.711E-04    0.73      15.6  T
     SCC iter.                  ...        0 min,  0.976 sec
     gradient                   ...        0 min,  0.041 sec
 * total energy  :  -181.6224234 Eh     change       -0.2410387E-03 Eh
   gradient norm :     0.0103266 Eh/α   predicted    -0.2595044E-03 (   7.66%)
   displ. norm   :     0.6578870 α      lambda       -0.5016221E-03
   maximum displ.:     0.4365633 α      in ANC's #4, #2, #1, ...

[...]
         :: -> dispersion             -0.133317825515 Eh    ::
         :: repulsion energy           2.168128692841 Eh    ::
         :: add. restraining           0.000000000000 Eh    ::
         :::::::::::::::::::::::::::::::::::::::::::::::::::::

           -------------------------------------------------
          |                Property Printout                |
           -------------------------------------------------

    * Orbital Energies and Occupations

         #    Occupation            Energy/Eh            Energy/eV
      -------------------------------------------------------------
         1        2.0000           -0.8061642             -21.9368
       ...           ...                  ...                  ...
       147        2.0000           -0.4421043             -12.0303
       148        2.0000           -0.4409873             -11.9999
       149        2.0000           -0.4405743             -11.9886
       150        2.0000           -0.4344127             -11.8210
       151        2.0000           -0.4329061             -11.7800
       152        2.0000           -0.4309606             -11.7270
       153        2.0000           -0.4280976             -11.6491
       154        2.0000           -0.4275715             -11.6348
       155        2.0000           -0.4254029             -11.5758
       156        2.0000           -0.4198054             -11.4235
       157        2.0000           -0.4143871             -11.2760
       158        2.0000           -0.3995619             -10.8726
       159        2.0000           -0.3901268             -10.6159 (HOMO)
       160        0.0000           -0.3611368              -9.8270 (LUMO)
       161                         -0.3591635              -9.7733
       162                         -0.3454592              -9.4004
       163                         -0.3375238              -9.1845
       164                         -0.3321833              -9.0392
       165                         -0.3272589              -8.9052
       166                         -0.3219947              -8.7619
       167                         -0.3217136              -8.7543
       168                         -0.3007865              -8.1848
       169                         -0.2887205              -7.8565
       170                         -0.2842296              -7.7343
       ...                                ...                  ...
       306                          0.7354042              20.0114
      -------------------------------------------------------------
                  HL-Gap            0.0289900 Eh            0.7889 eV
             Fermi-level           -0.3756879 Eh          -10.2230 eV

     #   Z        covCN         q      C6AA      α(0)
     1   6 C      2.929    -0.017    28.430     8.744
     2   6 C      3.231    -0.002    27.235     8.473
     3   6 C      3.259    -0.029    27.537     8.481
     4   6 C      2.923    -0.012    28.308     8.725
     5  16 S      2.341     0.084   137.660    19.747
     6   6 C      2.858     0.234    23.109     7.879
     7   8 O      0.943    -0.350    20.667     6.097
     8   6 C      3.025    -0.030    28.728     8.792
     9   6 C      3.000     0.045    26.969     8.519
    10   6 C      2.826    -0.040    28.990     8.823
    11   7 N      2.758     0.552    13.464     5.450
    12   8 O      0.930    -0.405    21.745     6.254
    13   8 O      0.931    -0.377    21.193     6.174
    14   7 N      2.757     0.563    13.342     5.425
    15   8 O      0.929    -0.356    20.794     6.116
    16   8 O      0.930    -0.380    21.247     6.182
    17   6 C      2.918    -0.005    28.141     8.699
    18   6 C      2.993     0.020    27.554     8.611
    19  16 S      2.312     0.140   135.484    19.591
    20   6 C      3.097     0.015    27.552     8.602
    21   6 C      3.195    -0.037    28.379     8.685
    22   6 C      3.051    -0.020    28.465     8.750
    23   6 C      2.882     0.237    23.064     7.873
    24   8 O      0.856    -0.319    20.137     6.016
    25   6 C      3.042    -0.009    28.209     8.711
    26   6 C      2.967    -0.033    28.826     8.807
    27   6 C      2.897    -0.025    28.632     8.773
    28   6 C      2.939    -0.026    28.664     8.781
    29   6 C      2.983     0.039    27.116     8.542
    30   6 C      3.058    -0.047    29.103     8.847
    31   6 C      3.133     0.008    27.632     8.605
    32   6 C      3.001     0.034    27.230     8.560
    33  16 S      2.278    -0.043   142.844    20.116
    34   6 C      2.934    -0.042    29.054     8.840
    35   6 C      3.132     0.008    27.635     8.606
    36   6 C      3.002     0.033    27.254     8.564
    37   6 C      2.934    -0.041    29.022     8.835
    38  16 S      2.265    -0.028   142.216    20.071
    39   6 C      3.022     0.029    27.332     8.576
    40   6 C      3.058    -0.049    29.155     8.855
    41   6 C      3.019     0.037    27.159     8.549
    42  16 S      2.336     0.021   140.195    19.928
    43   6 C      2.983    -0.043    29.055     8.842
    44   6 C      2.714     0.355    20.970     7.496
    45   8 O      0.857    -0.402    21.716     6.248
    46   8 O      1.660    -0.357    20.031     6.042
    47   6 C      3.136     0.019    27.360     8.562
    48   6 C      3.108    -0.043    28.920     8.811
    49   6 C      2.902     0.004    27.943     8.667
    50   6 C      3.028    -0.004    28.088     8.693
    51   6 C      2.989     0.070    26.416     8.431
    52   6 C      2.825    -0.036    28.876     8.805
    53   7 N      2.757     0.557    13.405     5.438
    54   8 O      0.932    -0.372    21.101     6.161
    55   8 O      0.930    -0.386    21.371     6.200
    56   7 N      2.758     0.564    13.326     5.422
    57   8 O      0.930    -0.369    21.036     6.151
    58   8 O      0.929    -0.367    20.996     6.145
    59   6 C      3.235     0.012    26.878     8.412
    60   6 C      2.927    -0.015    28.387     8.738
    61  16 S      2.346     0.120   136.250    19.646
    62   6 C      2.923    -0.013    28.338     8.730
    63   6 C      3.255    -0.022    27.435     8.471
    64   6 C      2.854     0.243    22.939     7.850
    65   8 O      0.856    -0.330    20.338     6.046
    66   1 H      0.926     0.105     1.742     2.064
    67   1 H      0.926     0.078     1.999     2.211
    68   1 H      0.925     0.067     2.114     2.274
    69   1 H      0.926     0.076     2.018     2.222
    70   1 H      0.926     0.061     2.182     2.310
    71   1 H      0.925     0.071     2.075     2.253
    72   1 H      0.925     0.059     2.211     2.325
    73   1 H      0.926     0.057     2.234     2.337
    74   1 H      0.926     0.054     2.271     2.357
    75   1 H      0.926     0.056     2.246     2.344
    76   1 H      0.926     0.054     2.271     2.356
    77   1 H      0.805     0.331     0.633     1.250
    78   1 H      0.926     0.071     2.074     2.252
    79   1 H      0.925     0.099     1.793     2.094
    80   1 H      0.926     0.115     1.652     2.010
    81   1 H      0.926     0.085     1.929     2.172

 Mol. C6AA /au·bohr⁶  :     149240.465872
 Mol. C8AA /au·bohr⁸  :    4358565.240996
 Mol. α(0) /au        :        616.107936


Wiberg/Mayer (AO) data.
largest (>0.10) Wiberg bond orders for each atom
          total WBO             WBO to atom ...
     1  C   3.941        C    2 1.557    S    5 1.220    H   66 0.952
     2  C   3.975        C    1 1.557    C    3 1.151    C    9 1.094
     3  C   3.973        C    4 1.588    C    2 1.151    C    6 1.028
     4  C   3.949        C    3 1.588    S    5 1.204    H   67 0.966
     5  S   2.670        C    1 1.220    C    4 1.204
     6  C   3.935        O    7 1.716    C    8 1.053    C    3 1.028
     7  O   2.131        C    6 1.716    S   19 0.121
     8  C   3.949        C   17 1.456    C    9 1.155    C    6 1.053
     9  C   3.960        C   10 1.492    C    8 1.155    C    2 1.094
    10  C   3.884        C    9 1.492    N   11 1.012    N   14 0.944
    11  N   3.909        O   13 1.438    O   12 1.405    C   10 1.012
    12  O   1.901        N   11 1.405    O   13 0.340
    13  O   1.915        N   11 1.438    O   12 0.340
    14  N   3.914        O   15 1.471    O   16 1.449    C   10 0.944
    15  O   1.956        N   14 1.471    O   16 0.373
    16  O   1.944        N   14 1.449    O   15 0.373
    17  C   3.951        C    8 1.456    C   18 1.340    H   68 0.948
    18  C   3.923        C   17 1.340    C   22 1.314    S   19 1.100
    19  S   2.806        C   20 1.269    C   18 1.100    O    7 0.121
    20  C   3.933        S   19 1.269    C   21 1.254    C   26 1.211
    21  C   3.954        C   22 1.464    C   20 1.254    C   23 1.016
    22  C   3.966        C   21 1.464    C   18 1.314    H   69 0.959
    23  C   3.925        O   24 1.839    C   21 1.016    C   25 0.967
    24  O   2.105        C   23 1.839
    25  C   3.932        C   26 1.523    C   27 1.238    C   23 0.967
    26  C   3.917        C   25 1.523    C   20 1.211    H   70 0.966
    27  C   3.949        C   28 1.591    C   25 1.238    H   71 0.956
    28  C   3.920        C   27 1.591    C   29 1.216    H   72 0.961
    29  C   3.936        C   30 1.491    C   28 1.216    S   33 1.088
    30  C   3.913        C   29 1.491    C   31 1.255    H   73 0.959
    31  C   3.971        C   37 1.322    C   30 1.255    C   32 1.216
    32  C   3.944        C   34 1.448    C   31 1.216    S   33 1.111
    33  S   2.492        C   32 1.111    C   29 1.088
    34  C   3.968        C   32 1.448    C   35 1.332    H   74 0.965
    35  C   3.965        C   34 1.332    C   40 1.234    C   36 1.222
    36  C   3.950        C   37 1.453    C   35 1.222    S   38 1.102
    37  C   3.957        C   36 1.453    C   31 1.322    H   75 0.964
    38  S   2.504        C   36 1.102    C   39 1.093
    39  C   3.934        C   40 1.537    C   41 1.160    S   38 1.093
    40  C   3.969        C   39 1.537    C   35 1.234    H   76 0.958
    41  C   3.956        C   48 1.487    C   39 1.160    S   42 1.141
    42  S   2.641        C   43 1.154    C   41 1.141
    43  C   3.917        C   47 1.419    S   42 1.154    C   44 1.050
    44  C   3.925        O   45 1.700    O   46 1.127    C   43 1.050
    45  O   2.032        C   44 1.700    O   46 0.156
    46  O   2.214        C   44 1.127    H   77 0.863    O   45 0.156
    47  C   3.986        C   43 1.419    C   48 1.286    C   49 1.090
    48  C   3.957        C   41 1.487    C   47 1.286    H   78 0.957
    49  C   3.953        C   50 1.699    C   47 1.090    H   79 0.940
    50  C   3.979        C   49 1.699    C   51 1.077    C   64 0.977
    51  C   3.975        C   52 1.540    C   59 1.116    C   50 1.077
    52  C   3.922        C   51 1.540    N   53 0.995    N   56 0.944
    53  N   3.918        O   54 1.443    O   55 1.424    C   52 0.995
    54  O   1.926        N   53 1.443    O   55 0.351
    55  O   1.936        N   53 1.424    O   54 0.351
    56  N   3.917        O   58 1.465    O   57 1.460    C   52 0.944
    57  O   1.945        N   56 1.460    O   58 0.374
    58  O   1.955        N   56 1.465    O   57 0.374
    59  C   3.982        C   60 1.529    C   63 1.143    C   51 1.116
    60  C   3.947        C   59 1.529    S   61 1.249    H   80 0.950
    61  S   2.708        C   60 1.249    C   62 1.208
    62  C   3.953        C   63 1.587    S   61 1.208    H   81 0.964
    63  C   3.978        C   62 1.587    C   59 1.143    C   64 1.028
    64  C   3.938        O   65 1.812    C   63 1.028    C   50 0.977
    65  O   2.110        C   64 1.812
    66  H   0.989        C    1 0.952
    67  H   0.993        C    4 0.966
    68  H   0.994        C   17 0.948
    69  H   0.994        C   22 0.959
    70  H   0.996        C   26 0.966
    71  H   0.994        C   27 0.956
    72  H   0.996        C   28 0.961
    73  H   0.996        C   30 0.959
    74  H   0.997        C   34 0.965
    75  H   0.996        C   37 0.964
    76  H   0.997        C   40 0.958
    77  H   0.890        O   46 0.863
    78  H   0.994        C   48 0.957
    79  H   0.989        C   49 0.940
    80  H   0.986        C   60 0.950
    81  H   0.992        C   62 0.964

molecular dipole:
                 x           y           z       tot (Debye)
 q only:        3.552      -3.086      -2.863
   full:        3.208      -2.972      -2.271      12.526
molecular quadrupole (traceless):
                xx          xy          yy          xz          yz          zz
 q only:        1.379    -108.859      27.696      33.910      73.496     -29.075
  q+dip:       16.217     -99.035      43.779      36.528      62.766     -59.996
   full:       13.085    -101.649      53.987      36.029      63.861     -67.072

           -------------------------------------------------
          |                Geometry Summary                 |
           -------------------------------------------------

      molecular mass/u    :      976.9674000
   center of mass at/Å    :        4.6623150      -6.9934872      -5.6228356
  moments of inertia/u·Å² :        0.3895184E+04   0.1075732E+06   0.1090944E+06
rotational constants/cm⁻¹ :        0.4327815E-02   0.1567085E-03   0.1545234E-03

 * 74 selected distances

     #   Z        #   Z                                     value/Å
     1   6 C      2   6 C                                 1.3627028
     2   6 C      3   6 C                                 1.4361932
     3   6 C      4   6 C                                 1.3558194
     1   6 C      5  16 S                                 1.7208878
     4   6 C      5  16 S                                 1.7248558
     6   6 C      7   8 O                                 1.2158077
     9   6 C     10   6 C                                 1.3713800
    10   6 C     11   7 N                                 1.4254015
    11   7 N     12   8 O                                 1.2162029
    11   7 N     13   8 O                                 1.2120975
    14   7 N     15   8 O                                 1.2066279
    14   7 N     16   8 O                                 1.2106462
     8   6 C     17   6 C                                 1.3784737
    17   6 C     18   6 C                                 1.3950282
    19  16 S     20   6 C                                 1.6999245
    20   6 C     21   6 C                                 1.4113685
    18   6 C     22   6 C                                 1.4088125
    21   6 C     22   6 C                                 1.3725160
    23   6 C     24   8 O                                 1.2043195
    20   6 C     26   6 C                                 1.4204175
    25   6 C     26   6 C                                 1.3746262
    25   6 C     27   6 C                                 1.4132695
    27   6 C     28   6 C                                 1.3587600
    28   6 C     29   6 C                                 1.4191864
    29   6 C     30   6 C                                 1.3732667
    30   6 C     31   6 C                                 1.4114183
    31   6 C     32   6 C                                 1.4240396
    32   6 C     33  16 S                                 1.7383473
    32   6 C     34   6 C                                 1.3761333
    34   6 C     35   6 C                                 1.3952625
    35   6 C     36   6 C                                 1.4226215
    31   6 C     37   6 C                                 1.3973811
    36   6 C     37   6 C                                 1.3754427
    36   6 C     38  16 S                                 1.7420765
    38  16 S     39   6 C                                 1.7526811 (max)
    35   6 C     40   6 C                                 1.4148779
    39   6 C     40   6 C                                 1.3658757
    39   6 C     41   6 C                                 1.4256635
    41   6 C     42  16 S                                 1.7310493
    42  16 S     43   6 C                                 1.7373173
    44   6 C     45   8 O                                 1.2071578
    44   6 C     46   8 O                                 1.3384262
    43   6 C     47   6 C                                 1.3902170
    41   6 C     48   6 C                                 1.3725964
    47   6 C     48   6 C                                 1.4088025
    49   6 C     50   6 C                                 1.3431579
    51   6 C     52   6 C                                 1.3632639
    53   7 N     54   8 O                                 1.2110134
    53   7 N     55   8 O                                 1.2110945
    56   7 N     57   8 O                                 1.2092102
    56   7 N     58   8 O                                 1.2071598
    51   6 C     59   6 C                                 1.4451467
    59   6 C     60   6 C                                 1.3666896
    60   6 C     61  16 S                                 1.7139719
    61  16 S     62   6 C                                 1.7234777
    59   6 C     63   6 C                                 1.4400462
    62   6 C     63   6 C                                 1.3563930
    64   6 C     65   8 O                                 1.2030729
     1   6 C     66   1 H                                 1.0716030
     4   6 C     67   1 H                                 1.0715440
    17   6 C     68   1 H                                 1.0848442
    22   6 C     69   1 H                                 1.0753923
    26   6 C     70   1 H                                 1.0744363
    27   6 C     71   1 H                                 1.0818535
    28   6 C     72   1 H                                 1.0814948
    30   6 C     73   1 H                                 1.0746664
    34   6 C     74   1 H                                 1.0782082
    37   6 C     75   1 H                                 1.0781377
    40   6 C     76   1 H                                 1.0760440
    46   8 O     77   1 H                                 0.9669860 (min)
    48   6 C     78   1 H                                 1.0752110
    49   6 C     79   1 H                                 1.0852722
    60   6 C     80   1 H                                 1.0714247
    62   6 C     81   1 H                                 1.0716584

 * 7 distinct bonds (by element types)

   Z      Z             #   av. dist./Å        max./Å        min./Å
   1 H    6 C          15     1.0767860     1.0852722     1.0714247
   6 C    6 C          34     1.3925544     1.4451467     1.3431579
   6 C    7 N           1     1.4254015     1.4254015     1.4254015
   1 H    8 O           1     0.9669860     0.9669860     0.9669860
   6 C    8 O           5     1.2337568     1.3384262     1.2030729
   7 N    8 O           8     1.2105065     1.2162029     1.2066279
   6 C   16 S          10     1.7284589     1.7526811     1.6999245


optimized geometry written to: xtbopt.xyz


           -------------------------------------------------
          | TOTAL ENERGY             -181.630030080783 Eh   |
          | GRADIENT NORM               0.000547633068 Eh/α |
          | HOMO-LUMO GAP               0.788857681230 eV   |
           -------------------------------------------------

------------------------------------------------------------------------
 * finished run on 2021/06/04 at 07:36:56.215     
------------------------------------------------------------------------
 total:
 * wall-time:     0 d,  0 h,  2 min, 11.624 sec
 *  cpu-time:     0 d,  0 h, 17 min,  5.329 sec
 * ratio c/w:     7.790 speedup
 SCF:
 * wall-time:     0 d,  0 h,  0 min,  1.514 sec
 *  cpu-time:     0 d,  0 h,  0 min, 10.380 sec
 * ratio c/w:     6.856 speedup
 ANC optimizer:
 * wall-time:     0 d,  0 h,  2 min,  9.993 sec
 *  cpu-time:     0 d,  0 h, 16 min, 54.254 sec
 * ratio c/w:     7.802 speedup

