      -----------------------------------------------------------      
     |                   =====================                   |     
     |                           x T B                           |     
     |                   =====================                   |     
     |                         S. Grimme                         |     
     |          Mulliken Center for Theoretical Chemistry        |     
     |                    University of Bonn                     |     
     |                Version 6.2 RC2 (SAW190805)                |     
      -----------------------------------------------------------      

   This program is distributed in the hope that it will be useful,
   but WITHOUT ANY WARRANTY; without even the implied warranty of
   MERCHANTABILITY or FITNESS FOR A PARTICULAR PURPOSE.
   
   FOR NON-COMMERCIAL, ACADEMIA USE ONLY.
   
   Cite this work as:
   * S. Grimme, C. Bannwarth, P. Shushkov, J. Chem. Theory Comput., 2017,
     13, 1989-2009. DOI: 10.1021/acs.jctc.7b00118
   * C. Bannwarth, S. Ehlert and S. Grimme., J. Chem. Theory Comput., 2019,
     15, 1652-1671. DOI: 10.1021/acs.jctc.8b01176
   * P. Pracht, E. Caldeweyher, S. Ehlert, S. Grimme, ChemRxiv, 2019, preprint.
     DOI: 10.26434/chemrxiv.8326202.v1
   
   for DFT-D4:
   * E. Caldeweyher, C. Bannwarth and S. Grimme, J. Chem. Phys., 2017,
     147, 034112. DOI: 10.1063/1.4993215
   * E. Caldeweyher, S. Ehlert, A. Hansen, H. Neugebauer, S. Spicher,
     C. Bannwarth and S. Grimme, J. Chem. Phys., 2019, 150, 154122.
     DOI: 10.1063/1.5090222
   
   for sTDA-xTB:
   * S. Grimme and C. Bannwarth, J. Chem. Phys., 2016, 145, 054103.
     DOI: 10.1063/1.4959605
   
   in the mass-spec context:
   * V. Asgeirsson, C. Bauer and S. Grimme, Chem. Sci., 2017, 8, 4879.
     DOI: 10.1039/c7sc00601b
   
   for metadynamics refer to:
   * S. Grimme, J. Chem. Theory Comput., 2019, 155, 2847-2862
     DOI: 10.1021/acs.jctc.9b00143
   
   with help from (in alphabetical order)
   C. Bannwarth, F. Bohle, G. Brandenburg, E. Caldeweyher, M. Checinski,
   S. Dohm, S. Ehlert, S. Ehrlich, F. März, H. Neugebauer, J. Pisarek,
   P. Pracht, P. Shushkov, and S. Spicher.
   
 * started run on 2021/06/13 at 11:02:01.732     

           -------------------------------------------------
          |                Calculation Setup                |
           -------------------------------------------------

          program call               : /ihome/ghutchison/geoffh/xtb/xtb /ihome/ghutchison/blp62/GA/running_GA/sequence/generations/147/267_5_70_178_47_13570.xyz -opt
          hostname                   : smp-n0
          coordinate file            : /ihome/ghutchison/blp62/GA/running_GA/sequence/generations/147/267_5_70_178_47_13570.xyz
          omp threads                :                    12
          number of atoms            :                   113
          number of electrons        :                   354
          charge                     :                     0
          spin                       :                   0.0
          first test random number   :      0.19694074883124


########################################################################
# WARNING! Please study the warnings concerning your input carefully
#  - XTBPATH is not set, using XTBHOME instead
#  - the use of '-opt' is discouraged, please use '--opt' next time
########################################################################

           ------------------------------------------------- 
          |                 G F N 2 - x T B                 |
          | Geometry, Frequencies, Noncovalent interactions |
          |            JCTC 2019 parametrisation            |
           ------------------------------------------------- 
             KAB for C  - Si     :                1.0500
             KAB for H  - Pd     :                0.9500
             k(s)              :                1.8500
             k(p)              :                2.2300
             k(d)              :                2.2300
             k(f)              :                2.0000
             kEN (H0ij)        :               -2.0000
             D4 a1             :                0.5200
             D4 a2             :                5.0000
             D4 s6             :                1.0000
             D4 s8             :                2.7000
             D4 s9             :                5.0000
             alphaj            :                2.0000

  Z AO/shell   Hii/eV     exponent
  1     Wed Apr 25 08:07:45 CEST 2018   EN: 2.200 GM2: 0.406  GM3: 0.0800  RAES: 1.40
     1s    -10.707211    1.230000
  6     Wed Apr 25 08:07:45 CEST 2018   EN: 2.550 GM2: 0.538  GM3: 0.1500  RAES: 3.00
     2s    -13.970922    2.096432
     2p    -10.063292    1.800000
  7     Wed Apr 25 08:07:45 CEST 2018   EN: 3.040 GM2: 0.461  GM3:-0.0640  RAES: 1.90
     2s    -16.686243    2.339881
     2p    -12.523956    2.014332
  8     Wed Apr 25 08:07:45 CEST 2018   EN: 3.440 GM2: 0.452  GM3:-0.0517  RAES: 1.80
     2s    -20.229985    2.439742
     2p    -15.503117    2.137023
 16     Tue Apr 24 11:44:34 CEST 2018   EN: 2.580 GM2: 0.340  GM3:-0.0502  RAES: 3.10
     3s    -20.029654    1.981333
     3p    -11.377694    2.025643
     3d     -0.420282    1.702555

           ------------------------------------------------- 
          |        Self-Consistent Charge Iterations        |
           ------------------------------------------------- 

          ...................................................
          :                      SETUP                      :
          :.................................................:
          :  # basis functions                 359          :
          :  # atomic orbitals                 355          :
          :  # shells                          191          :
          :  # electrons                       354          :
          :  max. iterations                   250          :
          :  Hamiltonian                  GFN2-xTB          :
          :  restarted?                      false          :
          :  GBSA solvation                  false          :
          :  PC potential                    false          :
          :  electronic temp.          300.0000000     K    :
          :  accuracy                    1.0000000          :
          :  -> integral cutoff          0.2500000E+02      :
          :  -> integral neglect         0.1000000E-07      :
          :  -> SCF convergence          0.1000000E-05 Eh   :
          :  -> wf. convergence          0.1000000E-03 e    :
          :  Broyden damping             0.4000000          :
          ...................................................

 iter      E             dE          RMSdq      gap      omega  full diag
   1   -194.1931650 -0.194193E+03  0.487E+00    0.59       0.0  T
   2   -194.2874746 -0.943096E-01  0.321E+00    0.34       1.0  T
   3   -193.6036544  0.683820E+00  0.239E+00    0.54       1.0  T
   4   -190.4878459  0.311581E+01  0.289E+00    0.52       1.0  T
   5   -193.9137661 -0.342592E+01  0.126E+00    0.24       1.0  T
   6   -194.5260907 -0.612325E+00  0.664E-01    1.02       1.0  T
   7   -194.5359481 -0.985742E-02  0.432E-01    0.83       1.0  T
   8   -194.5349594  0.988676E-03  0.337E-01    0.55       1.0  T
   9   -194.5403647 -0.540532E-02  0.153E-01    0.22       1.0  T
  10   -194.2101256  0.330239E+00  0.105E+00    0.09       1.0  T
  11   -194.5424926 -0.332367E+00  0.107E-01    0.09       1.0  T
  12   -194.5060381  0.364545E-01  0.351E-01    0.03       1.0  T
  13   -194.5451909 -0.391527E-01  0.205E-02    0.11       1.0  T
  14   -194.5450402  0.150626E-03  0.371E-02    0.13       1.0  T
  15   -194.5451977 -0.157449E-03  0.245E-02    0.13       1.0  T
  16   -194.5452479 -0.502336E-04  0.187E-02    0.13       1.0  T
  17   -194.5452839 -0.359299E-04  0.135E-02    0.12       1.0  T
  18   -194.5453232 -0.393655E-04  0.739E-03    0.12       1.3  T
  19   -194.5453351 -0.119118E-04  0.437E-03    0.12       2.2  T
  20   -194.5453361 -0.973223E-06  0.418E-03    0.12       2.3  T
  21   -194.5453393 -0.323048E-05  0.273E-03    0.12       3.4  T
  22   -194.5453409 -0.152521E-05  0.162E-03    0.12       5.8  T
  23   -194.5453415 -0.634198E-06  0.743E-04    0.12      12.7  T
  24   -194.5453416 -0.141086E-06  0.294E-04    0.12      32.0  T

   *** convergence criteria satisfied after 24 iterations ***

         #    Occupation            Energy/Eh            Energy/eV
      -------------------------------------------------------------
         1        2.0000           -0.7663517             -20.8535
       ...           ...                  ...                  ...
       171        2.0000           -0.3989944             -10.8572
       172        2.0000           -0.3987616             -10.8509
       173        2.0000           -0.3879409             -10.5564
       174        2.0000           -0.3796511             -10.3308
       175        2.0000           -0.3717435             -10.1157
       176        2.0000           -0.3707560             -10.0888
       177        1.8134           -0.3460659              -9.4169 (HOMO)
       178        0.1866           -0.3417452              -9.2994 (LUMO)
       179                         -0.3237890              -8.8107
       180                         -0.3077282              -8.3737
       181                         -0.3005355              -8.1780
       182                         -0.2974955              -8.0953
       ...                                ...                  ...
       355                          1.1008333              29.9552
      -------------------------------------------------------------
                  HL-Gap            0.0043208 Eh            0.1176 eV
             Fermi-level           -0.3439055 Eh           -9.3581 eV

 SCC (total)                   0 d,  0 h,  0 min,  0.320 sec
 SCC setup                      ...        0 min,  0.002 sec (  0.721%)
 Dispersion                     ...        0 min,  0.005 sec (  1.636%)
 integral evaluation            ...        0 min,  0.021 sec (  6.427%)
 zeroth order Hamiltonian       ...        0 min,  0.001 sec (  0.345%)
 iterations                     ...        0 min,  0.272 sec ( 84.926%)
 molecular gradient             ...        0 min,  0.018 sec (  5.632%)
 printout                       ...        0 min,  0.001 sec (  0.285%)

         :::::::::::::::::::::::::::::::::::::::::::::::::::::
         ::                     SUMMARY                     ::
         :::::::::::::::::::::::::::::::::::::::::::::::::::::
         :: total energy            -191.431715104310 Eh    ::
         :: gradient norm              0.183575177028 Eh/a0 ::
         :: HOMO-LUMO gap              0.117574378329 eV    ::
         ::.................................................::
         :: SCC energy              -194.545341635887 Eh    ::
         :: -> isotropic ES            0.101117733630 Eh    ::
         :: -> anisotropic ES          0.021574484429 Eh    ::
         :: -> anisotropic XC          0.167195878828 Eh    ::
         :: -> dispersion             -0.159060537265 Eh    ::
         :: repulsion energy           3.114022719010 Eh    ::
         :: add. restraining           0.000000000000 Eh    ::
         :::::::::::::::::::::::::::::::::::::::::::::::::::::

      ----------------------------------------------------------- 
     |                   =====================                   |
     |                        A N C O P T                        |
     |                   =====================                   |
     |               Approximate Normal Coordinate               |
     |                Rational Function Optimizer                |
      ----------------------------------------------------------- 

          ...................................................
          :                      SETUP                      :
          :.................................................:
          :   optimization level            normal          :
          :   max. optcycles                   339          :
          :   ANC micro-cycles                  20          :
          :   degrees of freedom               333          :
          :.................................................:
          :   RF solver                   davidson          :
          :   input Hessian                  false          :
          :   write xtbopt.log                true          :
          :   linear?                        false          :
          :   energy convergence         0.5000000E-05 Eh   :
          :   grad. convergence          0.1000000E-02 Eh/α :
          :   maximium RF displ.         2.0000000          :
          :   Hlow (freq-cutoff)         0.5000000E-02      :
          :   Hmax (freq-cutoff)         5.0000000          :
          :   S6 in model hess.         20.0000000          :
          ...................................................

generating ANC from model Hessian ...
Using Lindh-Hessian (1995)
 Shifting diagonal of input Hessian by   4.987775684446531E-003
 Lowest  eigenvalues of input Hessian
   -0.000000   -0.000000    0.000000    0.000000    0.000000    0.000000
    0.005000    0.005013    0.005023    0.005040    0.005078    0.005092
    0.005113    0.005165    0.005221    0.005296    0.005343    0.005509
 Highest eigenvalues
    2.171477    2.253926    2.509665    2.544098    2.552848    2.574168
 

........................................................................
.............................. CYCLE    1 ..............................
........................................................................
   1   -194.5453416 -0.194545E+03  0.207E-04    0.12       0.0  T
   2   -194.5453405  0.119378E-05  0.195E-03    0.12       4.8  T
   3   -194.5453417 -0.120477E-05  0.699E-05    0.12     134.6  T
   4   -194.5453417 -0.144948E-08  0.218E-05    0.12     432.1  T
   5   -194.5453417 -0.119627E-09  0.569E-06    0.12    1652.4  T
     SCC iter.                  ...        0 min,  0.059 sec
     gradient                   ...        0 min,  0.018 sec
 * total energy  :  -191.4317149 Eh     change        0.2055012E-06 Eh
   gradient norm :     0.1835718 Eh/α   predicted     0.0000000E+00 (-100.00%)
   displ. norm   :     0.4353023 α      lambda       -0.3738674E-01
   maximum displ.:     0.1189308 α      in ANC's #113, #82, #38, ...

........................................................................
.............................. CYCLE    2 ..............................
........................................................................
   1   -194.6699892 -0.194670E+03  0.221E-01    0.17       0.0  T
   2   -194.1955035  0.474486E+00  0.123E+00    0.22       1.0  T
   3   -194.6678139 -0.472310E+00  0.170E-01    0.24       1.0  T
   4   -194.6692751 -0.146123E-02  0.151E-01    0.17       1.0  T
   5   -194.6710250 -0.174983E-02  0.850E-02    0.17       1.0  T
   6   -194.6728762 -0.185123E-02  0.366E-02    0.13       1.0  T
   7   -194.6730441 -0.167960E-03  0.206E-02    0.13       1.0  T
   8   -194.6731604 -0.116275E-03  0.717E-03    0.12       1.3  T
   9   -194.6731611 -0.639405E-06  0.595E-03    0.12       1.6  T
  10   -194.6731712 -0.101051E-04  0.169E-03    0.12       5.6  T
  11   -194.6731713 -0.179613E-06  0.115E-03    0.12       8.2  T
     SCC iter.                  ...        0 min,  0.123 sec
     gradient                   ...        0 min,  0.017 sec
 * total energy  :  -191.4582302 Eh     change       -0.2651530E-01 Eh
   gradient norm :     0.0844440 Eh/α   predicted    -0.2223578E-01 ( -16.14%)
   displ. norm   :     0.4842062 α      lambda       -0.1599182E-01
   maximum displ.:     0.1294373 α      in ANC's #38, #44, #57, ...

........................................................................
.............................. CYCLE    3 ..............................
........................................................................
   1   -194.7233451 -0.194723E+03  0.203E-01    0.17       0.0  T
   2   -194.2581928  0.465152E+00  0.121E+00    0.20       1.0  T
   3   -194.7201384 -0.461946E+00  0.174E-01    0.25       1.0  T
   4   -194.7217617 -0.162334E-02  0.160E-01    0.18       1.0  T
   5   -194.7240286 -0.226685E-02  0.842E-02    0.17       1.0  T
   6   -194.7258924 -0.186383E-02  0.354E-02    0.13       1.0  T
   7   -194.7260752 -0.182794E-03  0.186E-02    0.13       1.0  T
   8   -194.7261736 -0.983750E-04  0.651E-03    0.12       1.4  T
   9   -194.7261625  0.110934E-04  0.761E-03    0.12       1.2  T
  10   -194.7261792 -0.167044E-04  0.240E-03    0.12       3.9  T
  11   -194.7261805 -0.131022E-05  0.634E-04    0.12      14.8  T
  12   -194.7261804  0.983921E-07  0.740E-04    0.12      12.7  T
     SCC iter.                  ...        0 min,  0.134 sec
     gradient                   ...        0 min,  0.017 sec
 * total energy  :  -191.4685677 Eh     change       -0.1033750E-01 Eh
   gradient norm :     0.0260158 Eh/α   predicted    -0.9870600E-02 (  -4.52%)
   displ. norm   :     0.5336352 α      lambda       -0.5276099E-02
   maximum displ.:     0.1915495 α      in ANC's #38, #26, #44, ...

........................................................................
.............................. CYCLE    4 ..............................
........................................................................
   1   -194.7390889 -0.194739E+03  0.156E-01    0.13       0.0  T
   2   -194.6675769  0.715120E-01  0.481E-01    0.01       1.0  T
   3   -194.7344054 -0.668285E-01  0.149E-01    0.25       1.0  T
   4   -194.7349001 -0.494672E-03  0.151E-01    0.19       1.0  T
   5   -194.7363220 -0.142188E-02  0.102E-01    0.20       1.0  T
   6   -194.7375033 -0.118130E-02  0.810E-02    0.17       1.0  T
   7   -194.7387685 -0.126527E-02  0.463E-02    0.14       1.0  T
   8   -194.7394496 -0.681076E-03  0.879E-03    0.12       1.1  T
   9   -194.7394194  0.301918E-04  0.130E-02    0.11       1.0  T
  10   -194.7394720 -0.526133E-04  0.144E-03    0.12       6.5  T
  11   -194.7394710  0.102796E-05  0.222E-03    0.12       4.2  T
  12   -194.7394721 -0.106128E-05  0.118E-03    0.12       8.0  T
     SCC iter.                  ...        0 min,  0.135 sec
     gradient                   ...        0 min,  0.021 sec
 * total energy  :  -191.4726723 Eh     change       -0.4104610E-02 Eh
   gradient norm :     0.0178298 Eh/α   predicted    -0.3389333E-02 ( -17.43%)
   displ. norm   :     0.6407055 α      lambda       -0.4150310E-02
   maximum displ.:     0.2317694 α      in ANC's #38, #26, #35, ...

........................................................................
.............................. CYCLE    5 ..............................
........................................................................
   1   -194.7390717 -0.194739E+03  0.202E-01    0.12       0.0  T
   2   -194.7365411  0.253057E-02  0.146E-01    0.09       1.0  T
   3   -194.7302876  0.625354E-02  0.207E-01    0.48       1.0  T
   4   -194.7341278 -0.384017E-02  0.138E-01    0.29       1.0  T
   5   -194.7357641 -0.163629E-02  0.113E-01    0.20       1.0  T
   6   -194.7387275 -0.296342E-02  0.385E-02    0.14       1.0  T
   7   -194.7357410  0.298650E-02  0.103E-01    0.08       1.0  T
   8   -194.7388982 -0.315721E-02  0.319E-02    0.13       1.0  T
   9   -194.7391252 -0.227044E-03  0.154E-02    0.13       1.0  T
  10   -194.7391838 -0.585240E-04  0.797E-03    0.12       1.2  T
  11   -194.7392031 -0.193746E-04  0.100E-03    0.12       9.4  T
  12   -194.7392032 -0.820776E-07  0.748E-04    0.12      12.6  T
  13   -194.7392033 -0.806597E-07  0.541E-04    0.12      17.4  T
     SCC iter.                  ...        0 min,  0.146 sec
     gradient                   ...        0 min,  0.017 sec
 * total energy  :  -191.4754429 Eh     change       -0.2770561E-02 Eh
   gradient norm :     0.0218661 Eh/α   predicted    -0.2927016E-02 (   5.65%)
   displ. norm   :     0.6927915 α      lambda       -0.4338461E-02
   maximum displ.:     0.2574491 α      in ANC's #38, #26, #35, ...

........................................................................
.............................. CYCLE    6 ..............................
........................................................................
   1   -194.7393905 -0.194739E+03  0.254E-01    0.12       0.0  T
   2   -194.7393517  0.387941E-04  0.142E-01    0.13       1.0  T
   3   -194.4763972  0.262955E+00  0.888E-01    0.06       1.0  T
   4   -194.7386980 -0.262301E+00  0.619E-02    0.10       1.0  T
   5   -194.7392178 -0.519737E-03  0.375E-02    0.11       1.0  T
   6   -194.7393696 -0.151816E-03  0.246E-02    0.11       1.0  T
   7   -194.7395278 -0.158191E-03  0.676E-03    0.12       1.4  T
   8   -194.7395210  0.679090E-05  0.653E-03    0.12       1.4  T
   9   -194.7395338 -0.128330E-04  0.217E-03    0.12       4.3  T
  10   -194.7395347 -0.908804E-06  0.896E-04    0.12      10.5  T
  11   -194.7395349 -0.151948E-06  0.311E-04    0.12      30.2  T
     SCC iter.                  ...        0 min,  0.124 sec
     gradient                   ...        0 min,  0.017 sec
 * total energy  :  -191.4767583 Eh     change       -0.1315425E-02 Eh
   gradient norm :     0.0294621 Eh/α   predicted    -0.3210379E-02 ( 144.06%)
   displ. norm   :     0.3183709 α      lambda       -0.2633815E-02
   maximum displ.:     0.1039875 α      in ANC's #20, #7, #12, ...

........................................................................
.............................. CYCLE    7 ..............................
........................................................................
   1   -194.7531220 -0.194753E+03  0.152E-01    0.12       0.0  T
   2   -194.7459735  0.714842E-02  0.171E-01    0.07       1.0  T
   3   -194.7467771 -0.803604E-03  0.166E-01    0.35       1.0  T
   4   -194.7479449 -0.116776E-02  0.141E-01    0.30       1.0  T
   5   -194.7485451 -0.600151E-03  0.129E-01    0.25       1.0  T
   6   -194.7495137 -0.968651E-03  0.110E-01    0.22       1.0  T
   7   -194.7521457 -0.263200E-02  0.589E-02    0.15       1.0  T
   8   -194.7531506 -0.100491E-02  0.141E-02    0.11       1.0  T
   9   -194.7531887 -0.380374E-04  0.855E-03    0.12       1.1  T
  10   -194.7532109 -0.222754E-04  0.780E-04    0.12      12.1  T
  11   -194.7532092  0.177669E-05  0.240E-03    0.12       3.9  T
  12   -194.7532110 -0.182847E-05  0.221E-04    0.12      42.6  T
     SCC iter.                  ...        0 min,  0.135 sec
     gradient                   ...        0 min,  0.017 sec
 * total energy  :  -191.4784898 Eh     change       -0.1731515E-02 Eh
   gradient norm :     0.0211976 Eh/α   predicted    -0.1450394E-02 ( -16.24%)
   displ. norm   :     0.4585690 α      lambda       -0.1890621E-02
   maximum displ.:     0.1480082 α      in ANC's #12, #20, #13, ...

........................................................................
.............................. CYCLE    8 ..............................
........................................................................
   1   -194.7471705 -0.194747E+03  0.185E-01    0.12       0.0  T
   2   -194.7471841 -0.135647E-04  0.102E-01    0.12       1.0  T
   3   -194.7438548  0.332926E-02  0.111E-01    0.19       1.0  T
   4   -194.7375852  0.626958E-02  0.173E-01    0.07       1.0  T
   5   -194.7464898 -0.890462E-02  0.532E-02    0.14       1.0  T
   6   -194.7468907 -0.400830E-03  0.338E-02    0.14       1.0  T
   7   -194.7472458 -0.355143E-03  0.603E-03    0.12       1.6  T
   8   -194.7472535 -0.772615E-05  0.127E-03    0.12       7.4  T
   9   -194.7472519  0.164571E-05  0.242E-03    0.12       3.9  T
  10   -194.7472535 -0.159663E-05  0.795E-04    0.12      11.8  T
     SCC iter.                  ...        0 min,  0.114 sec
     gradient                   ...        0 min,  0.017 sec
 * total energy  :  -191.4794275 Eh     change       -0.9376522E-03 Eh
   gradient norm :     0.0337784 Eh/α   predicted    -0.1144100E-02 (  22.02%)
   displ. norm   :     0.5352023 α      lambda       -0.2297368E-02
   maximum displ.:     0.1728270 α      in ANC's #12, #20, #37, ...

........................................................................
.............................. CYCLE    9 ..............................
........................................................................
   1   -194.7599274 -0.194760E+03  0.215E-01    0.12       0.0  T
   2   -194.7595445  0.382909E-03  0.124E-01    0.10       1.0  T
   3   -194.7526910  0.685353E-02  0.166E-01    0.43       1.0  T
   4   -194.7569031 -0.421210E-02  0.104E-01    0.20       1.0  T
   5   -194.7592468 -0.234372E-02  0.514E-02    0.15       1.0  T
   6   -194.7597988 -0.551964E-03  0.276E-02    0.11       1.0  T
   7   -194.7600190 -0.220193E-03  0.761E-03    0.12       1.2  T
   8   -194.7600276 -0.867130E-05  0.218E-03    0.12       4.3  T
   9   -194.7600281 -0.440348E-06  0.923E-04    0.12      10.2  T
  10   -194.7600280  0.901366E-07  0.836E-04    0.12      11.3  T
     SCC iter.                  ...        0 min,  0.113 sec
     gradient                   ...        0 min,  0.017 sec
 * total energy  :  -191.4801337 Eh     change       -0.7062361E-03 Eh
   gradient norm :     0.0476356 Eh/α   predicted    -0.1477717E-02 ( 109.24%)
   displ. norm   :     0.3690525 α      lambda       -0.2530739E-02
   maximum displ.:     0.1254648 α      in ANC's #37, #12, #20, ...

........................................................................
.............................. CYCLE   10 ..............................
........................................................................
   1   -194.7743068 -0.194774E+03  0.152E-01    0.13       0.0  T
   2   -194.7642964  0.100104E-01  0.196E-01    0.07       1.0  T
   3   -194.7685055 -0.420908E-02  0.161E-01    0.32       1.0  T
   4   -194.7694987 -0.993192E-03  0.136E-01    0.28       1.0  T
   5   -194.7699857 -0.487067E-03  0.126E-01    0.25       1.0  T
   6   -194.7709973 -0.101155E-02  0.106E-01    0.21       1.0  T
   7   -194.7732619 -0.226460E-02  0.612E-02    0.16       1.0  T
   8   -194.7743416 -0.107966E-02  0.148E-02    0.11       1.0  T
   9   -194.7743989 -0.573294E-04  0.614E-03    0.12       1.5  T
  10   -194.7744039 -0.500779E-05  0.433E-03    0.12       2.2  T
  11   -194.7744097 -0.584940E-05  0.385E-04    0.12      24.5  T
     SCC iter.                  ...        0 min,  0.124 sec
     gradient                   ...        0 min,  0.017 sec
 * total energy  :  -191.4812878 Eh     change       -0.1154141E-02 Eh
   gradient norm :     0.0319328 Eh/α   predicted    -0.1437715E-02 (  24.57%)
   displ. norm   :     0.4526376 α      lambda       -0.1394972E-02
   maximum displ.:     0.1619055 α      in ANC's #12, #20, #38, ...

........................................................................
.............................. CYCLE   11 ..............................
........................................................................
   1   -194.7607960 -0.194761E+03  0.149E-01    0.12       0.0  T
   2   -194.7608090 -0.130025E-04  0.831E-02    0.12       1.0  T
   3   -194.7602845  0.524484E-03  0.566E-02    0.11       1.0  T
   4   -194.7600372  0.247302E-03  0.499E-02    0.15       1.0  T
   5   -194.7604516 -0.414381E-03  0.367E-02    0.11       1.0  T
   6   -194.7608306 -0.379086E-03  0.876E-03    0.12       1.1  T
   7   -194.7608337 -0.304782E-05  0.518E-03    0.12       1.8  T
   8   -194.7608415 -0.785185E-05  0.116E-03    0.12       8.1  T
   9   -194.7608416 -0.486449E-07  0.769E-04    0.12      12.2  T
     SCC iter.                  ...        0 min,  0.102 sec
     gradient                   ...        0 min,  0.017 sec
 * total energy  :  -191.4822680 Eh     change       -0.9801417E-03 Eh
   gradient norm :     0.0245205 Eh/α   predicted    -0.8403909E-03 ( -14.26%)
   displ. norm   :     0.6004090 α      lambda       -0.1780014E-02
   maximum displ.:     0.2168032 α      in ANC's #12, #20, #16, ...

........................................................................
.............................. CYCLE   12 ..............................
........................................................................
   1   -194.7538260 -0.194754E+03  0.187E-01    0.12       0.0  T
   2   -194.7494355  0.439050E-02  0.157E-01    0.08       1.0  T
   3   -194.7461287  0.330687E-02  0.188E-01    0.47       1.0  T
   4   -194.7484530 -0.232437E-02  0.147E-01    0.34       1.0  T
   5   -194.7489747 -0.521674E-03  0.135E-01    0.27       1.0  T
   6   -194.7503029 -0.132819E-02  0.109E-01    0.21       1.0  T
   7   -194.7539081 -0.360517E-02  0.109E-02    0.12       1.0  T
   8   -194.7539198 -0.117667E-04  0.593E-03    0.12       1.6  T
   9   -194.7536844  0.235432E-03  0.273E-02    0.11       1.0  T
  10   -194.7538776 -0.193158E-03  0.121E-02    0.13       1.0  T
  11   -194.7539183 -0.407104E-04  0.427E-03    0.12       2.2  T
  12   -194.7539234 -0.515936E-05  0.127E-03    0.12       7.4  T
  13   -194.7539237 -0.253683E-06  0.875E-04    0.12      10.8  T
     SCC iter.                  ...        0 min,  0.146 sec
     gradient                   ...        0 min,  0.017 sec
 * total energy  :  -191.4832115 Eh     change       -0.9435450E-03 Eh
   gradient norm :     0.0304471 Eh/α   predicted    -0.1210852E-02 (  28.33%)
   displ. norm   :     0.5355038 α      lambda       -0.1384847E-02
   maximum displ.:     0.1984802 α      in ANC's #12, #20, #16, ...

........................................................................
.............................. CYCLE   13 ..............................
........................................................................
   1   -194.7531323 -0.194753E+03  0.162E-01    0.11       0.0  T
   2   -194.7518660  0.126632E-02  0.108E-01    0.16       1.0  T
   3   -194.2920304  0.459836E+00  0.118E+00    0.19       1.0  T
   4   -194.7517079 -0.459677E+00  0.715E-02    0.16       1.0  T
   5   -194.7522051 -0.497235E-03  0.587E-02    0.15       1.0  T
   6   -194.7525427 -0.337631E-03  0.449E-02    0.14       1.0  T
   7   -194.7530367 -0.494002E-03  0.232E-02    0.13       1.0  T
   8   -194.7531798 -0.143102E-03  0.884E-03    0.12       1.1  T
   9   -194.7532023 -0.224422E-04  0.279E-03    0.12       3.4  T
  10   -194.7532045 -0.224642E-05  0.708E-04    0.12      13.3  T
  11   -194.7532045 -0.368817E-07  0.360E-04    0.12      26.1  T
     SCC iter.                  ...        0 min,  0.124 sec
     gradient                   ...        0 min,  0.017 sec
 * total energy  :  -191.4841733 Eh     change       -0.9617893E-03 Eh
   gradient norm :     0.0269616 Eh/α   predicted    -0.8909872E-03 (  -7.36%)
   displ. norm   :     0.6071776 α      lambda       -0.1697123E-02
   maximum displ.:     0.2237433 α      in ANC's #12, #20, #16, ...

........................................................................
.............................. CYCLE   14 ..............................
........................................................................
   1   -194.7612718 -0.194761E+03  0.193E-01    0.12       0.0  T
   2   -194.7607291  0.542692E-03  0.115E-01    0.10       1.0  T
   3   -194.7535499  0.717928E-02  0.176E-01    0.43       1.0  T
   4   -194.7578858 -0.433595E-02  0.107E-01    0.21       1.0  T
   5   -194.7602404 -0.235463E-02  0.615E-02    0.15       1.0  T
   6   -194.7609167 -0.676314E-03  0.400E-02    0.10       1.0  T
   7   -194.7613432 -0.426414E-03  0.760E-03    0.12       1.2  T
   8   -194.7613379  0.522810E-05  0.697E-03    0.12       1.3  T
   9   -194.7613486 -0.106250E-04  0.320E-03    0.12       2.9  T
  10   -194.7613506 -0.201570E-05  0.185E-03    0.12       5.1  T
  11   -194.7613501  0.506810E-06  0.222E-03    0.12       4.2  T
     SCC iter.                  ...        0 min,  0.124 sec
     gradient                   ...        0 min,  0.017 sec
 * total energy  :  -191.4850327 Eh     change       -0.8594243E-03 Eh
   gradient norm :     0.0239640 Eh/α   predicted    -0.1161395E-02 (  35.14%)
   displ. norm   :     0.5607722 α      lambda       -0.1259422E-02
   maximum displ.:     0.2089546 α      in ANC's #12, #20, #23, ...

........................................................................
.............................. CYCLE   15 ..............................
........................................................................
   1   -194.7589153 -0.194759E+03  0.159E-01    0.12       0.0  T
   2   -194.7586426  0.272684E-03  0.922E-02    0.13       1.0  T
   3   -194.3765302  0.382112E+00  0.106E+00    0.12       1.0  T
   4   -194.7586388 -0.382109E+00  0.396E-02    0.13       1.0  T
   5   -194.7588773 -0.238420E-03  0.231E-02    0.12       1.0  T
   6   -194.7588307  0.465226E-04  0.206E-02    0.13       1.0  T
   7   -194.7589363 -0.105529E-03  0.100E-02    0.12       1.0  T
   8   -194.7589563 -0.200753E-04  0.547E-03    0.12       1.7  T
   9   -194.7589635 -0.713896E-05  0.280E-03    0.12       3.4  T
  10   -194.7589653 -0.185726E-05  0.139E-03    0.12       6.8  T
  11   -194.7589660 -0.622855E-06  0.159E-04    0.12      59.1  T
     SCC iter.                  ...        0 min,  0.124 sec
     gradient                   ...        0 min,  0.017 sec
 * total energy  :  -191.4859094 Eh     change       -0.8767096E-03 Eh
   gradient norm :     0.0161743 Eh/α   predicted    -0.8277395E-03 (  -5.59%)
   displ. norm   :     0.5682660 α      lambda       -0.1331702E-02
   maximum displ.:     0.2146652 α      in ANC's #12, #23, #5, ...

........................................................................
.............................. CYCLE   16 ..............................
........................................................................
   1   -194.7681096 -0.194768E+03  0.169E-01    0.11       0.0  T
   2   -194.7667725  0.133713E-02  0.110E-01    0.16       1.0  T
   3   -194.3108022  0.455970E+00  0.116E+00    0.21       1.0  T
   4   -194.7672546 -0.456452E+00  0.587E-02    0.15       1.0  T
   5   -194.7677192 -0.464626E-03  0.402E-02    0.14       1.0  T
   6   -194.7679582 -0.239009E-03  0.265E-02    0.13       1.0  T
   7   -194.7681788 -0.220570E-03  0.826E-03    0.12       1.1  T
   8   -194.7681917 -0.129543E-04  0.364E-03    0.12       2.6  T
   9   -194.7681948 -0.310918E-05  0.173E-03    0.12       5.4  T
  10   -194.7681952 -0.396137E-06  0.110E-03    0.12       8.5  T
  11   -194.7681955 -0.274833E-06  0.393E-04    0.12      24.0  T
     SCC iter.                  ...        0 min,  0.127 sec
     gradient                   ...        0 min,  0.019 sec
 * total energy  :  -191.4867003 Eh     change       -0.7908046E-03 Eh
   gradient norm :     0.0187984 Eh/α   predicted    -0.8808732E-03 (  11.39%)
   displ. norm   :     0.6716137 α      lambda       -0.1103280E-02
   maximum displ.:     0.2662899 α      in ANC's #12, #20, #23, ...

........................................................................
.............................. CYCLE   17 ..............................
........................................................................
   1   -194.7561181 -0.194756E+03  0.181E-01    0.11       0.0  T
   2   -194.7526528  0.346528E-02  0.141E-01    0.20       1.0  T
   3   -194.3104956  0.442157E+00  0.114E+00    0.19       1.0  T
   4   -194.7526281 -0.442133E+00  0.111E-01    0.20       1.0  T
   5   -194.7532403 -0.612232E-03  0.989E-02    0.19       1.0  T
   6   -194.7541827 -0.942354E-03  0.800E-02    0.17       1.0  T
   7   -194.7554149 -0.123217E-02  0.527E-02    0.15       1.0  T
   8   -194.7560183 -0.603443E-03  0.294E-02    0.13       1.0  T
   9   -194.7562670 -0.248654E-03  0.117E-02    0.12       1.0  T
  10   -194.7563098 -0.428491E-04  0.214E-03    0.12       4.4  T
  11   -194.7563104 -0.573278E-06  0.130E-03    0.12       7.2  T
  12   -194.7563109 -0.528821E-06  0.244E-04    0.12      38.5  T
     SCC iter.                  ...        0 min,  0.134 sec
     gradient                   ...        0 min,  0.017 sec
 * total energy  :  -191.4875303 Eh     change       -0.8300518E-03 Eh
   gradient norm :     0.0165254 Eh/α   predicted    -0.8004652E-03 (  -3.56%)
   displ. norm   :     0.5929160 α      lambda       -0.1766484E-02
   maximum displ.:     0.1888886 α      in ANC's #12, #5, #23, ...

........................................................................
.............................. CYCLE   18 ..............................
........................................................................
   1   -194.7647148 -0.194765E+03  0.184E-01    0.11       0.0  T
   2   -194.7622183  0.249655E-02  0.132E-01    0.17       1.0  T
   3   -194.3106715  0.451547E+00  0.114E+00    0.22       1.0  T
   4   -194.7618661 -0.451195E+00  0.112E-01    0.17       1.0  T
   5   -194.7636518 -0.178563E-02  0.660E-02    0.15       1.0  T
   6   -194.7637737 -0.121895E-03  0.567E-02    0.15       1.0  T
   7   -194.7645544 -0.780745E-03  0.314E-02    0.13       1.0  T
   8   -194.7648418 -0.287386E-03  0.106E-02    0.12       1.0  T
   9   -194.7648751 -0.332599E-04  0.262E-03    0.12       3.6  T
  10   -194.7648766 -0.157839E-05  0.833E-04    0.12      11.3  T
  11   -194.7648766  0.141975E-07  0.536E-04    0.12      17.6  T
     SCC iter.                  ...        0 min,  0.124 sec
     gradient                   ...        0 min,  0.017 sec
 * total energy  :  -191.4879530 Eh     change       -0.4227105E-03 Eh
   gradient norm :     0.0349465 Eh/α   predicted    -0.1193739E-02 ( 182.40%)
   displ. norm   :     0.4170035 α      lambda       -0.1829381E-02
   maximum displ.:     0.1725418 α      in ANC's #12, #20, #23, ...

........................................................................
.............................. CYCLE   19 ..............................
........................................................................
   1   -194.7631528 -0.194763E+03  0.125E-01    0.10       0.0  T
   2   -194.7583733  0.477947E-02  0.138E-01    0.24       1.0  T
   3   -194.6111159  0.147257E+00  0.657E-01    0.03       1.0  T
   4   -194.7580036 -0.146888E+00  0.144E-01    0.24       1.0  T
   5   -194.7585505 -0.546915E-03  0.124E-01    0.25       1.0  T
   6   -194.7591086 -0.558113E-03  0.117E-01    0.22       1.0  T
   7   -194.7600094 -0.900748E-03  0.102E-01    0.20       1.0  T
   8   -194.7615349 -0.152550E-02  0.760E-02    0.16       1.0  T
   9   -194.7626485 -0.111363E-02  0.496E-02    0.14       1.0  T
  10   -194.7634842 -0.835708E-03  0.375E-03    0.11       2.5  T
  11   -194.7634842 -0.507015E-08  0.326E-03    0.11       2.9  T
  12   -194.7634868 -0.261735E-05  0.197E-03    0.11       4.8  T
     SCC iter.                  ...        0 min,  0.136 sec
     gradient                   ...        0 min,  0.017 sec
 * total energy  :  -191.4888931 Eh     change       -0.9400378E-03 Eh
   gradient norm :     0.0218885 Eh/α   predicted    -0.1073748E-02 (  14.22%)
   displ. norm   :     0.4833171 α      lambda       -0.1626905E-02
   maximum displ.:     0.1847773 α      in ANC's #12, #20, #5, ...

........................................................................
.............................. CYCLE   20 ..............................
........................................................................
   1   -194.7599017 -0.194760E+03  0.143E-01    0.10       0.0  T
   2   -194.7548332  0.506848E-02  0.148E-01    0.24       1.0  T
   3   -194.5347492  0.220084E+00  0.797E-01    0.05       1.0  T
   4   -194.7541889 -0.219440E+00  0.144E-01    0.27       1.0  T
   5   -194.7547350 -0.546108E-03  0.137E-01    0.26       1.0  T
   6   -194.7551352 -0.400234E-03  0.126E-01    0.24       1.0  T
   7   -194.7561089 -0.973689E-03  0.113E-01    0.21       1.0  T
   8   -194.7575193 -0.141043E-02  0.904E-02    0.18       1.0  T
   9   -194.7587772 -0.125787E-02  0.663E-02    0.15       1.0  T
  10   -194.7602516 -0.147442E-02  0.863E-03    0.11       1.1  T
  11   -194.7602694 -0.178432E-04  0.493E-03    0.11       1.9  T
  12   -194.7602773 -0.782860E-05  0.941E-04    0.11      10.0  T
  13   -194.7602765  0.773247E-06  0.169E-03    0.11       5.6  T
  14   -194.7602773 -0.759688E-06  0.828E-04    0.11      11.4  T
     SCC iter.                  ...        0 min,  0.158 sec
     gradient                   ...        0 min,  0.017 sec
 * total energy  :  -191.4891721 Eh     change       -0.2790240E-03 Eh
   gradient norm :     0.0268763 Eh/α   predicted    -0.1003469E-02 ( 259.64%)
   displ. norm   :     0.3342292 α      lambda       -0.1467652E-02
   maximum displ.:     0.1070530 α      in ANC's #5, #12, #17, ...
 * RMSD in coord.:     0.7509395 α      energy gain  -0.5745697E-01 Eh

generating ANC from model Hessian ...
Using Lindh-Hessian (1995)
 Shifting diagonal of input Hessian by   5.014389598929909E-003
 Lowest  eigenvalues of input Hessian
    0.005000   -0.000000   -0.000000   -0.000000   -0.000000    0.000000
    0.000000    0.005027    0.005043    0.005068    0.005088    0.005130
    0.005162    0.005221    0.005322    0.005388    0.005522    0.005537
 Highest eigenvalues
    2.214066    2.282030    2.607202    2.616765    2.642658    2.647694
 

........................................................................
.............................. CYCLE   21 ..............................
........................................................................
   1   -194.7618950 -0.194762E+03  0.994E-02    0.10       0.0  T
   2   -194.7576560  0.423897E-02  0.123E-01    0.21       1.0  T
   3   -194.6817670  0.758890E-01  0.476E-01    0.01       1.0  T
   4   -194.7583197 -0.765527E-01  0.113E-01    0.20       1.0  T
   5   -194.7585352 -0.215527E-03  0.103E-01    0.19       1.0  T
   6   -194.7596065 -0.107130E-02  0.862E-02    0.17       1.0  T
   7   -194.7608358 -0.122930E-02  0.600E-02    0.15       1.0  T
   8   -194.7617610 -0.925164E-03  0.312E-02    0.13       1.0  T
   9   -194.7620876 -0.326655E-03  0.379E-03    0.12       2.5  T
  10   -194.7620890 -0.136583E-05  0.298E-03    0.11       3.2  T
  11   -194.7620918 -0.284689E-05  0.588E-04    0.11      16.0  T
  12   -194.7620919 -0.656525E-07  0.388E-04    0.11      24.2  T
  13   -194.7620919 -0.845239E-08  0.347E-04    0.11      27.1  T
     SCC iter.                  ...        0 min,  0.148 sec
     gradient                   ...        0 min,  0.018 sec
 * total energy  :  -191.4901589 Eh     change       -0.9868740E-03 Eh
   gradient norm :     0.0108403 Eh/α   predicted     0.0000000E+00 (-100.00%)
   displ. norm   :     0.2352183 α      lambda       -0.7061391E-03
   maximum displ.:     0.0990870 α      in ANC's #11, #20, #19, ...

........................................................................
.............................. CYCLE   22 ..............................
........................................................................
   1   -194.7661234 -0.194766E+03  0.775E-02    0.11       0.0  T
   2   -194.7626137  0.350973E-02  0.109E-01    0.19       1.0  T
   3   -194.7357472  0.268665E-01  0.294E-01    0.04       1.0  T
   4   -194.7633649 -0.276177E-01  0.960E-02    0.18       1.0  T
   5   -194.7637821 -0.417292E-03  0.852E-02    0.17       1.0  T
   6   -194.7649119 -0.112974E-02  0.624E-02    0.15       1.0  T
   7   -194.7659845 -0.107261E-02  0.272E-02    0.13       1.0  T
   8   -194.7662337 -0.249214E-03  0.544E-03    0.12       1.7  T
   9   -194.7662420 -0.827077E-05  0.111E-03    0.11       8.5  T
  10   -194.7662420 -0.689977E-08  0.671E-04    0.11      14.0  T
  11   -194.7662421 -0.129443E-06  0.191E-04    0.11      49.3  T
     SCC iter.                  ...        0 min,  0.124 sec
     gradient                   ...        0 min,  0.017 sec
 * total energy  :  -191.4906843 Eh     change       -0.5253670E-03 Eh
   gradient norm :     0.0060826 Eh/α   predicted    -0.3726041E-03 ( -29.08%)
   displ. norm   :     0.3481103 α      lambda       -0.8755815E-03
   maximum displ.:     0.1194620 α      in ANC's #20, #11, #12, ...

........................................................................
.............................. CYCLE   23 ..............................
........................................................................
   1   -194.7704530 -0.194770E+03  0.126E-01    0.10       0.0  T
   2   -194.7647003  0.575279E-02  0.151E-01    0.26       1.0  T
   3   -194.6803045  0.843957E-01  0.504E-01    0.01       1.0  T
   4   -194.7648792 -0.845747E-01  0.144E-01    0.28       1.0  T
   5   -194.7650229 -0.143694E-03  0.136E-01    0.26       1.0  T
   6   -194.7657489 -0.725946E-03  0.125E-01    0.23       1.0  T
   7   -194.7670101 -0.126125E-02  0.108E-01    0.20       1.0  T
   8   -194.7683098 -0.129965E-02  0.867E-02    0.17       1.0  T
   9   -194.7697346 -0.142481E-02  0.576E-02    0.14       1.0  T
  10   -194.7708306 -0.109604E-02  0.111E-02    0.11       1.0  T
  11   -194.7708665 -0.359061E-04  0.464E-03    0.11       2.0  T
  12   -194.7708712 -0.467419E-05  0.274E-03    0.11       3.4  T
  13   -194.7708737 -0.253316E-05  0.616E-04    0.11      15.3  T
  14   -194.7708737  0.802035E-07  0.771E-04    0.11      12.2  T
     SCC iter.                  ...        0 min,  0.158 sec
     gradient                   ...        0 min,  0.017 sec
 * total energy  :  -191.4910954 Eh     change       -0.4111061E-03 Eh
   gradient norm :     0.0123636 Eh/α   predicted    -0.4908513E-03 (  19.40%)
   displ. norm   :     0.4537164 α      lambda       -0.1086088E-02
   maximum displ.:     0.1867761 α      in ANC's #20, #11, #38, ...

........................................................................
.............................. CYCLE   24 ..............................
........................................................................
   1   -194.7720706 -0.194772E+03  0.156E-01    0.10       0.0  T
   2   -194.7656927  0.637790E-02  0.167E-01    0.29       1.0  T
   3   -194.6006507  0.165042E+00  0.692E-01    0.03       1.0  T
   4   -194.7658181 -0.165167E+00  0.158E-01    0.33       1.0  T
   5   -194.7659197 -0.101623E-03  0.151E-01    0.32       1.0  T
   6   -194.7662766 -0.356901E-03  0.142E-01    0.29       1.0  T
   7   -194.7668528 -0.576204E-03  0.135E-01    0.26       1.0  T
   8   -194.7679415 -0.108870E-02  0.120E-01    0.22       1.0  T
   9   -194.7688619 -0.920347E-03  0.107E-01    0.19       1.0  T
  10   -194.7726090 -0.374710E-02  0.154E-02    0.12       1.0  T
  11   -194.7726759 -0.668729E-04  0.621E-03    0.11       1.5  T
  12   -194.7726852 -0.930109E-05  0.330E-03    0.11       2.9  T
  13   -194.7726850  0.160539E-06  0.330E-03    0.11       2.8  T
  14   -194.7726845  0.485542E-06  0.352E-03    0.11       2.7  T
  15   -194.7726871 -0.261474E-05  0.221E-03    0.11       4.3  T
  16   -194.7726888 -0.166381E-05  0.328E-04    0.11      28.7  T
     SCC iter.                  ...        0 min,  0.179 sec
     gradient                   ...        0 min,  0.017 sec
 * total energy  :  -191.4915061 Eh     change       -0.4107020E-03 Eh
   gradient norm :     0.0177613 Eh/α   predicted    -0.6548351E-03 (  59.44%)
   displ. norm   :     0.3844101 α      lambda       -0.1350494E-02
   maximum displ.:     0.1560873 α      in ANC's #20, #11, #19, ...

........................................................................
.............................. CYCLE   25 ..............................
........................................................................
   1   -194.7669144 -0.194767E+03  0.150E-01    0.10       0.0  T
   2   -194.7608644  0.605000E-02  0.160E-01    0.25       1.0  T
   3   -194.5493344  0.211530E+00  0.777E-01    0.05       1.0  T
   4   -194.7606394 -0.211305E+00  0.152E-01    0.29       1.0  T
   5   -194.7609583 -0.318962E-03  0.145E-01    0.28       1.0  T
   6   -194.7613202 -0.361863E-03  0.135E-01    0.26       1.0  T
   7   -194.7620632 -0.742978E-03  0.127E-01    0.23       1.0  T
   8   -194.7633872 -0.132400E-02  0.108E-01    0.19       1.0  T
   9   -194.7645794 -0.119224E-02  0.898E-02    0.17       1.0  T
  10   -194.7673326 -0.275319E-02  0.783E-03    0.11       1.2  T
  11   -194.7673470 -0.144324E-04  0.398E-03    0.11       2.4  T
  12   -194.7673520 -0.497997E-05  0.808E-04    0.11      11.6  T
  13   -194.7673521 -0.970921E-07  0.433E-04    0.11      21.7  T
  14   -194.7673517  0.407592E-06  0.115E-03    0.11       8.2  T
     SCC iter.                  ...        0 min,  0.157 sec
     gradient                   ...        0 min,  0.017 sec
 * total energy  :  -191.4921076 Eh     change       -0.6014929E-03 Eh
   gradient norm :     0.0141537 Eh/α   predicted    -0.7750297E-03 (  28.85%)
   displ. norm   :     0.3824572 α      lambda       -0.1410054E-02
   maximum displ.:     0.1658649 α      in ANC's #20, #11, #19, ...

........................................................................
.............................. CYCLE   26 ..............................
........................................................................
   1   -194.7618351 -0.194762E+03  0.171E-01    0.10       0.0  T
   2   -194.7567873  0.504780E-02  0.155E-01    0.21       1.0  T
   3   -194.3690951  0.387692E+00  0.105E+00    0.14       1.0  T
   4   -194.7563093 -0.387214E+00  0.141E-01    0.23       1.0  T
   5   -194.7572788 -0.969492E-03  0.124E-01    0.21       1.0  T
   6   -194.7578003 -0.521478E-03  0.112E-01    0.20       1.0  T
   7   -194.7590371 -0.123682E-02  0.949E-02    0.17       1.0  T
   8   -194.7608292 -0.179207E-02  0.608E-02    0.14       1.0  T
   9   -194.7617948 -0.965572E-03  0.300E-02    0.12       1.0  T
  10   -194.7621090 -0.314228E-03  0.228E-03    0.11       4.1  T
  11   -194.7621090  0.219673E-07  0.204E-03    0.11       4.6  T
  12   -194.7621102 -0.126703E-05  0.403E-04    0.11      23.3  T
     SCC iter.                  ...        0 min,  0.135 sec
     gradient                   ...        0 min,  0.017 sec
 * total energy  :  -191.4923132 Eh     change       -0.2055507E-03 Eh
   gradient norm :     0.0247677 Eh/α   predicted    -0.8081552E-03 ( 293.17%)
   displ. norm   :     0.2923501 α      lambda       -0.1440211E-02
   maximum displ.:     0.1076431 α      in ANC's #20, #11, #19, ...

........................................................................
.............................. CYCLE   27 ..............................
........................................................................
   1   -194.7667603 -0.194767E+03  0.128E-01    0.11       0.0  T
   2   -194.7657727  0.987524E-03  0.885E-02    0.14       1.0  T
   3   -194.3723451  0.393428E+00  0.104E+00    0.15       1.0  T
   4   -194.7657553 -0.393410E+00  0.576E-02    0.14       1.0  T
   5   -194.7663165 -0.561209E-03  0.404E-02    0.13       1.0  T
   6   -194.7664733 -0.156812E-03  0.306E-02    0.13       1.0  T
   7   -194.7667309 -0.257570E-03  0.156E-02    0.12       1.0  T
   8   -194.7668031 -0.721504E-04  0.546E-03    0.11       1.7  T
   9   -194.7668132 -0.100940E-04  0.711E-04    0.11      13.2  T
  10   -194.7668131  0.115967E-07  0.550E-04    0.11      17.1  T
  11   -194.7668132 -0.676462E-07  0.144E-04    0.11      65.1  T
     SCC iter.                  ...        0 min,  0.130 sec
     gradient                   ...        0 min,  0.019 sec
 * total energy  :  -191.4930933 Eh     change       -0.7801793E-03 Eh
   gradient norm :     0.0131378 Eh/α   predicted    -0.7816524E-03 (   0.19%)
   displ. norm   :     0.4513602 α      lambda       -0.8324518E-03
   maximum displ.:     0.1863458 α      in ANC's #20, #11, #19, ...

........................................................................
.............................. CYCLE   28 ..............................
........................................................................
   1   -194.7672133 -0.194767E+03  0.133E-01    0.10       0.0  T
   2   -194.7633571  0.385618E-02  0.129E-01    0.18       1.0  T
   3   -194.4627128  0.300644E+00  0.917E-01    0.09       1.0  T
   4   -194.7630724 -0.300360E+00  0.118E-01    0.19       1.0  T
   5   -194.7637458 -0.673425E-03  0.106E-01    0.18       1.0  T
   6   -194.7642862 -0.540404E-03  0.934E-02    0.17       1.0  T
   7   -194.7655999 -0.131372E-02  0.713E-02    0.15       1.0  T
   8   -194.7667606 -0.116066E-02  0.413E-02    0.13       1.0  T
   9   -194.7672407 -0.480119E-03  0.184E-02    0.12       1.0  T
  10   -194.7673591 -0.118394E-03  0.103E-03    0.11       9.1  T
  11   -194.7673577  0.139220E-05  0.208E-03    0.11       4.5  T
  12   -194.7673591 -0.135509E-05  0.596E-04    0.11      15.8  T
     SCC iter.                  ...        0 min,  0.136 sec
     gradient                   ...        0 min,  0.017 sec
 * total energy  :  -191.4934039 Eh     change       -0.3105339E-03 Eh
   gradient norm :     0.0147275 Eh/α   predicted    -0.5010233E-03 (  61.34%)
   displ. norm   :     0.4051858 α      lambda       -0.7711275E-03
   maximum displ.:     0.1867402 α      in ANC's #20, #11, #19, ...

........................................................................
.............................. CYCLE   29 ..............................
........................................................................
   1   -194.7645778 -0.194765E+03  0.120E-01    0.11       0.0  T
   2   -194.7632183  0.135953E-02  0.906E-02    0.14       1.0  T
   3   -194.4004344  0.362784E+00  0.100E+00    0.12       1.0  T
   4   -194.7633015 -0.362867E+00  0.688E-02    0.14       1.0  T
   5   -194.7640653 -0.763808E-03  0.433E-02    0.13       1.0  T
   6   -194.7641413 -0.760270E-04  0.365E-02    0.13       1.0  T
   7   -194.7645216 -0.380344E-03  0.181E-02    0.12       1.0  T
   8   -194.7646211 -0.995135E-04  0.574E-03    0.11       1.6  T
   9   -194.7646315 -0.103995E-04  0.132E-03    0.11       7.1  T
  10   -194.7646320 -0.467598E-06  0.412E-04    0.11      22.8  T
  11   -194.7646320  0.145695E-07  0.316E-04    0.11      29.8  T
     SCC iter.                  ...        0 min,  0.125 sec
     gradient                   ...        0 min,  0.017 sec
 * total energy  :  -191.4939286 Eh     change       -0.5246874E-03 Eh
   gradient norm :     0.0100527 Eh/α   predicted    -0.4488645E-03 ( -14.45%)
   displ. norm   :     0.4616459 α      lambda       -0.6315252E-03
   maximum displ.:     0.2020218 α      in ANC's #11, #20, #6, ...

........................................................................
.............................. CYCLE   30 ..............................
........................................................................
   1   -194.7675515 -0.194768E+03  0.122E-01    0.11       0.0  T
   2   -194.7674972  0.542585E-04  0.684E-02    0.12       1.0  T
   3   -194.6593033  0.108194E+00  0.546E-01    0.01       1.0  T
   4   -194.7673161 -0.108013E+00  0.391E-02    0.12       1.0  T
   5   -194.7674641 -0.147988E-03  0.193E-02    0.10       1.0  T
   6   -194.7675683 -0.104225E-03  0.780E-03    0.11       1.2  T
   7   -194.7675809 -0.125420E-04  0.322E-03    0.11       2.9  T
   8   -194.7675822 -0.130679E-05  0.123E-03    0.11       7.7  T
   9   -194.7675824 -0.176421E-06  0.487E-04    0.11      19.3  T
     SCC iter.                  ...        0 min,  0.103 sec
     gradient                   ...        0 min,  0.017 sec
 * total energy  :  -191.4943593 Eh     change       -0.4307220E-03 Eh
   gradient norm :     0.0105776 Eh/α   predicted    -0.3830627E-03 ( -11.06%)
   displ. norm   :     0.6043169 α      lambda       -0.5247990E-03
   maximum displ.:     0.2652473 α      in ANC's #11, #20, #6, ...

........................................................................
.............................. CYCLE   31 ..............................
........................................................................
   1   -194.7638884 -0.194764E+03  0.146E-01    0.11       0.0  T
   2   -194.7614686  0.241982E-02  0.115E-01    0.16       1.0  T
   3   -194.3572404  0.404228E+00  0.106E+00    0.17       1.0  T
   4   -194.7619947 -0.404754E+00  0.808E-02    0.15       1.0  T
   5   -194.7627314 -0.736716E-03  0.625E-02    0.14       1.0  T
   6   -194.7631359 -0.404472E-03  0.479E-02    0.13       1.0  T
   7   -194.7637886 -0.652728E-03  0.236E-02    0.12       1.0  T
   8   -194.7639668 -0.178176E-03  0.530E-03    0.11       1.8  T
   9   -194.7639753 -0.851332E-05  0.102E-03    0.11       9.2  T
  10   -194.7639754 -0.730747E-07  0.544E-04    0.11      17.3  T
  11   -194.7639753  0.538376E-07  0.506E-04    0.11      18.6  T
     SCC iter.                  ...        0 min,  0.124 sec
     gradient                   ...        0 min,  0.017 sec
 * total energy  :  -191.4947147 Eh     change       -0.3554565E-03 Eh
   gradient norm :     0.0111302 Eh/α   predicted    -0.3582304E-03 (   0.78%)
   displ. norm   :     0.4866957 α      lambda       -0.5806351E-03
   maximum displ.:     0.2274701 α      in ANC's #11, #6, #20, ...

........................................................................
.............................. CYCLE   32 ..............................
........................................................................
   1   -194.7755985 -0.194776E+03  0.121E-01    0.11       0.0  T
   2   -194.7691078  0.649064E-02  0.151E-01    0.07       1.0  T
   3   -194.7681922  0.915614E-03  0.160E-01    0.29       1.0  T
   4   -194.7708493 -0.265709E-02  0.123E-01    0.21       1.0  T
   5   -194.7724352 -0.158593E-02  0.988E-02    0.17       1.0  T
   6   -194.7743172 -0.188196E-02  0.610E-02    0.14       1.0  T
   7   -194.7755398 -0.122260E-02  0.184E-02    0.10       1.0  T
   8   -194.7755486 -0.879490E-05  0.174E-02    0.10       1.0  T
   9   -194.7756580 -0.109375E-03  0.118E-03    0.11       8.0  T
  10   -194.7756566  0.139858E-05  0.224E-03    0.11       4.2  T
  11   -194.7756568 -0.257016E-06  0.199E-03    0.11       4.7  T
     SCC iter.                  ...        0 min,  0.125 sec
     gradient                   ...        0 min,  0.017 sec
 * total energy  :  -191.4949998 Eh     change       -0.2851022E-03 Eh
   gradient norm :     0.0151677 Eh/α   predicted    -0.3590888E-03 (  25.95%)
   displ. norm   :     0.4505236 α      lambda       -0.3642370E-03
   maximum displ.:     0.2080508 α      in ANC's #11, #20, #6, ...

........................................................................
.............................. CYCLE   33 ..............................
........................................................................
   1   -194.7674974 -0.194767E+03  0.121E-01    0.11       0.0  T
   2   -194.7656619  0.183557E-02  0.966E-02    0.15       1.0  T
   3   -194.4090905  0.356571E+00  0.990E-01    0.12       1.0  T
   4   -194.7659361 -0.356846E+00  0.730E-02    0.15       1.0  T
   5   -194.7661432 -0.207177E-03  0.634E-02    0.14       1.0  T
   6   -194.7669390 -0.795758E-03  0.424E-02    0.13       1.0  T
   7   -194.7673328 -0.393815E-03  0.249E-02    0.12       1.0  T
   8   -194.7675238 -0.190985E-03  0.993E-03    0.11       1.0  T
   9   -194.7675527 -0.288936E-04  0.344E-03    0.11       2.7  T
  10   -194.7675565 -0.384444E-05  0.825E-04    0.11      11.4  T
  11   -194.7675567 -0.170306E-06  0.232E-04    0.11      40.5  T
  12   -194.7675567 -0.623379E-08  0.134E-04    0.11      70.4  T
     SCC iter.                  ...        0 min,  0.136 sec
     gradient                   ...        0 min,  0.017 sec
 * total energy  :  -191.4952262 Eh     change       -0.2263318E-03 Eh
   gradient norm :     0.0075391 Eh/α   predicted    -0.2190855E-03 (  -3.20%)
   displ. norm   :     0.3267593 α      lambda       -0.2200780E-03
   maximum displ.:     0.1652576 α      in ANC's #11, #6, #8, ...

........................................................................
.............................. CYCLE   34 ..............................
........................................................................
   1   -194.7693976 -0.194769E+03  0.852E-02    0.11       0.0  T
   2   -194.7678101  0.158745E-02  0.802E-02    0.15       1.0  T
   3   -194.5999223  0.167888E+00  0.680E-01    0.04       1.0  T
   4   -194.7675991 -0.167677E+00  0.772E-02    0.15       1.0  T
   5   -194.7677759 -0.176789E-03  0.680E-02    0.15       1.0  T
   6   -194.7686492 -0.873366E-03  0.477E-02    0.13       1.0  T
   7   -194.7691246 -0.475337E-03  0.294E-02    0.12       1.0  T
   8   -194.7693883 -0.263755E-03  0.117E-02    0.11       1.0  T
   9   -194.7694301 -0.418170E-04  0.428E-03    0.11       2.2  T
  10   -194.7694363 -0.620666E-05  0.919E-04    0.11      10.2  T
  11   -194.7694366 -0.223699E-06  0.315E-04    0.11      29.8  T
  12   -194.7694366 -0.346098E-07  0.896E-05    0.11     104.9  T
     SCC iter.                  ...        0 min,  0.135 sec
     gradient                   ...        0 min,  0.017 sec
 * total energy  :  -191.4953857 Eh     change       -0.1595461E-03 Eh
   gradient norm :     0.0055647 Eh/α   predicted    -0.1217893E-03 ( -23.67%)
   displ. norm   :     0.3221359 α      lambda       -0.2006372E-03
   maximum displ.:     0.1685099 α      in ANC's #11, #6, #8, ...

........................................................................
.............................. CYCLE   35 ..............................
........................................................................
   1   -194.7725779 -0.194773E+03  0.885E-02    0.11       0.0  T
   2   -194.7711916  0.138632E-02  0.773E-02    0.14       1.0  T
   3   -194.5642144  0.206977E+00  0.753E-01    0.05       1.0  T
   4   -194.7708900 -0.206676E+00  0.777E-02    0.14       1.0  T
   5   -194.7709942 -0.104161E-03  0.671E-02    0.15       1.0  T
   6   -194.7718506 -0.856389E-03  0.470E-02    0.13       1.0  T
   7   -194.7723186 -0.468057E-03  0.285E-02    0.12       1.0  T
   8   -194.7725731 -0.254461E-03  0.108E-02    0.11       1.0  T
   9   -194.7726057 -0.326409E-04  0.475E-03    0.11       2.0  T
  10   -194.7726137 -0.799401E-05  0.792E-04    0.11      11.9  T
  11   -194.7726139 -0.139576E-06  0.307E-04    0.11      30.6  T
  12   -194.7726139 -0.300516E-07  0.109E-04    0.11      86.7  T
     SCC iter.                  ...        0 min,  0.135 sec
     gradient                   ...        0 min,  0.017 sec
 * total energy  :  -191.4955300 Eh     change       -0.1442235E-03 Eh
   gradient norm :     0.0047932 Eh/α   predicted    -0.1107294E-03 ( -23.22%)
   displ. norm   :     0.3220321 α      lambda       -0.1543201E-03
   maximum displ.:     0.1680201 α      in ANC's #11, #6, #8, ...

........................................................................
.............................. CYCLE   36 ..............................
........................................................................
   1   -194.7741077 -0.194774E+03  0.896E-02    0.11       0.0  T
   2   -194.7734270  0.680658E-03  0.639E-02    0.13       1.0  T
   3   -194.5104333  0.262994E+00  0.846E-01    0.07       1.0  T
   4   -194.7731323 -0.262699E+00  0.561E-02    0.14       1.0  T
   5   -194.7732819 -0.149618E-03  0.485E-02    0.13       1.0  T
   6   -194.7738334 -0.551518E-03  0.294E-02    0.12       1.0  T
   7   -194.7740139 -0.180510E-03  0.177E-02    0.12       1.0  T
   8   -194.7741184 -0.104404E-03  0.515E-03    0.11       1.8  T
   9   -194.7741243 -0.593910E-05  0.291E-03    0.11       3.2  T
  10   -194.7741273 -0.303100E-05  0.522E-04    0.11      18.0  T
  11   -194.7741274 -0.587075E-07  0.128E-04    0.11      73.5  T
  12   -194.7741274 -0.268014E-08  0.657E-05    0.11     143.1  T
     SCC iter.                  ...        0 min,  0.135 sec
     gradient                   ...        0 min,  0.017 sec
 * total energy  :  -191.4956386 Eh     change       -0.1086958E-03 Eh
   gradient norm :     0.0051793 Eh/α   predicted    -0.8516638E-04 ( -21.65%)
   displ. norm   :     0.3122031 α      lambda       -0.1496481E-03
   maximum displ.:     0.1682851 α      in ANC's #11, #6, #8, ...

........................................................................
.............................. CYCLE   37 ..............................
........................................................................
   1   -194.7741065 -0.194774E+03  0.887E-02    0.11       0.0  T
   2   -194.7736315  0.474990E-03  0.582E-02    0.13       1.0  T
   3   -194.5109545  0.262677E+00  0.845E-01    0.07       1.0  T
   4   -194.7734593 -0.262505E+00  0.439E-02    0.13       1.0  T
   5   -194.7737954 -0.336129E-03  0.317E-02    0.12       1.0  T
   6   -194.7739289 -0.133464E-03  0.229E-02    0.12       1.0  T
   7   -194.7740975 -0.168604E-03  0.859E-03    0.11       1.1  T
   8   -194.7741179 -0.203548E-04  0.310E-03    0.11       3.0  T
   9   -194.7741206 -0.275665E-05  0.143E-03    0.11       6.6  T
  10   -194.7741212 -0.624994E-06  0.360E-04    0.11      26.1  T
     SCC iter.                  ...        0 min,  0.113 sec
     gradient                   ...        0 min,  0.017 sec
 * total energy  :  -191.4957518 Eh     change       -0.1131316E-03 Eh
   gradient norm :     0.0063922 Eh/α   predicted    -0.8212088E-04 ( -27.41%)
   displ. norm   :     0.3671511 α      lambda       -0.1680835E-03
   maximum displ.:     0.1914051 α      in ANC's #6, #11, #8, ...

........................................................................
.............................. CYCLE   38 ..............................
........................................................................
   1   -194.7736634 -0.194774E+03  0.106E-01    0.11       0.0  T
   2   -194.7734350  0.228403E-03  0.615E-02    0.10       1.0  T
   3   -194.7658984  0.753660E-02  0.153E-01    0.30       1.0  T
   4   -194.7723480 -0.644953E-02  0.621E-02    0.14       1.0  T
   5   -194.7736424 -0.129444E-02  0.123E-02    0.11       1.0  T
   6   -194.7729860  0.656406E-03  0.449E-02    0.09       1.0  T
   7   -194.7736187 -0.632732E-03  0.129E-02    0.10       1.0  T
   8   -194.7736786 -0.598881E-04  0.129E-03    0.11       7.3  T
   9   -194.7736791 -0.474960E-06  0.445E-04    0.11      21.1  T
  10   -194.7736790  0.506988E-07  0.556E-04    0.11      16.9  T
     SCC iter.                  ...        0 min,  0.114 sec
     gradient                   ...        0 min,  0.017 sec
 * total energy  :  -191.4958827 Eh     change       -0.1309056E-03 Eh
   gradient norm :     0.0051053 Eh/α   predicted    -0.9537389E-04 ( -27.14%)
   displ. norm   :     0.4712878 α      lambda       -0.2135608E-03
   maximum displ.:     0.2471360 α      in ANC's #6, #11, #8, ...

........................................................................
.............................. CYCLE   39 ..............................
........................................................................
   1   -194.7718161 -0.194772E+03  0.139E-01    0.11       0.0  T
   2   -194.7700976  0.171850E-02  0.101E-01    0.08       1.0  T
   3   -194.7625776  0.752003E-02  0.177E-01    0.40       1.0  T
   4   -194.7663798 -0.380226E-02  0.129E-01    0.23       1.0  T
   5   -194.7691089 -0.272908E-02  0.894E-02    0.16       1.0  T
   6   -194.7714842 -0.237534E-02  0.324E-02    0.12       1.0  T
   7   -194.7687290  0.275528E-02  0.923E-02    0.08       1.0  T
   8   -194.7716637 -0.293468E-02  0.230E-02    0.12       1.0  T
   9   -194.7718309 -0.167235E-03  0.818E-03    0.11       1.2  T
  10   -194.7718494 -0.185100E-04  0.378E-03    0.11       2.5  T
  11   -194.7718518 -0.236512E-05  0.271E-03    0.11       3.5  T
  12   -194.7718544 -0.260003E-05  0.151E-04    0.11      62.4  T
     SCC iter.                  ...        0 min,  0.136 sec
     gradient                   ...        0 min,  0.017 sec
 * total energy  :  -191.4960333 Eh     change       -0.1506250E-03 Eh
   gradient norm :     0.0075890 Eh/α   predicted    -0.1304991E-03 ( -13.36%)
   displ. norm   :     0.4324972 α      lambda       -0.1827270E-03
   maximum displ.:     0.2320742 α      in ANC's #6, #11, #8, ...

........................................................................
.............................. CYCLE   40 ..............................
........................................................................
   1   -194.7691158 -0.194769E+03  0.127E-01    0.11       0.0  T
   2   -194.7667739  0.234191E-02  0.104E-01    0.08       1.0  T
   3   -194.7603677  0.640624E-02  0.172E-01    0.36       1.0  T
   4   -194.7638261 -0.345846E-02  0.127E-01    0.22       1.0  T
   5   -194.7661694 -0.234329E-02  0.939E-02    0.17       1.0  T
   6   -194.7684098 -0.224037E-02  0.453E-02    0.13       1.0  T
   7   -194.7657894  0.262035E-02  0.958E-02    0.08       1.0  T
   8   -194.7691495 -0.336007E-02  0.414E-03    0.11       2.3  T
   9   -194.7691374  0.121347E-04  0.651E-03    0.11       1.4  T
  10   -194.7691453 -0.796490E-05  0.451E-03    0.11       2.1  T
  11   -194.7691504 -0.503863E-05  0.243E-03    0.11       3.9  T
  12   -194.7691525 -0.208174E-05  0.983E-05    0.11      95.7  T
  13   -194.7691524  0.634104E-07  0.422E-04    0.11      22.3  T
     SCC iter.                  ...        0 min,  0.147 sec
     gradient                   ...        0 min,  0.017 sec
 * total energy  :  -191.4961579 Eh     change       -0.1245995E-03 Eh
   gradient norm :     0.0062661 Eh/α   predicted    -0.1084544E-03 ( -12.96%)
   displ. norm   :     0.3720419 α      lambda       -0.1433570E-03
   maximum displ.:     0.1994656 α      in ANC's #6, #11, #8, ...

........................................................................
.............................. CYCLE   41 ..............................
........................................................................
   1   -194.7703547 -0.194770E+03  0.106E-01    0.11       0.0  T
   2   -194.7701282  0.226550E-03  0.606E-02    0.10       1.0  T
   3   -194.7626856  0.744263E-02  0.153E-01    0.29       1.0  T
   4   -194.7693445 -0.665896E-02  0.549E-02    0.14       1.0  T
   5   -194.7703644 -0.101988E-02  0.954E-03    0.11       1.0  T
   6   -194.7702217  0.142741E-03  0.225E-02    0.10       1.0  T
   7   -194.7703385 -0.116887E-03  0.971E-03    0.11       1.0  T
   8   -194.7703686 -0.300202E-04  0.364E-03    0.11       2.6  T
   9   -194.7703730 -0.441028E-05  0.102E-03    0.11       9.2  T
  10   -194.7703732 -0.189885E-06  0.702E-04    0.11      13.4  T
  11   -194.7703733 -0.148503E-06  0.111E-04    0.11      84.4  T
     SCC iter.                  ...        0 min,  0.125 sec
     gradient                   ...        0 min,  0.017 sec
 * total energy  :  -191.4962449 Eh     change       -0.8701277E-04 Eh
   gradient norm :     0.0058037 Eh/α   predicted    -0.8160163E-04 (  -6.22%)
   displ. norm   :     0.3327753 α      lambda       -0.1173606E-03
   maximum displ.:     0.1857025 α      in ANC's #6, #11, #8, ...

........................................................................
.............................. CYCLE   42 ..............................
........................................................................
   1   -194.7682078 -0.194768E+03  0.856E-02    0.11       0.0  T
   2   -194.7681269  0.809571E-04  0.464E-02    0.12       1.0  T
   3   -194.6524076  0.115719E+00  0.559E-01    0.02       1.0  T
   4   -194.7681820 -0.115774E+00  0.153E-02    0.11       1.0  T
   5   -194.7681442  0.377878E-04  0.160E-02    0.12       1.0  T
   6   -194.7682068 -0.626348E-04  0.724E-03    0.11       1.3  T
   7   -194.7682141 -0.732536E-05  0.371E-03    0.11       2.5  T
   8   -194.7682186 -0.441800E-05  0.100E-03    0.11       9.4  T
   9   -194.7682184  0.160499E-06  0.103E-03    0.11       9.1  T
  10   -194.7682187 -0.344109E-06  0.379E-04    0.11      24.9  T
     SCC iter.                  ...        0 min,  0.114 sec
     gradient                   ...        0 min,  0.017 sec
 * total energy  :  -191.4963203 Eh     change       -0.7538686E-04 Eh
   gradient norm :     0.0044823 Eh/α   predicted    -0.6517906E-04 ( -13.54%)
   displ. norm   :     0.2452977 α      lambda       -0.9223886E-04
   maximum displ.:     0.1371327 α      in ANC's #6, #11, #8, ...
 * RMSD in coord.:     0.6605413 α      energy gain  -0.7148233E-02 Eh

generating ANC from model Hessian ...
Using Lindh-Hessian (1995)
 Shifting diagonal of input Hessian by   4.989434029721541E-003
 Lowest  eigenvalues of input Hessian
   -0.000000   -0.000000   -0.000000    0.000000    0.000000    0.000000
    0.005000    0.005005    0.005030    0.005041    0.005071    0.005117
    0.005150    0.005209    0.005307    0.005349    0.005431    0.005513
 Highest eigenvalues
    2.214595    2.272710    2.603582    2.617140    2.647239    2.647315
 

........................................................................
.............................. CYCLE   43 ..............................
........................................................................
   1   -194.7699722 -0.194770E+03  0.609E-02    0.11       0.0  T
   2   -194.7696375  0.334676E-03  0.431E-02    0.12       1.0  T
   3   -194.6477151  0.121922E+00  0.575E-01    0.02       1.0  T
   4   -194.7697089 -0.121994E+00  0.298E-02    0.12       1.0  T
   5   -194.7697050  0.385276E-05  0.275E-02    0.12       1.0  T
   6   -194.7699113 -0.206312E-03  0.144E-02    0.12       1.0  T
   7   -194.7699609 -0.495764E-04  0.759E-03    0.11       1.2  T
   8   -194.7699797 -0.188277E-04  0.213E-03    0.11       4.4  T
   9   -194.7699808 -0.111982E-05  0.992E-04    0.11       9.5  T
  10   -194.7699812 -0.323196E-06  0.254E-04    0.11      37.0  T
  11   -194.7699812 -0.134215E-07  0.686E-05    0.11     137.1  T
     SCC iter.                  ...        0 min,  0.126 sec
     gradient                   ...        0 min,  0.018 sec
 * total energy  :  -191.4963886 Eh     change       -0.6830441E-04 Eh
   gradient norm :     0.0040418 Eh/α   predicted     0.0000000E+00 (-100.00%)
   displ. norm   :     0.0811612 α      lambda       -0.7541722E-04
   maximum displ.:     0.0291111 α      in ANC's #14, #37, #23, ...

........................................................................
.............................. CYCLE   44 ..............................
........................................................................
   1   -194.7706105 -0.194771E+03  0.391E-02    0.11       0.0  T
   2   -194.7706053  0.523461E-05  0.217E-02    0.11       1.0  T
   3   -194.7687091  0.189618E-02  0.720E-02    0.15       1.0  T
   4   -194.7706035 -0.189435E-02  0.707E-03    0.11       1.3  T
   5   -194.7706098 -0.634024E-05  0.416E-03    0.11       2.3  T
   6   -194.7706132 -0.341466E-05  0.186E-03    0.11       5.1  T
   7   -194.7706114  0.181442E-05  0.249E-03    0.11       3.8  T
   8   -194.7706137 -0.231357E-05  0.271E-04    0.11      34.7  T
     SCC iter.                  ...        0 min,  0.097 sec
     gradient                   ...        0 min,  0.019 sec
 * total energy  :  -191.4964135 Eh     change       -0.2487800E-04 Eh
   gradient norm :     0.0030837 Eh/α   predicted    -0.3796909E-04 (  52.62%)
   displ. norm   :     0.1217406 α      lambda       -0.1351207E-03
   maximum displ.:     0.0407958 α      in ANC's #10, #16, #24, ...

........................................................................
.............................. CYCLE   45 ..............................
........................................................................
   1   -194.7722472 -0.194772E+03  0.515E-02    0.11       0.0  T
   2   -194.7722414  0.579263E-05  0.285E-02    0.11       1.0  T
   3   -194.7654531  0.678836E-02  0.137E-01    0.07       1.0  T
   4   -194.7720068 -0.655377E-02  0.270E-02    0.12       1.0  T
   5   -194.7722390 -0.232208E-03  0.748E-03    0.11       1.3  T
   6   -194.7722460 -0.693061E-05  0.467E-03    0.11       2.0  T
   7   -194.7722518 -0.587604E-05  0.186E-03    0.11       5.1  T
   8   -194.7722527 -0.873939E-06  0.973E-04    0.11       9.7  T
   9   -194.7722529 -0.200951E-06  0.507E-04    0.11      18.5  T
     SCC iter.                  ...        0 min,  0.103 sec
     gradient                   ...        0 min,  0.018 sec
 * total energy  :  -191.4964673 Eh     change       -0.5379023E-04 Eh
   gradient norm :     0.0049209 Eh/α   predicted    -0.6856312E-04 (  27.46%)
   displ. norm   :     0.0813514 α      lambda       -0.6659517E-04
   maximum displ.:     0.0379667 α      in ANC's #14, #23, #16, ...

........................................................................
.............................. CYCLE   46 ..............................
........................................................................
   1   -194.7718475 -0.194772E+03  0.436E-02    0.11       0.0  T
   2   -194.7718270  0.205001E-04  0.250E-02    0.11       1.0  T
   3   -194.7506573  0.211697E-01  0.240E-01    0.04       1.0  T
   4   -194.7717818 -0.211245E-01  0.141E-02    0.12       1.0  T
   5   -194.7718387 -0.568586E-04  0.641E-03    0.11       1.5  T
   6   -194.7718510 -0.123761E-04  0.182E-03    0.11       5.2  T
   7   -194.7718512 -0.146784E-06  0.974E-04    0.11       9.7  T
   8   -194.7718514 -0.224152E-06  0.533E-04    0.11      17.7  T
     SCC iter.                  ...        0 min,  0.092 sec
     gradient                   ...        0 min,  0.017 sec
 * total energy  :  -191.4964765 Eh     change       -0.9233493E-05 Eh
   gradient norm :     0.0037229 Eh/α   predicted    -0.3351844E-04 ( 263.01%)
   displ. norm   :     0.0868930 α      lambda       -0.9645276E-04
   maximum displ.:     0.0282663 α      in ANC's #37, #26, #28, ...

........................................................................
.............................. CYCLE   47 ..............................
........................................................................
   1   -194.7714697 -0.194771E+03  0.371E-02    0.11       0.0  T
   2   -194.7712470  0.222766E-03  0.321E-02    0.12       1.0  T
   3   -194.7474114  0.238356E-01  0.255E-01    0.04       1.0  T
   4   -194.7713006 -0.238892E-01  0.233E-02    0.12       1.0  T
   5   -194.7713677 -0.671064E-04  0.171E-02    0.12       1.0  T
   6   -194.7714622 -0.945162E-04  0.643E-03    0.11       1.5  T
   7   -194.7714735 -0.112804E-04  0.207E-03    0.11       4.6  T
   8   -194.7714746 -0.107846E-05  0.115E-03    0.11       8.2  T
   9   -194.7714748 -0.184595E-06  0.876E-04    0.11      10.7  T
  10   -194.7714750 -0.247976E-06  0.274E-04    0.11      34.3  T
     SCC iter.                  ...        0 min,  0.114 sec
     gradient                   ...        0 min,  0.018 sec
 * total energy  :  -191.4965158 Eh     change       -0.3930635E-04 Eh
   gradient norm :     0.0043194 Eh/α   predicted    -0.4859085E-04 (  23.62%)
   displ. norm   :     0.1143174 α      lambda       -0.9248432E-04
   maximum displ.:     0.0498962 α      in ANC's #16, #6, #14, ...

........................................................................
.............................. CYCLE   48 ..............................
........................................................................
   1   -194.7709839 -0.194771E+03  0.552E-02    0.11       0.0  T
   2   -194.7701546  0.829318E-03  0.568E-02    0.13       1.0  T
   3   -194.7244060  0.457486E-01  0.355E-01    0.02       1.0  T
   4   -194.7702986 -0.458926E-01  0.457E-02    0.13       1.0  T
   5   -194.7705008 -0.202182E-03  0.371E-02    0.13       1.0  T
   6   -194.7708186 -0.317762E-03  0.228E-02    0.12       1.0  T
   7   -194.7709492 -0.130649E-03  0.119E-02    0.11       1.0  T
   8   -194.7709984 -0.491933E-04  0.274E-03    0.11       3.4  T
   9   -194.7710007 -0.227998E-05  0.862E-04    0.11      10.9  T
  10   -194.7710008 -0.132128E-06  0.553E-04    0.11      17.0  T
     SCC iter.                  ...        0 min,  0.114 sec
     gradient                   ...        0 min,  0.017 sec
 * total energy  :  -191.4964993 Eh     change        0.1655450E-04 Eh
[...]
    48   6 C      3.808    -0.049    21.452     6.593
    49   6 C      3.751    -0.103    22.526     6.769
    50   6 C      2.923    -0.039    28.973     8.827
    51   6 C      2.972     0.010    27.779     8.645
    52   6 C      2.924    -0.037    28.923     8.820
    53   6 C      2.911    -0.033    28.825     8.804
    54   6 C      2.907    -0.037    28.924     8.819
    55   6 C      2.897    -0.037    28.931     8.819
    56   6 C      2.904    -0.049    29.219     8.863
    57   6 C      2.943    -0.007    28.184     8.707
    58   6 C      3.756    -0.110    22.650     6.786
    59   6 C      3.746    -0.007    20.775     6.502
    60   7 N      2.687    -0.123    23.673     7.226
    61   6 C      2.834     0.027    27.402     8.578
    62   6 C      2.899    -0.072    29.793     8.950
    63   6 C      2.935    -0.039    28.963     8.826
    64   6 C      2.980     0.029    27.338     8.577
    65   6 C      3.063    -0.041    28.941     8.822
    66   6 C      3.060    -0.043    29.004     8.832
    67   6 C      3.019     0.028    27.350     8.579
    68  16 S      2.308    -0.074   144.135    20.206
    69   6 C      3.020     0.024    27.440     8.593
    70   6 C      3.051    -0.035    28.817     8.804
    71   6 C      3.049    -0.043    29.027     8.836
    72   6 C      2.969     0.052    26.827     8.496
    73  16 S      2.294    -0.083   144.500    20.232
    74   6 C      2.879    -0.103    30.584     9.066
    75   1 H      0.926     0.061     2.191     2.315
    76   1 H      0.926     0.063     2.167     2.302
    77   1 H      0.926     0.055     2.252     2.347
    78   1 H      0.926     0.050     2.315     2.379
    79   1 H      0.925     0.081     1.968     2.193
    80   1 H      0.926     0.052     2.297     2.370
    81   1 H      0.926     0.040     2.454     2.450
    82   1 H      0.926     0.048     2.340     2.392
    83   1 H      0.924     0.037     2.487     2.466
    84   1 H      0.924     0.038     2.469     2.457
    85   1 H      0.925     0.032     2.559     2.502
    86   1 H      0.925     0.035     2.515     2.480
    87   1 H      0.925     0.039     2.455     2.450
    88   1 H      0.924     0.034     2.535     2.490
    89   1 H      0.924     0.038     2.482     2.464
    90   1 H      0.925     0.039     2.456     2.451
    91   1 H      0.925     0.038     2.481     2.463
    92   1 H      0.925     0.037     2.492     2.469
    93   1 H      0.926     0.035     2.523     2.484
    94   1 H      0.926     0.033     2.548     2.496
    95   1 H      0.926     0.035     2.520     2.482
    96   1 H      0.925     0.035     2.512     2.478
    97   1 H      0.926     0.041     2.435     2.440
    98   1 H      0.925     0.031     2.571     2.507
    99   1 H      0.925     0.052     2.298     2.370
   100   1 H      0.925     0.043     2.403     2.424
   101   1 H      0.925     0.054     2.267     2.355
   102   1 H      0.924     0.053     2.286     2.365
   103   1 H      0.924     0.063     2.168     2.303
   104   1 H      0.860     0.172     1.261     1.759
   105   1 H      0.925     0.050     2.315     2.379
   106   1 H      0.925     0.043     2.407     2.426
   107   1 H      0.925     0.040     2.446     2.446
   108   1 H      0.926     0.039     2.457     2.451
   109   1 H      0.926     0.038     2.471     2.458
   110   1 H      0.926     0.040     2.451     2.448
   111   1 H      0.926     0.044     2.398     2.422
   112   1 H      0.926     0.051     2.306     2.375
   113   1 H      0.926     0.052     2.295     2.369

 Mol. C6AA /au·bohr⁶  :     220336.692494
 Mol. C8AA /au·bohr⁸  :    6010755.044924
 Mol. α(0) /au        :        750.713883


Wiberg/Mayer (AO) data.
largest (>0.10) Wiberg bond orders for each atom
          total WBO             WBO to atom ...
     1  C   3.970        C    2 1.483    C   18 1.132    C    7 1.094
     2  C   3.940        C    1 1.483    C    3 1.099    C    5 1.096
     3  C   3.945        N    4 2.763    C    2 1.099
     4  N   2.966        C    3 2.763
     5  C   3.946        N    6 2.764    C    2 1.096
     6  N   2.966        C    5 2.764
     7  C   3.983        C   12 1.430    C    8 1.241    C    1 1.094
     8  C   3.978        C    9 1.472    C    7 1.241    C   16 1.025
     9  C   3.982        C    8 1.472    C   10 1.320    H   75 0.963
    10  C   3.974        C    9 1.320    C   11 1.268    C   15 1.203
    11  C   3.952        C   12 1.375    C   10 1.268    S   13 1.129
    12  C   3.975        C    7 1.430    C   11 1.375    H   76 0.959
    13  S   2.568        C   14 1.164    C   11 1.129
    14  C   3.939        C   15 1.670    S   13 1.164    H   77 0.969
    15  C   3.980        C   14 1.670    C   10 1.203    H   78 0.962
    16  C   3.919        O   17 1.763    C    8 1.025    C   18 1.019
    17  O   2.040        C   16 1.763
    18  C   3.944        C   19 1.576    C    1 1.132    C   16 1.019
    19  C   3.942        C   18 1.576    C   20 1.189    H   79 0.940
    20  C   3.934        C   21 1.261    C   33 1.229    C   19 1.189
    21  C   3.966        N   26 1.306    C   20 1.261    C   22 1.155
    22  C   3.974        N   23 1.306    C   31 1.269    C   21 1.155
    23  N   3.052        C   24 1.477    C   22 1.306
    24  C   3.949        N   23 1.477    C   25 1.156    C   29 1.080
    25  C   3.937        N   26 1.478    C   24 1.156    C   27 1.080
    26  N   3.052        C   25 1.478    C   21 1.306
    27  C   3.945        N   28 2.812    C   25 1.080
    28  N   2.987        C   27 2.812
    29  C   3.945        N   30 2.811    C   24 1.080
    30  N   2.989        C   29 2.811
    31  C   3.907        C   22 1.269    C   32 1.255    C   37 1.109
    32  C   3.968        N   36 1.361    C   31 1.255    C   33 1.140
    33  C   3.962        N   34 1.383    C   20 1.229    C   32 1.140
    34  N   3.064        S   35 1.427    C   33 1.383    N   36 0.158
    35  S   3.138        N   36 1.441    N   34 1.427
    36  N   3.052        S   35 1.441    C   32 1.361    N   34 0.158
    37  C   3.961        C   42 1.346    C   38 1.332    C   31 1.109
    38  C   3.969        C   39 1.479    C   37 1.332    H   80 0.960
    39  C   3.975        C   38 1.479    C   40 1.301    C   45 0.984
    40  C   3.953        C   41 1.369    C   39 1.301    C   43 1.104
    41  C   3.973        C   42 1.473    C   40 1.369    H   81 0.967
    42  C   3.966        C   41 1.473    C   37 1.346    H   82 0.964
    43  C   3.970        C   53 1.370    C   44 1.304    C   40 1.104
    44  C   3.975        C   50 1.472    C   43 1.304    C   45 0.990
    45  C   3.988        C   44 0.990    C   39 0.984    C   46 0.970    C   48 0.950
    46  C   3.996        C   47 1.019    H   84 0.975    H   83 0.973    C   45 0.970
    47  C   3.996        C   46 1.019    H   86 0.987    H   85 0.987    H   87 0.986
    48  C   3.994        C   49 1.019    H   88 0.978    H   89 0.974    C   45 0.950
    49  C   3.995        C   48 1.019    H   92 0.985    H   91 0.985    H   90 0.984
    50  C   3.974        C   44 1.472    C   51 1.339    H   93 0.964
    51  C   3.960        C   52 1.353    C   50 1.339    C   54 1.125
    52  C   3.973        C   53 1.475    C   51 1.353    H   94 0.966
    53  C   3.973        C   52 1.475    C   43 1.370    H   95 0.968
    54  C   3.978        C   55 1.723    C   51 1.125    H   96 0.962    C   57 0.117
    55  C   3.973        C   54 1.723    C   56 1.159    H   97 0.958
    56  C   3.984        C   57 1.755    C   55 1.159    H   98 0.961
    57  C   3.929        C   56 1.755    C   58 1.028    C   59 0.991    C   54 0.117
    58  C   3.995        C   57 1.028    H  100 0.982    H   99 0.970    H  101 0.967
    59  C   3.966        N   60 0.997    C   57 0.991    H  102 0.963    H  103 0.955
    60  N   3.396        C   61 1.273    C   59 0.997    H  104 0.939
    61  C   3.867        C   62 1.521    N   60 1.273    H  105 0.955
    62  C   3.951        C   61 1.521    C   63 1.295    H  106 0.957
    63  C   3.894        C   64 1.469    C   62 1.295    H  107 0.957
    64  C   3.936        C   63 1.469    C   65 1.236    S   68 1.060
    65  C   3.938        C   66 1.586    C   64 1.236    H  108 0.964
    66  C   3.940        C   65 1.586    C   67 1.238    H  109 0.962
    67  C   3.946        C   69 1.406    C   66 1.238    S   68 1.093
    68  S   2.434        C   67 1.093    C   64 1.060
    69  C   3.887        C   67 1.406    C   70 1.216    S   73 1.088
    70  C   3.985        C   71 1.642    C   69 1.216    H  110 0.962
    71  C   3.902        C   70 1.642    C   72 1.159    H  111 0.963
    72  C   3.959        C   74 1.709    C   71 1.159    S   73 1.039
    73  S   2.392        C   69 1.088    C   72 1.039
    74  C   3.838        C   72 1.709    H  113 0.977    H  112 0.970
    75  H   0.996        C    9 0.963
    76  H   0.995        C   12 0.959
    77  H   0.996        C   14 0.969
    78  H   0.997        C   15 0.962
    79  H   0.989        C   19 0.940
    80  H   0.997        C   38 0.960
    81  H   0.997        C   41 0.967
    82  H   0.997        C   42 0.964
    83  H   0.998        C   46 0.973
    84  H   0.998        C   46 0.975
    85  H   0.999        C   47 0.987
    86  H   0.998        C   47 0.987
    87  H   0.998        C   47 0.986
    88  H   0.999        C   48 0.978
    89  H   0.998        C   48 0.974
    90  H   0.998        C   49 0.984
    91  H   0.998        C   49 0.985
    92  H   0.999        C   49 0.985
    93  H   0.998        C   50 0.964
    94  H   0.998        C   52 0.966
    95  H   0.998        C   53 0.968
    96  H   0.998        C   54 0.962
    97  H   0.998        C   55 0.958
    98  H   0.999        C   56 0.961
    99  H   0.996        C   58 0.970
   100  H   0.998        C   58 0.982
   101  H   0.995        C   58 0.967
   102  H   0.992        C   59 0.963
   103  H   0.990        C   59 0.955
   104  H   0.970        N   60 0.939
   105  H   0.997        C   61 0.955
   106  H   0.998        C   62 0.957
   107  H   0.998        C   63 0.957
   108  H   0.998        C   65 0.964
   109  H   0.998        C   66 0.962
   110  H   0.998        C   70 0.962
   111  H   0.997        C   71 0.963
   112  H   0.997        C   74 0.970
   113  H   0.997        C   74 0.977

molecular dipole:
                 x           y           z       tot (Debye)
 q only:        0.081       9.919      -1.872
   full:        0.798      10.925      -1.603      28.139
molecular quadrupole (traceless):
                xx          xy          yy          xz          yz          zz
 q only:     -114.645    -237.728     268.465      48.502      -5.144    -153.820
  q+dip:     -156.143    -240.855     313.923      48.044      27.682    -157.780
   full:     -155.800    -237.252     308.054      52.798      26.606    -152.254

           -------------------------------------------------
          |                Geometry Summary                 |
           -------------------------------------------------

      molecular mass/u    :     1030.2678000
   center of mass at/Å    :       -7.1800255       8.6629034       0.9436587
  moments of inertia/u·Å² :        0.1061908E+05   0.1096070E+06   0.1127560E+06
rotational constants/cm⁻¹ :        0.1587485E-02   0.1538007E-03   0.1495054E-03

 * 103 selected distances

     #   Z        #   Z                                     value/Å
     1   6 C      2   6 C                                 1.3707889
     3   6 C      4   7 N                                 1.1482434
     5   6 C      6   7 N                                 1.1482614
     7   6 C      8   6 C                                 1.4173402
     8   6 C      9   6 C                                 1.3738747
     9   6 C     10   6 C                                 1.3982262
    10   6 C     11   6 C                                 1.4150868
     7   6 C     12   6 C                                 1.3820124
    11   6 C     12   6 C                                 1.3899397
    11   6 C     13  16 S                                 1.7359758
    13  16 S     14   6 C                                 1.7299822
    10   6 C     15   6 C                                 1.4236613
    14   6 C     15   6 C                                 1.3506970
    16   6 C     17   8 O                                 1.2130712
    18   6 C     19   6 C                                 1.3615121
    19   6 C     20   6 C                                 1.4266535
    20   6 C     21   6 C                                 1.4103349
    22   6 C     23   7 N                                 1.3444016
    23   7 N     24   6 C                                 1.3103456
    24   6 C     25   6 C                                 1.4334736
    21   6 C     26   7 N                                 1.3442755
    25   6 C     26   7 N                                 1.3105611
    27   6 C     28   7 N                                 1.1458475
    29   6 C     30   7 N                                 1.1458714
    22   6 C     31   6 C                                 1.4125188
    31   6 C     32   6 C                                 1.4074640
    20   6 C     33   6 C                                 1.4077364
    32   6 C     33   6 C                                 1.4462773
    33   6 C     34   7 N                                 1.3318677
    34   7 N     35  16 S                                 1.6024733
    32   6 C     36   7 N                                 1.3379536
    35  16 S     36   7 N                                 1.6031200
    37   6 C     38   6 C                                 1.4029929
    38   6 C     39   6 C                                 1.3713851
    39   6 C     40   6 C                                 1.4053510
    40   6 C     41   6 C                                 1.3878061
    37   6 C     42   6 C                                 1.4011784
    41   6 C     42   6 C                                 1.3795605
    43   6 C     44   6 C                                 1.4070012
    45   6 C     46   6 C                                 1.5350852
    46   6 C     47   6 C                                 1.5243995
    48   6 C     49   6 C                                 1.5229349
    44   6 C     50   6 C                                 1.3741917
    50   6 C     51   6 C                                 1.4033019
    51   6 C     52   6 C                                 1.4001354
    43   6 C     53   6 C                                 1.3878171
    52   6 C     53   6 C                                 1.3795521
    54   6 C     55   6 C                                 1.3443591
    56   6 C     57   6 C                                 1.3412816
    59   6 C     60   7 N                                 1.4416016
    60   7 N     61   6 C                                 1.3454171
    61   6 C     62   6 C                                 1.3615432
    62   6 C     63   6 C                                 1.4049376
    63   6 C     64   6 C                                 1.3698972
    64   6 C     65   6 C                                 1.4164122
    65   6 C     66   6 C                                 1.3596264
    66   6 C     67   6 C                                 1.4166133
    67   6 C     68  16 S                                 1.7507020
    67   6 C     69   6 C                                 1.3764999
    69   6 C     70   6 C                                 1.4207293
    70   6 C     71   6 C                                 1.3525730
    71   6 C     72   6 C                                 1.4337751
    69   6 C     73  16 S                                 1.7541520 (max)
    72   6 C     74   6 C                                 1.3407904
     9   6 C     75   1 H                                 1.0790979
    12   6 C     76   1 H                                 1.0773322
    14   6 C     77   1 H                                 1.0727037
    15   6 C     78   1 H                                 1.0750768
    19   6 C     79   1 H                                 1.0827685
    38   6 C     80   1 H                                 1.0778397
    41   6 C     81   1 H                                 1.0795631
    42   6 C     82   1 H                                 1.0781076
    46   6 C     83   1 H                                 1.0909833
    46   6 C     84   1 H                                 1.0916090
    47   6 C     85   1 H                                 1.0882694
    47   6 C     86   1 H                                 1.0876567
    47   6 C     87   1 H                                 1.0872385
    48   6 C     88   1 H                                 1.0932197
    48   6 C     89   1 H                                 1.0922233
    49   6 C     90   1 H                                 1.0866718
    49   6 C     91   1 H                                 1.0879858
    49   6 C     92   1 H                                 1.0868552
    50   6 C     93   1 H                                 1.0803480
    52   6 C     94   1 H                                 1.0793707
    53   6 C     95   1 H                                 1.0797672
    54   6 C     96   1 H                                 1.0840000
    55   6 C     97   1 H                                 1.0793154
    56   6 C     98   1 H                                 1.0833296
    58   6 C     99   1 H                                 1.0888262
    58   6 C    100   1 H                                 1.0873131
    58   6 C    101   1 H                                 1.0897445
    59   6 C    102   1 H                                 1.0951144
    59   6 C    103   1 H                                 1.0952715
    60   7 N    104   1 H                                 1.0098697 (min)
    61   6 C    105   1 H                                 1.0828280
    62   6 C    106   1 H                                 1.0815764
    63   6 C    107   1 H                                 1.0827454
    65   6 C    108   1 H                                 1.0762047
    66   6 C    109   1 H                                 1.0751117
    70   6 C    110   1 H                                 1.0757278
    71   6 C    111   1 H                                 1.0755271
    74   6 C    112   1 H                                 1.0756105
    74   6 C    113   1 H                                 1.0743781

 * 7 distinct bonds (by element types)

   Z      Z             #   av. dist./Å        max./Å        min./Å
   1 H    6 C          38     1.0830872     1.0952715     1.0727037
   6 C    6 C          45     1.4010962     1.5350852     1.3407904
   1 H    7 N           1     1.0098697     1.0098697     1.0098697
   6 C    7 N          12     1.2795539     1.4416016     1.1458475
   6 C    8 O           1     1.2130712     1.2130712     1.2130712
   6 C   16 S           4     1.7427030     1.7541520     1.7299822
   7 N   16 S           2     1.6027966     1.6031200     1.6024733


optimized geometry written to: xtbopt.xyz


           -------------------------------------------------
          | TOTAL ENERGY             -191.497440079298 Eh   |
          | GRADIENT NORM               0.000475526889 Eh/α |
          | HOMO-LUMO GAP               0.109182372040 eV   |
           -------------------------------------------------

------------------------------------------------------------------------
 * finished run on 2021/06/13 at 11:02:19.748     
------------------------------------------------------------------------
 total:
 * wall-time:     0 d,  0 h,  0 min, 18.015 sec
 *  cpu-time:     0 d,  0 h,  3 min, 35.961 sec
 * ratio c/w:    11.988 speedup
 SCF:
 * wall-time:     0 d,  0 h,  0 min,  0.321 sec
 *  cpu-time:     0 d,  0 h,  0 min,  3.840 sec
 * ratio c/w:    11.969 speedup
 ANC optimizer:
 * wall-time:     0 d,  0 h,  0 min, 17.652 sec
 *  cpu-time:     0 d,  0 h,  3 min, 31.716 sec
 * ratio c/w:    11.994 speedup

