      -----------------------------------------------------------      
     |                   =====================                   |     
     |                           x T B                           |     
     |                   =====================                   |     
     |                         S. Grimme                         |     
     |          Mulliken Center for Theoretical Chemistry        |     
     |                    University of Bonn                     |     
     |                Version 6.2 RC2 (SAW190805)                |     
      -----------------------------------------------------------      

   This program is distributed in the hope that it will be useful,
   but WITHOUT ANY WARRANTY; without even the implied warranty of
   MERCHANTABILITY or FITNESS FOR A PARTICULAR PURPOSE.
   
   FOR NON-COMMERCIAL, ACADEMIA USE ONLY.
   
   Cite this work as:
   * S. Grimme, C. Bannwarth, P. Shushkov, J. Chem. Theory Comput., 2017,
     13, 1989-2009. DOI: 10.1021/acs.jctc.7b00118
   * C. Bannwarth, S. Ehlert and S. Grimme., J. Chem. Theory Comput., 2019,
     15, 1652-1671. DOI: 10.1021/acs.jctc.8b01176
   * P. Pracht, E. Caldeweyher, S. Ehlert, S. Grimme, ChemRxiv, 2019, preprint.
     DOI: 10.26434/chemrxiv.8326202.v1
   
   for DFT-D4:
   * E. Caldeweyher, C. Bannwarth and S. Grimme, J. Chem. Phys., 2017,
     147, 034112. DOI: 10.1063/1.4993215
   * E. Caldeweyher, S. Ehlert, A. Hansen, H. Neugebauer, S. Spicher,
     C. Bannwarth and S. Grimme, J. Chem. Phys., 2019, 150, 154122.
     DOI: 10.1063/1.5090222
   
   for sTDA-xTB:
   * S. Grimme and C. Bannwarth, J. Chem. Phys., 2016, 145, 054103.
     DOI: 10.1063/1.4959605
   
   in the mass-spec context:
   * V. Asgeirsson, C. Bauer and S. Grimme, Chem. Sci., 2017, 8, 4879.
     DOI: 10.1039/c7sc00601b
   
   for metadynamics refer to:
   * S. Grimme, J. Chem. Theory Comput., 2019, 155, 2847-2862
     DOI: 10.1021/acs.jctc.9b00143
   
   with help from (in alphabetical order)
   C. Bannwarth, F. Bohle, G. Brandenburg, E. Caldeweyher, M. Checinski,
   S. Dohm, S. Ehlert, S. Ehrlich, F. März, H. Neugebauer, J. Pisarek,
   P. Pracht, P. Shushkov, and S. Spicher.
   
 * started run on 2021/06/13 at 14:15:38.943     

           -------------------------------------------------
          |                Calculation Setup                |
           -------------------------------------------------

          program call               : /ihome/ghutchison/geoffh/xtb/xtb /ihome/ghutchison/blp62/GA/running_GA/sequence/generations/152/267_47_121_47_267_10301.xyz -opt
          hostname                   : smp-n40
          coordinate file            : /ihome/ghutchison/blp62/GA/running_GA/sequence/generations/152/267_47_121_47_267_10301.xyz
          omp threads                :                    12
          number of atoms            :                   108
          number of electrons        :                   370
          charge                     :                     0
          spin                       :                   0.0
          first test random number   :      0.03269728495705


########################################################################
# WARNING! Please study the warnings concerning your input carefully
#  - XTBPATH is not set, using XTBHOME instead
#  - the use of '-opt' is discouraged, please use '--opt' next time
########################################################################

           ------------------------------------------------- 
          |                 G F N 2 - x T B                 |
          | Geometry, Frequencies, Noncovalent interactions |
          |            JCTC 2019 parametrisation            |
           ------------------------------------------------- 
             KAB for C  - Si     :                1.0500
             KAB for H  - Pd     :                0.9500
             k(s)              :                1.8500
             k(p)              :                2.2300
             k(d)              :                2.2300
             k(f)              :                2.0000
             kEN (H0ij)        :               -2.0000
             D4 a1             :                0.5200
             D4 a2             :                5.0000
             D4 s6             :                1.0000
             D4 s8             :                2.7000
             D4 s9             :                5.0000
             alphaj            :                2.0000

  Z AO/shell   Hii/eV     exponent
  1     Wed Apr 25 08:07:45 CEST 2018   EN: 2.200 GM2: 0.406  GM3: 0.0800  RAES: 1.40
     1s    -10.707211    1.230000
  6     Wed Apr 25 08:07:45 CEST 2018   EN: 2.550 GM2: 0.538  GM3: 0.1500  RAES: 3.00
     2s    -13.970922    2.096432
     2p    -10.063292    1.800000
  7     Wed Apr 25 08:07:45 CEST 2018   EN: 3.040 GM2: 0.461  GM3:-0.0640  RAES: 1.90
     2s    -16.686243    2.339881
     2p    -12.523956    2.014332
  8     Wed Apr 25 08:07:45 CEST 2018   EN: 3.440 GM2: 0.452  GM3:-0.0517  RAES: 1.80
     2s    -20.229985    2.439742
     2p    -15.503117    2.137023
  9     Mon Apr 23 13:58:50 CEST 2018   EN: 3.980 GM2: 0.532  GM3: 0.1426  RAES: 2.40
     2s    -23.458179    2.416361
     2p    -15.746583    2.308399
 16     Tue Apr 24 11:44:34 CEST 2018   EN: 2.580 GM2: 0.340  GM3:-0.0502  RAES: 3.10
     3s    -20.029654    1.981333
     3p    -11.377694    2.025643
     3d     -0.420282    1.702555

           ------------------------------------------------- 
          |        Self-Consistent Charge Iterations        |
           ------------------------------------------------- 

          ...................................................
          :                      SETUP                      :
          :.................................................:
          :  # basis functions                 381          :
          :  # atomic orbitals                 374          :
          :  # shells                          192          :
          :  # electrons                       370          :
          :  max. iterations                   250          :
          :  Hamiltonian                  GFN2-xTB          :
          :  restarted?                      false          :
          :  GBSA solvation                  false          :
          :  PC potential                    false          :
          :  electronic temp.          300.0000000     K    :
          :  accuracy                    1.0000000          :
          :  -> integral cutoff          0.2500000E+02      :
          :  -> integral neglect         0.1000000E-07      :
          :  -> SCF convergence          0.1000000E-05 Eh   :
          :  -> wf. convergence          0.1000000E-03 e    :
          :  Broyden damping             0.4000000          :
          ...................................................

 iter      E             dE          RMSdq      gap      omega  full diag
   1   -205.6187143 -0.205619E+03  0.520E+00    1.18       0.0  T
   2   -205.7000443 -0.813301E-01  0.322E+00    1.06       1.0  T
   3   -205.3006307  0.399414E+00  0.242E+00    0.72       1.0  T
   4   -205.8441580 -0.543527E+00  0.803E-01    0.96       1.0  T
   5   -205.8923105 -0.481526E-01  0.421E-01    0.88       1.0  T
   6   -205.9089751 -0.166646E-01  0.173E-01    0.85       1.0  T
   7   -205.9114726 -0.249749E-02  0.773E-02    0.87       1.0  T
   8   -205.9118499 -0.377289E-03  0.343E-02    0.86       1.0  T
   9   -205.9119106 -0.606369E-04  0.172E-02    0.86       1.0  T
  10   -205.9119231 -0.125528E-04  0.105E-02    0.86       1.0  T
  11   -205.9119299 -0.678425E-05  0.499E-03    0.87       1.9  T
  12   -205.9119317 -0.176867E-05  0.229E-03    0.86       4.2  T
  13   -205.9119319 -0.261722E-06  0.126E-03    0.87       7.6  T
  14   -205.9119320 -0.744586E-07  0.640E-04    0.86      15.0  T
  15   -205.9119320 -0.173490E-07  0.297E-04    0.86      32.4  T

   *** convergence criteria satisfied after 15 iterations ***

         #    Occupation            Energy/Eh            Energy/eV
      -------------------------------------------------------------
         1        2.0000           -0.8786568             -23.9095
       ...           ...                  ...                  ...
       179        2.0000           -0.3988858             -10.8542
       180        2.0000           -0.3968402             -10.7986
       181        2.0000           -0.3921399             -10.6707
       182        2.0000           -0.3903739             -10.6226
       183        2.0000           -0.3827467             -10.4151
       184        2.0000           -0.3692635             -10.0482
       185        2.0000           -0.3622111              -9.8563 (HOMO)
       186        0.0000           -0.3304245              -8.9913 (LUMO)
       187                         -0.3256988              -8.8627
       188                         -0.3162426              -8.6054
       189                         -0.3071296              -8.3574
       190                         -0.3030095              -8.2453
       ...                                ...                  ...
       374                          1.1029277              30.0122
      -------------------------------------------------------------
                  HL-Gap            0.0317866 Eh            0.8650 eV
             Fermi-level           -0.3463208 Eh           -9.4239 eV

 SCC (total)                   0 d,  0 h,  0 min,  0.282 sec
 SCC setup                      ...        0 min,  0.003 sec (  0.925%)
 Dispersion                     ...        0 min,  0.006 sec (  2.060%)
 integral evaluation            ...        0 min,  0.029 sec ( 10.221%)
 zeroth order Hamiltonian       ...        0 min,  0.001 sec (  0.474%)
 iterations                     ...        0 min,  0.218 sec ( 77.486%)
 molecular gradient             ...        0 min,  0.023 sec (  8.281%)
 printout                       ...        0 min,  0.001 sec (  0.511%)

         :::::::::::::::::::::::::::::::::::::::::::::::::::::
         ::                     SUMMARY                     ::
         :::::::::::::::::::::::::::::::::::::::::::::::::::::
         :: total energy            -202.842904466401 Eh    ::
         :: gradient norm              0.185707720032 Eh/a0 ::
         :: HOMO-LUMO gap              0.864958701009 eV    ::
         ::.................................................::
         :: SCC energy              -205.911932009453 Eh    ::
         :: -> isotropic ES            0.134169333942 Eh    ::
         :: -> anisotropic ES          0.008849649557 Eh    ::
         :: -> anisotropic XC          0.123504378372 Eh    ::
         :: -> dispersion             -0.158891529357 Eh    ::
         :: repulsion energy           3.068600074047 Eh    ::
         :: add. restraining           0.000000000000 Eh    ::
         :::::::::::::::::::::::::::::::::::::::::::::::::::::

      ----------------------------------------------------------- 
     |                   =====================                   |
     |                        A N C O P T                        |
     |                   =====================                   |
     |               Approximate Normal Coordinate               |
     |                Rational Function Optimizer                |
      ----------------------------------------------------------- 

          ...................................................
          :                      SETUP                      :
          :.................................................:
          :   optimization level            normal          :
          :   max. optcycles                   324          :
          :   ANC micro-cycles                  20          :
          :   degrees of freedom               318          :
          :.................................................:
          :   RF solver                   davidson          :
          :   input Hessian                  false          :
          :   write xtbopt.log                true          :
          :   linear?                        false          :
          :   energy convergence         0.5000000E-05 Eh   :
          :   grad. convergence          0.1000000E-02 Eh/α :
          :   maximium RF displ.         2.0000000          :
          :   Hlow (freq-cutoff)         0.5000000E-02      :
          :   Hmax (freq-cutoff)         5.0000000          :
          :   S6 in model hess.         20.0000000          :
          ...................................................

generating ANC from model Hessian ...
Using Lindh-Hessian (1995)
 Shifting diagonal of input Hessian by   4.995477769047815E-003
 Lowest  eigenvalues of input Hessian
   -0.000000   -0.000000   -0.000000   -0.000000    0.000000    0.000000
    0.005000    0.005014    0.005023    0.005031    0.005044    0.005053
    0.005089    0.005168    0.005231    0.005336    0.005412    0.005487
 Highest eigenvalues
    2.248938    2.257152    2.506179    2.517418    2.570183    2.571908
 

........................................................................
.............................. CYCLE    1 ..............................
........................................................................
   1   -205.9119320 -0.205912E+03  0.147E-04    0.86       0.0  T
   2   -205.9119320  0.760224E-09  0.142E-04    0.86      67.7  T
   3   -205.9119320 -0.219876E-08  0.649E-05    0.86     148.2  T
     SCC iter.                  ...        0 min,  0.047 sec
     gradient                   ...        0 min,  0.024 sec
 * total energy  :  -202.8429044 Eh     change        0.8536156E-07 Eh
   gradient norm :     0.1857074 Eh/α   predicted     0.0000000E+00 (-100.00%)
   displ. norm   :     0.4558953 α      lambda       -0.3967806E-01
   maximum displ.:     0.1007258 α      in ANC's #62, #74, #77, ...

........................................................................
.............................. CYCLE    2 ..............................
........................................................................
   1   -206.0148578 -0.206015E+03  0.436E-01    0.81       0.0  T
   2   -206.0141012  0.756655E-03  0.232E-01    0.84       1.0  T
   3   -206.0009308  0.131704E-01  0.309E-01    0.85       1.0  T
   4   -206.0157128 -0.147820E-01  0.522E-02    0.83       1.0  T
   5   -206.0159369 -0.224057E-03  0.260E-02    0.84       1.0  T
   6   -206.0159478 -0.108913E-04  0.160E-02    0.84       1.0  T
   7   -206.0159634 -0.156859E-04  0.662E-03    0.84       1.5  T
   8   -206.0159696 -0.618002E-05  0.248E-03    0.84       3.9  T
   9   -206.0159699 -0.310046E-06  0.169E-03    0.84       5.7  T
  10   -206.0159702 -0.295141E-06  0.647E-04    0.84      14.9  T
     SCC iter.                  ...        0 min,  0.140 sec
     gradient                   ...        0 min,  0.023 sec
 * total energy  :  -202.8706729 Eh     change       -0.2776852E-01 Eh
   gradient norm :     0.0832974 Eh/α   predicted    -0.2396239E-01 ( -13.71%)
   displ. norm   :     0.5369274 α      lambda       -0.1797597E-01
   maximum displ.:     0.1525552 α      in ANC's #62, #51, #26, ...

........................................................................
.............................. CYCLE    3 ..............................
........................................................................
   1   -206.0528756 -0.206053E+03  0.426E-01    0.75       0.0  T
   2   -206.0499048  0.297083E-02  0.259E-01    0.76       1.0  T
   3   -206.0296366  0.202681E-01  0.391E-01    0.80       1.0  T
   4   -206.0539797 -0.243431E-01  0.609E-02    0.76       1.0  T
   5   -206.0542611 -0.281432E-03  0.290E-02    0.76       1.0  T
   6   -206.0542805 -0.193722E-04  0.207E-02    0.76       1.0  T
   7   -206.0542982 -0.176609E-04  0.129E-02    0.76       1.0  T
   8   -206.0543203 -0.221160E-04  0.468E-03    0.76       2.1  T
   9   -206.0543228 -0.251652E-05  0.230E-03    0.76       4.2  T
  10   -206.0543235 -0.642145E-06  0.852E-04    0.76      11.3  T
     SCC iter.                  ...        0 min,  0.149 sec
     gradient                   ...        0 min,  0.023 sec
 * total energy  :  -202.8804344 Eh     change       -0.9761450E-02 Eh
   gradient norm :     0.0334457 Eh/α   predicted    -0.1157915E-01 (  18.62%)
   displ. norm   :     0.6818540 α      lambda       -0.1244533E-01
   maximum displ.:     0.2950234 α      in ANC's #30, #25, #62, ...

........................................................................
.............................. CYCLE    4 ..............................
........................................................................
   1   -206.0427683 -0.206043E+03  0.484E-01    0.70       0.0  T
   2   -206.0383572  0.441115E-02  0.307E-01    0.67       1.0  T
   3   -206.0000819  0.382752E-01  0.508E-01    0.77       1.0  T
   4   -206.0436997 -0.436178E-01  0.654E-02    0.69       1.0  T
   5   -206.0440531 -0.353396E-03  0.317E-02    0.69       1.0  T
   6   -206.0440984 -0.452950E-04  0.219E-02    0.68       1.0  T
   7   -206.0441112 -0.127890E-04  0.162E-02    0.68       1.0  T
   8   -206.0441462 -0.350077E-04  0.627E-03    0.68       1.5  T
   9   -206.0441508 -0.454938E-05  0.299E-03    0.68       3.2  T
  10   -206.0441520 -0.120519E-05  0.107E-03    0.68       9.0  T
     SCC iter.                  ...        0 min,  0.154 sec
     gradient                   ...        0 min,  0.025 sec
 * total energy  :  -202.8805075 Eh     change       -0.7319665E-04 Eh
   gradient norm :     0.0872330 Eh/α   predicted    -0.9115819E-02 (*******%)
   displ. norm   :     0.3759040 α      lambda       -0.1440172E-01
   maximum displ.:     0.1645008 α      in ANC's #14, #26, #12, ...

........................................................................
.............................. CYCLE    5 ..............................
........................................................................
   1   -206.0684844 -0.206068E+03  0.308E-01    0.68       0.0  T
   2   -206.0683756  0.108792E-03  0.175E-01    0.68       1.0  T
   3   -206.0578618  0.105138E-01  0.241E-01    0.65       1.0  T
   4   -206.0685148 -0.106530E-01  0.454E-02    0.68       1.0  T
   5   -206.0687661 -0.251249E-03  0.115E-02    0.67       1.0  T
   6   -206.0687586  0.742143E-05  0.117E-02    0.67       1.0  T
   7   -206.0687769 -0.183005E-04  0.376E-03    0.67       2.6  T
   8   -206.0687780 -0.103453E-05  0.190E-03    0.67       5.1  T
   9   -206.0687783 -0.371036E-06  0.785E-04    0.67      12.3  T
     SCC iter.                  ...        0 min,  0.135 sec
     gradient                   ...        0 min,  0.023 sec
 * total energy  :  -202.8875830 Eh     change       -0.7075466E-02 Eh
   gradient norm :     0.0438790 Eh/α   predicted    -0.8218361E-02 (  16.15%)
   displ. norm   :     0.4697951 α      lambda       -0.4851264E-02
   maximum displ.:     0.1644073 α      in ANC's #30, #26, #15, ...

........................................................................
.............................. CYCLE    6 ..............................
........................................................................
   1   -206.0589632 -0.206059E+03  0.201E-01    0.66       0.0  T
   2   -206.0589707 -0.754352E-05  0.111E-01    0.64       1.0  T
   3   -206.0574885  0.148222E-02  0.102E-01    0.65       1.0  T
   4   -206.0589667 -0.147823E-02  0.270E-02    0.64       1.0  T
   5   -206.0590292 -0.624423E-04  0.159E-02    0.64       1.0  T
   6   -206.0590279  0.121925E-05  0.149E-02    0.64       1.0  T
   7   -206.0590644 -0.364811E-04  0.310E-03    0.64       3.1  T
   8   -206.0590653 -0.891768E-06  0.134E-03    0.64       7.2  T
   9   -206.0590655 -0.137616E-06  0.701E-04    0.64      13.7  T
     SCC iter.                  ...        0 min,  0.138 sec
     gradient                   ...        0 min,  0.023 sec
 * total energy  :  -202.8910869 Eh     change       -0.3503904E-02 Eh
   gradient norm :     0.0205060 Eh/α   predicted    -0.2960986E-02 ( -15.49%)
   displ. norm   :     0.7362229 α      lambda       -0.5948029E-02
   maximum displ.:     0.2441124 α      in ANC's #27, #30, #26, ...

........................................................................
.............................. CYCLE    7 ..............................
........................................................................
   1   -206.0483858 -0.206048E+03  0.325E-01    0.61       0.0  T
   2   -206.0482071  0.178654E-03  0.182E-01    0.59       1.0  T
   3   -206.0393119  0.889522E-02  0.236E-01    0.61       1.0  T
   4   -206.0483609 -0.904895E-02  0.453E-02    0.58       1.0  T
   5   -206.0485524 -0.191566E-03  0.292E-02    0.59       1.0  T
   6   -206.0486180 -0.656081E-04  0.219E-02    0.58       1.0  T
   7   -206.0486843 -0.662802E-04  0.481E-03    0.59       2.0  T
   8   -206.0486864 -0.202572E-05  0.207E-03    0.59       4.6  T
   9   -206.0486866 -0.261751E-06  0.117E-03    0.59       8.2  T
     SCC iter.                  ...        0 min,  0.131 sec
     gradient                   ...        0 min,  0.023 sec
 * total energy  :  -202.8936833 Eh     change       -0.2596367E-02 Eh
   gradient norm :     0.0495436 Eh/α   predicted    -0.4585999E-02 (  76.63%)
   displ. norm   :     0.5326253 α      lambda       -0.6190052E-02
   maximum displ.:     0.1890004 α      in ANC's #30, #15, #26, ...

........................................................................
.............................. CYCLE    8 ..............................
........................................................................
   1   -206.0577673 -0.206058E+03  0.261E-01    0.55       0.0  T
   2   -206.0573049  0.462401E-03  0.150E-01    0.53       1.0  T
   3   -206.0451023  0.122026E-01  0.264E-01    0.58       1.0  T
   4   -206.0578635 -0.127612E-01  0.312E-02    0.53       1.0  T
   5   -206.0579390 -0.755423E-04  0.196E-02    0.53       1.0  T
   6   -206.0579459 -0.688373E-05  0.174E-02    0.53       1.0  T
   7   -206.0579892 -0.432887E-04  0.464E-03    0.53       2.1  T
   8   -206.0579923 -0.305988E-05  0.182E-03    0.53       5.3  T
   9   -206.0579925 -0.233837E-06  0.104E-03    0.53       9.3  T
     SCC iter.                  ...        0 min,  0.132 sec
     gradient                   ...        0 min,  0.023 sec
 * total energy  :  -202.8979542 Eh     change       -0.4270956E-02 Eh
   gradient norm :     0.0291109 Eh/α   predicted    -0.3973050E-02 (  -6.98%)
   displ. norm   :     0.5042501 α      lambda       -0.4172279E-02
   maximum displ.:     0.1975502 α      in ANC's #15, #30, #18, ...

........................................................................
.............................. CYCLE    9 ..............................
........................................................................
   1   -206.0747861 -0.206075E+03  0.244E-01    0.51       0.0  T
   2   -206.0747700  0.161061E-04  0.128E-01    0.50       1.0  T
   3   -206.0710795  0.369049E-02  0.142E-01    0.53       1.0  T
   4   -206.0747704 -0.369087E-02  0.308E-02    0.50       1.0  T
   5   -206.0748755 -0.105082E-03  0.160E-02    0.51       1.0  T
   6   -206.0748813 -0.584858E-05  0.117E-02    0.51       1.0  T
   7   -206.0749034 -0.220478E-04  0.373E-03    0.51       2.6  T
   8   -206.0749052 -0.182591E-05  0.152E-03    0.51       6.3  T
   9   -206.0749054 -0.183921E-06  0.824E-04    0.51      11.7  T
     SCC iter.                  ...        0 min,  0.135 sec
     gradient                   ...        0 min,  0.023 sec
 * total energy  :  -202.9004997 Eh     change       -0.2545450E-02 Eh
   gradient norm :     0.0289361 Eh/α   predicted    -0.2616576E-02 (   2.79%)
   displ. norm   :     0.6727951 α      lambda       -0.4189676E-02
   maximum displ.:     0.2057114 α      in ANC's #16, #27, #30, ...

........................................................................
.............................. CYCLE   10 ..............................
........................................................................
   1   -206.0779247 -0.206078E+03  0.307E-01    0.50       0.0  T
   2   -206.0775046  0.420174E-03  0.166E-01    0.48       1.0  T
   3   -206.0617749  0.157297E-01  0.285E-01    0.55       1.0  T
   4   -206.0780302 -0.162553E-01  0.335E-02    0.49       1.0  T
   5   -206.0780619 -0.316980E-04  0.257E-02    0.49       1.0  T
   6   -206.0781015 -0.395825E-04  0.169E-02    0.49       1.0  T
   7   -206.0781348 -0.333510E-04  0.774E-03    0.49       1.2  T
   8   -206.0781468 -0.120248E-04  0.200E-03    0.49       4.8  T
   9   -206.0781471 -0.303337E-06  0.115E-03    0.49       8.4  T
  10   -206.0781472 -0.710545E-07  0.630E-04    0.49      15.3  T
     SCC iter.                  ...        0 min,  0.146 sec
     gradient                   ...        0 min,  0.023 sec
 * total energy  :  -202.9030332 Eh     change       -0.2533475E-02 Eh
   gradient norm :     0.0253913 Eh/α   predicted    -0.3043077E-02 (  20.11%)
   displ. norm   :     0.6242800 α      lambda       -0.3575411E-02
   maximum displ.:     0.2098620 α      in ANC's #15, #27, #30, ...

........................................................................
.............................. CYCLE   11 ..............................
........................................................................
   1   -206.0690223 -0.206069E+03  0.293E-01    0.48       0.0  T
   2   -206.0688627  0.159658E-03  0.157E-01    0.47       1.0  T
   3   -206.0577744  0.110883E-01  0.235E-01    0.52       1.0  T
   4   -206.0691213 -0.113469E-01  0.279E-02    0.47       1.0  T
   5   -206.0691582 -0.368901E-04  0.191E-02    0.48       1.0  T
   6   -206.0691867 -0.285124E-04  0.958E-03    0.47       1.0  T
   7   -206.0691999 -0.132202E-04  0.437E-03    0.48       2.2  T
   8   -206.0692021 -0.213914E-05  0.211E-03    0.48       4.6  T
   9   -206.0692025 -0.452532E-06  0.106E-03    0.48       9.1  T
     SCC iter.                  ...        0 min,  0.137 sec
     gradient                   ...        0 min,  0.023 sec
 * total energy  :  -202.9042050 Eh     change       -0.1171829E-02 Eh
   gradient norm :     0.0396987 Eh/α   predicted    -0.2484419E-02 ( 112.01%)
   displ. norm   :     0.4008509 α      lambda       -0.3395076E-02
   maximum displ.:     0.1324843 α      in ANC's #16, #27, #18, ...

........................................................................
.............................. CYCLE   12 ..............................
........................................................................
   1   -206.0838688 -0.206084E+03  0.215E-01    0.48       0.0  T
   2   -206.0835100  0.358849E-03  0.124E-01    0.49       1.0  T
   3   -206.0686217  0.148883E-01  0.269E-01    0.46       1.0  T
   4   -206.0838995 -0.152778E-01  0.308E-02    0.49       1.0  T
   5   -206.0840044 -0.104809E-03  0.124E-02    0.48       1.0  T
   6   -206.0840003  0.404145E-05  0.109E-02    0.48       1.0  T
   7   -206.0840150 -0.147196E-04  0.467E-03    0.48       2.1  T
   8   -206.0840177 -0.266518E-05  0.176E-03    0.48       5.5  T
   9   -206.0840180 -0.325934E-06  0.753E-04    0.48      12.8  T
     SCC iter.                  ...        0 min,  0.134 sec
     gradient                   ...        0 min,  0.023 sec
 * total energy  :  -202.9057341 Eh     change       -0.1529113E-02 Eh
   gradient norm :     0.0404835 Eh/α   predicted    -0.1970299E-02 (  28.85%)
   displ. norm   :     0.3973730 α      lambda       -0.2875922E-02
   maximum displ.:     0.1583652 α      in ANC's #15, #18, #11, ...

........................................................................
.............................. CYCLE   13 ..............................
........................................................................
   1   -206.0794606 -0.206079E+03  0.170E-01    0.49       0.0  T
   2   -206.0794378  0.227640E-04  0.931E-02    0.48       1.0  T
   3   -206.0762775  0.316030E-02  0.127E-01    0.51       1.0  T
   4   -206.0794093 -0.313174E-02  0.314E-02    0.48       1.0  T
   5   -206.0795072 -0.979209E-04  0.201E-02    0.49       1.0  T
   6   -206.0795548 -0.476388E-04  0.104E-02    0.49       1.0  T
   7   -206.0795657 -0.108920E-04  0.451E-03    0.49       2.1  T
   8   -206.0795685 -0.272670E-05  0.166E-03    0.49       5.8  T
   9   -206.0795687 -0.226778E-06  0.966E-04    0.49      10.0  T
     SCC iter.                  ...        0 min,  0.128 sec
     gradient                   ...        0 min,  0.023 sec
 * total energy  :  -202.9065963 Eh     change       -0.8622250E-03 Eh
   gradient norm :     0.0362997 Eh/α   predicted    -0.1665020E-02 (  93.11%)
   displ. norm   :     0.3723651 α      lambda       -0.2247617E-02
   maximum displ.:     0.1276185 α      in ANC's #15, #16, #27, ...

........................................................................
.............................. CYCLE   14 ..............................
........................................................................
   1   -206.0782608 -0.206078E+03  0.159E-01    0.49       0.0  T
   2   -206.0782840 -0.231582E-04  0.832E-02    0.49       1.0  T
   3   -206.0777925  0.491499E-03  0.569E-02    0.49       1.0  T
   4   -206.0781949 -0.402429E-03  0.272E-02    0.50       1.0  T
   5   -206.0782772 -0.823253E-04  0.159E-02    0.49       1.0  T
   6   -206.0783028 -0.255816E-04  0.104E-02    0.49       1.0  T
   7   -206.0783196 -0.167860E-04  0.372E-03    0.49       2.6  T
   8   -206.0783215 -0.188993E-05  0.121E-03    0.49       8.0  T
   9   -206.0783216 -0.115594E-06  0.636E-04    0.49      15.1  T
     SCC iter.                  ...        0 min,  0.135 sec
     gradient                   ...        0 min,  0.023 sec
 * total energy  :  -202.9076166 Eh     change       -0.1020257E-02 Eh
   gradient norm :     0.0302082 Eh/α   predicted    -0.1279630E-02 (  25.42%)
   displ. norm   :     0.5005678 α      lambda       -0.2656711E-02
   maximum displ.:     0.1756874 α      in ANC's #27, #16, #18, ...

........................................................................
.............................. CYCLE   15 ..............................
........................................................................
   1   -206.0732526 -0.206073E+03  0.211E-01    0.47       0.0  T
   2   -206.0731624  0.901642E-04  0.115E-01    0.47       1.0  T
   3   -206.0668705  0.629190E-02  0.179E-01    0.50       1.0  T
   4   -206.0732599 -0.638932E-02  0.258E-02    0.47       1.0  T
   5   -206.0732812 -0.213709E-04  0.209E-02    0.47       1.0  T
   6   -206.0733279 -0.466537E-04  0.125E-02    0.47       1.0  T
   7   -206.0733479 -0.200246E-04  0.394E-03    0.47       2.4  T
   8   -206.0733500 -0.207436E-05  0.143E-03    0.47       6.7  T
   9   -206.0733501 -0.159901E-06  0.806E-04    0.47      11.9  T
     SCC iter.                  ...        0 min,  0.127 sec
     gradient                   ...        0 min,  0.023 sec
 * total energy  :  -202.9080334 Eh     change       -0.4168014E-03 Eh
   gradient norm :     0.0370486 Eh/α   predicted    -0.1661200E-02 ( 298.56%)
   displ. norm   :     0.2555022 α      lambda       -0.2122434E-02
   maximum displ.:     0.0751303 α      in ANC's #8, #18, #6, ...

........................................................................
.............................. CYCLE   16 ..............................
........................................................................
   1   -206.0898615 -0.206090E+03  0.886E-02    0.49       0.0  T
   2   -206.0897326  0.128899E-03  0.527E-02    0.49       1.0  T
   3   -206.0874556  0.227694E-02  0.112E-01    0.48       1.0  T
   4   -206.0898587 -0.240302E-02  0.178E-02    0.49       1.0  T
   5   -206.0898939 -0.352233E-04  0.963E-03    0.49       1.0  T
   6   -206.0898992 -0.535339E-05  0.717E-03    0.49       1.3  T
   7   -206.0899047 -0.543822E-05  0.333E-03    0.49       2.9  T
   8   -206.0899061 -0.138392E-05  0.986E-04    0.49       9.8  T
     SCC iter.                  ...        0 min,  0.112 sec
     gradient                   ...        0 min,  0.023 sec
 * total energy  :  -202.9091305 Eh     change       -0.1097103E-02 Eh
   gradient norm :     0.0275053 Eh/α   predicted    -0.1130494E-02 (   3.04%)
   displ. norm   :     0.4750598 α      lambda       -0.2253472E-02
   maximum displ.:     0.1869800 α      in ANC's #15, #11, #18, ...

........................................................................
.............................. CYCLE   17 ..............................
........................................................................
   1   -206.0710167 -0.206071E+03  0.211E-01    0.48       0.0  T
   2   -206.0708366  0.180079E-03  0.117E-01    0.48       1.0  T
   3   -206.0622955  0.854106E-02  0.208E-01    0.53       1.0  T
   4   -206.0711131 -0.881760E-02  0.235E-02    0.49       1.0  T
   5   -206.0711402 -0.270730E-04  0.163E-02    0.49       1.0  T
   6   -206.0711520 -0.118223E-04  0.116E-02    0.49       1.0  T
   7   -206.0711659 -0.139074E-04  0.512E-03    0.49       1.9  T
   8   -206.0711699 -0.398232E-05  0.167E-03    0.49       5.8  T
   9   -206.0711702 -0.287710E-06  0.912E-04    0.49      10.6  T
     SCC iter.                  ...        0 min,  0.132 sec
     gradient                   ...        0 min,  0.024 sec
 * total energy  :  -202.9090073 Eh     change        0.1232079E-03 Eh
   gradient norm :     0.0526810 Eh/α   predicted    -0.1381018E-02 (*******%)
   displ. norm   :     0.2264625 α      lambda       -0.2653210E-02
   maximum displ.:     0.0728193 α      in ANC's #16, #18, #8, ...

........................................................................
.............................. CYCLE   18 ..............................
........................................................................
   1   -206.0810247 -0.206081E+03  0.928E-02    0.49       0.0  T
   2   -206.0809808  0.439508E-04  0.537E-02    0.49       1.0  T
   3   -206.0789604  0.202034E-02  0.103E-01    0.47       1.0  T
   4   -206.0810179 -0.205743E-02  0.184E-02    0.49       1.0  T
   5   -206.0810602 -0.423422E-04  0.944E-03    0.49       1.0  T
   6   -206.0810680 -0.783803E-05  0.589E-03    0.49       1.6  T
   7   -206.0810707 -0.263382E-05  0.328E-03    0.49       2.9  T
   8   -206.0810721 -0.146235E-05  0.106E-03    0.49       9.0  T
     SCC iter.                  ...        0 min,  0.113 sec
     gradient                   ...        0 min,  0.023 sec
 * total energy  :  -202.9104676 Eh     change       -0.1460311E-02 Eh
   gradient norm :     0.0202047 Eh/α   predicted    -0.1394638E-02 (  -4.50%)
   displ. norm   :     0.3960426 α      lambda       -0.1332069E-02
   maximum displ.:     0.1305286 α      in ANC's #8, #18, #6, ...

........................................................................
.............................. CYCLE   19 ..............................
........................................................................
   1   -206.0950659 -0.206095E+03  0.137E-01    0.48       0.0  T
   2   -206.0950918 -0.258958E-04  0.732E-02    0.49       1.0  T
   3   -206.0948371  0.254716E-03  0.399E-02    0.49       1.0  T
   4   -206.0949802 -0.143116E-03  0.273E-02    0.49       1.0  T
   5   -206.0950868 -0.106623E-03  0.129E-02    0.49       1.0  T
   6   -206.0950954 -0.858443E-05  0.946E-03    0.49       1.0  T
   7   -206.0951097 -0.143040E-04  0.257E-03    0.49       3.7  T
   8   -206.0951106 -0.854306E-06  0.926E-04    0.49      10.4  T
   9   -206.0951106 -0.599658E-07  0.498E-04    0.49      19.3  T
     SCC iter.                  ...        0 min,  0.128 sec
     gradient                   ...        0 min,  0.023 sec
 * total energy  :  -202.9107716 Eh     change       -0.3040386E-03 Eh
   gradient norm :     0.0320404 Eh/α   predicted    -0.7705025E-03 ( 153.42%)
   displ. norm   :     0.4483585 α      lambda       -0.1451827E-02
   maximum displ.:     0.1504657 α      in ANC's #8, #6, #15, ...

........................................................................
.............................. CYCLE   20 ..............................
........................................................................
   1   -206.0884743 -0.206088E+03  0.157E-01    0.48       0.0  T
   2   -206.0884815 -0.720246E-05  0.817E-02    0.49       1.0  T
   3   -206.0873521  0.112931E-02  0.788E-02    0.50       1.0  T
   4   -206.0884566 -0.110448E-02  0.216E-02    0.49       1.0  T
   5   -206.0884868 -0.301412E-04  0.160E-02    0.49       1.0  T
   6   -206.0885067 -0.199008E-04  0.946E-03    0.49       1.0  T
   7   -206.0885214 -0.147375E-04  0.211E-03    0.49       4.6  T
   8   -206.0885219 -0.526068E-06  0.949E-04    0.49      10.1  T
   9   -206.0885220 -0.568444E-07  0.517E-04    0.49      18.6  T
     SCC iter.                  ...        0 min,  0.126 sec
     gradient                   ...        0 min,  0.023 sec
 * total energy  :  -202.9117542 Eh     change       -0.9825664E-03 Eh
   gradient norm :     0.0224564 Eh/α   predicted    -0.8718421E-03 ( -11.27%)
   displ. norm   :     0.5224391 α      lambda       -0.1733750E-02
   maximum displ.:     0.2001870 α      in ANC's #11, #8, #6, ...
 * RMSD in coord.:     0.6845442 α      energy gain  -0.6884974E-01 Eh

generating ANC from model Hessian ...
Using Lindh-Hessian (1995)
 Shifting diagonal of input Hessian by   4.994475504682315E-003
 Lowest  eigenvalues of input Hessian
   -0.000000   -0.000000   -0.000000    0.000000    0.000000    0.000000
    0.005000    0.005013    0.005021    0.005026    0.005041    0.005048
    0.005102    0.005161    0.005230    0.005323    0.005495    0.005546
 Highest eigenvalues
    2.274273    2.276569    2.558357    2.599260    2.624830    2.635416
 

........................................................................
.............................. CYCLE   21 ..............................
........................................................................
   1   -206.0813066 -0.206081E+03  0.194E-01    0.47       0.0  T
   2   -206.0813582 -0.515640E-04  0.104E-01    0.47       1.0  T
   3   -206.0808981  0.460051E-03  0.579E-02    0.47       1.0  T
   4   -206.0813039 -0.405761E-03  0.259E-02    0.47       1.0  T
   5   -206.0813622 -0.582746E-04  0.160E-02    0.47       1.0  T
   6   -206.0813715 -0.931959E-05  0.120E-02    0.47       1.0  T
   7   -206.0813943 -0.228233E-04  0.486E-03    0.47       2.0  T
   8   -206.0813985 -0.424278E-05  0.134E-03    0.47       7.2  T
   9   -206.0813987 -0.174739E-06  0.757E-04    0.47      12.7  T
  10   -206.0813988 -0.424955E-07  0.337E-04    0.47      28.6  T
     SCC iter.                  ...        0 min,  0.144 sec
     gradient                   ...        0 min,  0.024 sec
 * total energy  :  -202.9119992 Eh     change       -0.2449661E-03 Eh
   gradient norm :     0.0475248 Eh/α   predicted     0.0000000E+00 (-100.00%)
   displ. norm   :     0.2504847 α      lambda       -0.2227057E-02
   maximum displ.:     0.0948122 α      in ANC's #39, #7, #32, ...

........................................................................
.............................. CYCLE   22 ..............................
........................................................................
   1   -206.0917176 -0.206092E+03  0.131E-01    0.47       0.0  T
   2   -206.0917402 -0.226340E-04  0.697E-02    0.48       1.0  T
   3   -206.0914749  0.265346E-03  0.408E-02    0.48       1.0  T
   4   -206.0917016 -0.226720E-03  0.189E-02    0.48       1.0  T
   5   -206.0917261 -0.244603E-04  0.134E-02    0.48       1.0  T
   6   -206.0917431 -0.170812E-04  0.905E-03    0.48       1.1  T
   7   -206.0917573 -0.141362E-04  0.217E-03    0.48       4.4  T
   8   -206.0917578 -0.485848E-06  0.902E-04    0.48      10.7  T
   9   -206.0917578 -0.810698E-07  0.480E-04    0.48      20.0  T
     SCC iter.                  ...        0 min,  0.126 sec
     gradient                   ...        0 min,  0.023 sec
 * total energy  :  -202.9132250 Eh     change       -0.1225780E-02 Eh
   gradient norm :     0.0096270 Eh/α   predicted    -0.1183399E-02 (  -3.46%)
   displ. norm   :     0.3123905 α      lambda       -0.1191413E-02
   maximum displ.:     0.1513861 α      in ANC's #39, #32, #7, ...

........................................................................
.............................. CYCLE   23 ..............................
........................................................................
   1   -206.0928390 -0.206093E+03  0.183E-01    0.48       0.0  T
   2   -206.0928551 -0.161278E-04  0.101E-01    0.48       1.0  T
   3   -206.0910543  0.180085E-02  0.953E-02    0.50       1.0  T
   4   -206.0928427 -0.178840E-02  0.216E-02    0.48       1.0  T
   5   -206.0929041 -0.614731E-04  0.101E-02    0.49       1.0  T
   6   -206.0929121 -0.797484E-05  0.355E-03    0.49       2.7  T
   7   -206.0929133 -0.116380E-05  0.183E-03    0.49       5.3  T
   8   -206.0929135 -0.175402E-06  0.125E-03    0.49       7.7  T
     SCC iter.                  ...        0 min,  0.112 sec
     gradient                   ...        0 min,  0.023 sec
 * total energy  :  -202.9133503 Eh     change       -0.1253076E-03 Eh
   gradient norm :     0.0312956 Eh/α   predicted    -0.6538450E-03 ( 421.79%)
   displ. norm   :     0.2859856 α      lambda       -0.1571188E-02
   maximum displ.:     0.1372709 α      in ANC's #39, #30, #7, ...

........................................................................
.............................. CYCLE   24 ..............................
........................................................................
   1   -206.0915663 -0.206092E+03  0.146E-01    0.48       0.0  T
   2   -206.0915925 -0.261114E-04  0.802E-02    0.49       1.0  T
   3   -206.0914858  0.106650E-03  0.302E-02    0.49       1.0  T
   4   -206.0915749 -0.891038E-04  0.160E-02    0.49       1.0  T
   5   -206.0915873 -0.124022E-04  0.116E-02    0.49       1.0  T
   6   -206.0915948 -0.744241E-05  0.823E-03    0.49       1.2  T
   7   -206.0916082 -0.134782E-04  0.275E-03    0.49       3.5  T
   8   -206.0916092 -0.980217E-06  0.101E-03    0.49       9.6  T
   9   -206.0916093 -0.710915E-07  0.507E-04    0.49      19.0  T
     SCC iter.                  ...        0 min,  0.133 sec
     gradient                   ...        0 min,  0.023 sec
 * total energy  :  -202.9142565 Eh     change       -0.9062156E-03 Eh
   gradient norm :     0.0214052 Eh/α   predicted    -0.8498467E-03 (  -6.22%)
   displ. norm   :     0.3742301 α      lambda       -0.1683000E-02
   maximum displ.:     0.1507715 α      in ANC's #39, #7, #46, ...

........................................................................
.............................. CYCLE   25 ..............................
........................................................................
   1   -206.0815123 -0.206082E+03  0.195E-01    0.48       0.0  T
   2   -206.0815493 -0.369850E-04  0.108E-01    0.49       1.0  T
   3   -206.0808433  0.706033E-03  0.697E-02    0.48       1.0  T
   4   -206.0814425 -0.599264E-03  0.294E-02    0.49       1.0  T
   5   -206.0815639 -0.121359E-03  0.150E-02    0.49       1.0  T
   6   -206.0815660 -0.207740E-05  0.137E-02    0.49       1.0  T
   7   -206.0815984 -0.323835E-04  0.240E-03    0.49       4.0  T
   8   -206.0815988 -0.475633E-06  0.119E-03    0.49       8.1  T
   9   -206.0815989 -0.815431E-07  0.649E-04    0.49      14.8  T
     SCC iter.                  ...        0 min,  0.127 sec
     gradient                   ...        0 min,  0.023 sec
 * total energy  :  -202.9145506 Eh     change       -0.2941585E-03 Eh
   gradient norm :     0.0334825 Eh/α   predicted    -0.9593510E-03 ( 226.13%)
   displ. norm   :     0.2461307 α      lambda       -0.1494124E-02
   maximum displ.:     0.0870070 α      in ANC's #39, #7, #46, ...

........................................................................
.............................. CYCLE   26 ..............................
........................................................................
   1   -206.0876749 -0.206088E+03  0.132E-01    0.49       0.0  T
   2   -206.0876954 -0.205439E-04  0.717E-02    0.49       1.0  T
   3   -206.0875888  0.106619E-03  0.307E-02    0.49       1.0  T
   4   -206.0876756 -0.867688E-04  0.146E-02    0.49       1.0  T
   5   -206.0876912 -0.156134E-04  0.105E-02    0.49       1.0  T
   6   -206.0877034 -0.122083E-04  0.619E-03    0.49       1.6  T
   7   -206.0877098 -0.641043E-05  0.215E-03    0.49       4.5  T
   8   -206.0877105 -0.651874E-06  0.749E-04    0.49      12.9  T
   9   -206.0877105 -0.379782E-07  0.413E-04    0.49      23.3  T
     SCC iter.                  ...        0 min,  0.128 sec
     gradient                   ...        0 min,  0.023 sec
 * total energy  :  -202.9155353 Eh     change       -0.9846497E-03 Eh
   gradient norm :     0.0165894 Eh/α   predicted    -0.7923246E-03 ( -19.53%)
   displ. norm   :     0.4011059 α      lambda       -0.1310867E-02
   maximum displ.:     0.1675592 α      in ANC's #7, #8, #29, ...

........................................................................
.............................. CYCLE   27 ..............................
........................................................................
   1   -206.0888487 -0.206089E+03  0.173E-01    0.48       0.0  T
   2   -206.0888681 -0.193317E-04  0.932E-02    0.49       1.0  T
   3   -206.0874842  0.138391E-02  0.849E-02    0.48       1.0  T
   4   -206.0888230 -0.133887E-02  0.228E-02    0.49       1.0  T
   5   -206.0888866 -0.635796E-04  0.140E-02    0.49       1.0  T
   6   -206.0889017 -0.150980E-04  0.851E-03    0.49       1.1  T
   7   -206.0889119 -0.101905E-04  0.277E-03    0.49       3.5  T
   8   -206.0889129 -0.102691E-05  0.931E-04    0.49      10.3  T
   9   -206.0889130 -0.580428E-07  0.547E-04    0.49      17.6  T
     SCC iter.                  ...        0 min,  0.135 sec
     gradient                   ...        0 min,  0.023 sec
 * total energy  :  -202.9160263 Eh     change       -0.4910260E-03 Eh
   gradient norm :     0.0156390 Eh/α   predicted    -0.7608849E-03 (  54.96%)
   displ. norm   :     0.5134935 α      lambda       -0.1953907E-02
   maximum displ.:     0.2076534 α      in ANC's #7, #8, #39, ...

........................................................................
.............................. CYCLE   28 ..............................
........................................................................
   1   -206.0941231 -0.206094E+03  0.206E-01    0.48       0.0  T
   2   -206.0941543 -0.311891E-04  0.111E-01    0.49       1.0  T
   3   -206.0929761  0.117818E-02  0.858E-02    0.49       1.0  T
   4   -206.0940967 -0.112057E-02  0.275E-02    0.49       1.0  T
   5   -206.0941302 -0.334737E-04  0.222E-02    0.50       1.0  T
   6   -206.0941818 -0.515773E-04  0.130E-02    0.49       1.0  T
   7   -206.0942126 -0.307836E-04  0.321E-03    0.49       3.0  T
   8   -206.0942140 -0.139876E-05  0.117E-03    0.49       8.3  T
   9   -206.0942140 -0.744311E-07  0.668E-04    0.49      14.4  T
     SCC iter.                  ...        0 min,  0.128 sec
     gradient                   ...        0 min,  0.023 sec
 * total energy  :  -202.9171052 Eh     change       -0.1078853E-02 Eh
   gradient norm :     0.0133606 Eh/α   predicted    -0.1234552E-02 (  14.43%)
   displ. norm   :     0.6263278 α      lambda       -0.1873690E-02
   maximum displ.:     0.2916375 α      in ANC's #39, #7, #8, ...

........................................................................
.............................. CYCLE   29 ..............................
........................................................................
   1   -206.0890704 -0.206089E+03  0.233E-01    0.48       0.0  T
   2   -206.0891398 -0.693544E-04  0.129E-01    0.50       1.0  T
   3   -206.0874698  0.167003E-02  0.107E-01    0.48       1.0  T
   4   -206.0890536 -0.158385E-02  0.357E-02    0.50       1.0  T
   5   -206.0891245 -0.708744E-04  0.250E-02    0.49       1.0  T
   6   -206.0891664 -0.418714E-04  0.197E-02    0.50       1.0  T
   7   -206.0892338 -0.674886E-04  0.614E-03    0.49       1.6  T
   8   -206.0892393 -0.544882E-05  0.166E-03    0.49       5.8  T
   9   -206.0892395 -0.245138E-06  0.919E-04    0.49      10.5  T
  10   -206.0892396 -0.463389E-07  0.317E-04    0.49      30.4  T
     SCC iter.                  ...        0 min,  0.140 sec
     gradient                   ...        0 min,  0.023 sec
 * total energy  :  -202.9174954 Eh     change       -0.3902645E-03 Eh
   gradient norm :     0.0306242 Eh/α   predicted    -0.1304357E-02 ( 234.22%)
   displ. norm   :     0.2526828 α      lambda       -0.1939508E-02
   maximum displ.:     0.1066063 α      in ANC's #7, #8, #12, ...

........................................................................
.............................. CYCLE   30 ..............................
........................................................................
   1   -206.0976528 -0.206098E+03  0.786E-02    0.49       0.0  T
   2   -206.0976900 -0.371742E-04  0.434E-02    0.49       1.0  T
   3   -206.0975132  0.176722E-03  0.362E-02    0.49       1.0  T
   4   -206.0976259 -0.112718E-03  0.230E-02    0.49       1.0  T
   5   -206.0977046 -0.786855E-04  0.496E-03    0.49       1.9  T
   6   -206.0976988  0.582617E-05  0.642E-03    0.49       1.5  T
   7   -206.0977035 -0.472975E-05  0.375E-03    0.49       2.6  T
   8   -206.0977065 -0.298944E-05  0.505E-04    0.49      19.0  T
     SCC iter.                  ...        0 min,  0.111 sec
     gradient                   ...        0 min,  0.023 sec
 * total energy  :  -202.9186317 Eh     change       -0.1136279E-02 Eh
   gradient norm :     0.0140588 Eh/α   predicted    -0.1031671E-02 (  -9.21%)
   displ. norm   :     0.5901626 α      lambda       -0.2197349E-02
   maximum displ.:     0.2492201 α      in ANC's #7, #8, #3, ...

........................................................................
.............................. CYCLE   31 ..............................
........................................................................
   1   -206.0882666 -0.206088E+03  0.271E-01    0.48       0.0  T
   2   -206.0882346  0.319694E-04  0.149E-01    0.49       1.0  T
   3   -206.0825556  0.567904E-02  0.171E-01    0.50       1.0  T
   4   -206.0881538 -0.559816E-02  0.395E-02    0.48       1.0  T
   5   -206.0883560 -0.202220E-03  0.222E-02    0.49       1.0  T
   6   -206.0883990 -0.430355E-04  0.145E-02    0.49       1.0  T
   7   -206.0884309 -0.318734E-04  0.304E-03    0.49       3.2  T
   8   -206.0884317 -0.789302E-06  0.147E-03    0.49       6.6  T
   9   -206.0884317 -0.723351E-07  0.860E-04    0.49      11.2  T
     SCC iter.                  ...        0 min,  0.125 sec
     gradient                   ...        0 min,  0.023 sec
 * total energy  :  -202.9188039 Eh     change       -0.1721575E-03 Eh
   gradient norm :     0.0305755 Eh/α   predicted    -0.1481332E-02 ( 760.45%)
   displ. norm   :     0.3632137 α      lambda       -0.2423317E-02
   maximum displ.:     0.1615655 α      in ANC's #7, #8, #12, ...

........................................................................
.............................. CYCLE   32 ..............................
........................................................................
   1   -206.0972880 -0.206097E+03  0.152E-01    0.48       0.0  T
   2   -206.0972764  0.116256E-04  0.845E-02    0.49       1.0  T
   3   -206.0953302  0.194611E-02  0.104E-01    0.47       1.0  T
   4   -206.0972203 -0.189009E-02  0.247E-02    0.48       1.0  T
   5   -206.0973098 -0.894959E-04  0.140E-02    0.48       1.0  T
   6   -206.0973338 -0.239296E-04  0.767E-03    0.48       1.3  T
   7   -206.0973418 -0.804387E-05  0.192E-03    0.48       5.0  T
   8   -206.0973422 -0.388113E-06  0.910E-04    0.48      10.6  T
   9   -206.0973423 -0.653785E-07  0.479E-04    0.48      20.1  T
     SCC iter.                  ...        0 min,  0.124 sec
     gradient                   ...        0 min,  0.023 sec
 * total energy  :  -202.9203814 Eh     change       -0.1577541E-02 Eh
   gradient norm :     0.0095913 Eh/α   predicted    -0.1371509E-02 ( -13.06%)
   displ. norm   :     0.6929442 α      lambda       -0.1334800E-02
   maximum displ.:     0.3286887 α      in ANC's #7, #8, #3, ...

........................................................................
.............................. CYCLE   33 ..............................
........................................................................
   1   -206.0937957 -0.206094E+03  0.192E-01    0.47       0.0  T
   2   -206.0937536  0.420630E-04  0.104E-01    0.48       1.0  T
   3   -206.0911741  0.257948E-02  0.130E-01    0.46       1.0  T
   4   -206.0938288 -0.265469E-02  0.223E-02    0.47       1.0  T
   5   -206.0937498  0.790046E-04  0.256E-02    0.47       1.0  T
   6   -206.0938334 -0.836337E-04  0.167E-02    0.48       1.0  T
   7   -206.0938855 -0.520572E-04  0.311E-03    0.47       3.1  T
   8   -206.0938868 -0.134548E-05  0.112E-03    0.47       8.6  T
   9   -206.0938869 -0.978536E-07  0.628E-04    0.47      15.3  T
     SCC iter.                  ...        0 min,  0.124 sec
     gradient                   ...        0 min,  0.023 sec
 * total energy  :  -202.9215263 Eh     change       -0.1144917E-02 Eh
   gradient norm :     0.0086408 Eh/α   predicted    -0.9878696E-03 ( -13.72%)
   displ. norm   :     0.7754968 α      lambda       -0.1369600E-02
   maximum displ.:     0.3824478 α      in ANC's #7, #8, #12, ...

........................................................................
.............................. CYCLE   34 ..............................
........................................................................
   1   -206.0966071 -0.206097E+03  0.193E-01    0.45       0.0  T
   2   -206.0965155  0.915144E-04  0.105E-01    0.47       1.0  T
   3   -206.0929236  0.359190E-02  0.149E-01    0.45       1.0  T
   4   -206.0966552 -0.373157E-02  0.215E-02    0.46       1.0  T
   5   -206.0965135  0.141744E-03  0.295E-02    0.46       1.0  T
   6   -206.0966658 -0.152362E-03  0.144E-02    0.46       1.0  T
   7   -206.0967019 -0.361000E-04  0.324E-03    0.46       3.0  T
   8   -206.0967034 -0.150951E-05  0.112E-03    0.46       8.6  T
   9   -206.0967035 -0.796101E-07  0.679E-04    0.46      14.2  T
     SCC iter.                  ...        0 min,  0.126 sec
     gradient                   ...        0 min,  0.023 sec
 * total energy  :  -202.9227387 Eh     change       -0.1212372E-02 Eh
   gradient norm :     0.0111305 Eh/α   predicted    -0.1096636E-02 (  -9.55%)
   displ. norm   :     0.8276706 α      lambda       -0.1429207E-02
   maximum displ.:     0.4133569 α      in ANC's #7, #8, #3, ...

........................................................................
.............................. CYCLE   35 ..............................
........................................................................
   1   -206.0947988 -0.206095E+03  0.213E-01    0.44       0.0  T
   2   -206.0947297  0.690666E-04  0.113E-01    0.45       1.0  T
   3   -206.0911960  0.353367E-02  0.149E-01    0.43       1.0  T
   4   -206.0948243 -0.362827E-02  0.254E-02    0.45       1.0  T
   5   -206.0946928  0.131535E-03  0.316E-02    0.45       1.0  T
   6   -206.0948546 -0.161801E-03  0.167E-02    0.45       1.0  T
   7   -206.0949065 -0.519505E-04  0.330E-03    0.45       2.9  T
   8   -206.0949081 -0.155392E-05  0.116E-03    0.45       8.3  T
   9   -206.0949082 -0.861498E-07  0.654E-04    0.45      14.7  T
     SCC iter.                  ...        0 min,  0.128 sec
     gradient                   ...        0 min,  0.024 sec
 * total energy  :  -202.9239694 Eh     change       -0.1230670E-02 Eh
   gradient norm :     0.0110386 Eh/α   predicted    -0.1204136E-02 (  -2.16%)
   displ. norm   :     0.7740900 α      lambda       -0.1596636E-02
   maximum displ.:     0.3936445 α      in ANC's #7, #8, #12, ...

........................................................................
.............................. CYCLE   36 ..............................
........................................................................
   1   -206.1046685 -0.206105E+03  0.198E-01    0.44       0.0  T
   2   -206.1046956 -0.270698E-04  0.102E-01    0.44       1.0  T
   3   -206.1037411  0.954459E-03  0.746E-02    0.43       1.0  T
   4   -206.1046395 -0.898402E-03  0.269E-02    0.44       1.0  T
   5   -206.1045943  0.452414E-04  0.257E-02    0.44       1.0  T
   6   -206.1047080 -0.113731E-03  0.130E-02    0.44       1.0  T
   7   -206.1047387 -0.306829E-04  0.299E-03    0.44       3.2  T
   8   -206.1047399 -0.120198E-05  0.114E-03    0.44       8.4  T
   9   -206.1047400 -0.577602E-07  0.725E-04    0.44      13.3  T
     SCC iter.                  ...        0 min,  0.130 sec
     gradient                   ...        0 min,  0.023 sec
 * total energy  :  -202.9249479 Eh     change       -0.9785173E-03 Eh
   gradient norm :     0.0166524 Eh/α   predicted    -0.1276680E-02 (  30.47%)
   displ. norm   :     0.7747166 α      lambda       -0.1557667E-02
   maximum displ.:     0.3876475 α      in ANC's #7, #8, #3, ...

........................................................................
.............................. CYCLE   37 ..............................
........................................................................
   1   -206.0975773 -0.206098E+03  0.191E-01    0.42       0.0  T
   2   -206.0974840  0.932614E-04  0.105E-01    0.43       1.0  T
   3   -206.0926644  0.481967E-02  0.166E-01    0.41       1.0  T
   4   -206.0974199 -0.475552E-02  0.373E-02    0.43       1.0  T
   5   -206.0974341 -0.142147E-04  0.345E-02    0.42       1.0  T
   6   -206.0976777 -0.243621E-03  0.112E-02    0.42       1.0  T
   7   -206.0976913 -0.135673E-04  0.465E-03    0.42       2.1  T
   8   -206.0976945 -0.324971E-05  0.136E-03    0.42       7.1  T
   9   -206.0976947 -0.165738E-06  0.675E-04    0.42      14.3  T
  10   -206.0976947 -0.136136E-07  0.312E-04    0.42      30.8  T
     SCC iter.                  ...        0 min,  0.142 sec
     gradient                   ...        0 min,  0.023 sec
 * total energy  :  -202.9259013 Eh     change       -0.9534231E-03 Eh
   gradient norm :     0.0139623 Eh/α   predicted    -0.1246278E-02 (  30.72%)
   displ. norm   :     0.6366172 α      lambda       -0.1203435E-02
   maximum displ.:     0.3341469 α      in ANC's #7, #8, #3, ...

........................................................................
.............................. CYCLE   38 ..............................
........................................................................
   1   -206.0965099 -0.206097E+03  0.137E-01    0.41       0.0  T
   2   -206.0964324  0.774904E-04  0.747E-02    0.41       1.0  T
   3   -206.0939167  0.251567E-02  0.120E-01    0.41       1.0  T
   4   -206.0965300 -0.261324E-02  0.168E-02    0.41       1.0  T
   5   -206.0964239  0.106020E-03  0.249E-02    0.41       1.0  T
   6   -206.0965542 -0.130271E-03  0.883E-03    0.41       1.1  T
   7   -206.0965662 -0.119349E-04  0.299E-03    0.41       3.2  T
   8   -206.0965675 -0.130767E-05  0.921E-04    0.41      10.4  T
   9   -206.0965675 -0.804249E-07  0.508E-04    0.41      19.0  T
     SCC iter.                  ...        0 min,  0.128 sec
     gradient                   ...        0 min,  0.023 sec
 * total energy  :  -202.9267506 Eh     change       -0.8493266E-03 Eh
   gradient norm :     0.0129373 Eh/α   predicted    -0.8455864E-03 (  -0.44%)
   displ. norm   :     0.7083035 α      lambda       -0.1144179E-02
   maximum displ.:     0.3774541 α      in ANC's #7, #8, #3, ...

........................................................................
.............................. CYCLE   39 ..............................
........................................................................
   1   -206.0953760 -0.206095E+03  0.174E-01    0.41       0.0  T
   2   -206.0953509  0.250603E-04  0.903E-02    0.41       1.0  T
   3   -206.0917199  0.363097E-02  0.128E-01    0.40       1.0  T
   4   -206.0953229 -0.360294E-02  0.260E-02    0.41       1.0  T
   5   -206.0954105 -0.876275E-04  0.139E-02    0.41       1.0  T
   6   -206.0954294 -0.189245E-04  0.664E-03    0.41       1.4  T
   7   -206.0954353 -0.589692E-05  0.405E-03    0.41       2.4  T
   8   -206.0954383 -0.300311E-05  0.109E-03    0.41       8.8  T
   9   -206.0954384 -0.101097E-06  0.637E-04    0.41      15.1  T
  10   -206.0954385 -0.179066E-07  0.368E-04    0.41      26.1  T
     SCC iter.                  ...        0 min,  0.144 sec
     gradient                   ...        0 min,  0.023 sec
 * total energy  :  -202.9275587 Eh     change       -0.8081120E-03 Eh
   gradient norm :     0.0130832 Eh/α   predicted    -0.8591081E-03 (   6.31%)
   displ. norm   :     0.6605264 α      lambda       -0.1159226E-02
   maximum displ.:     0.3568081 α      in ANC's #7, #8, #3, ...

........................................................................
.............................. CYCLE   40 ..............................
........................................................................
   1   -206.1060931 -0.206106E+03  0.136E-01    0.40       0.0  T
   2   -206.1060384  0.546372E-04  0.748E-02    0.40       1.0  T
   3   -206.1029517  0.308675E-02  0.125E-01    0.40       1.0  T
   4   -206.1060236 -0.307186E-02  0.235E-02    0.40       1.0  T
   5   -206.1060204  0.316972E-05  0.230E-02    0.40       1.0  T
   6   -206.1061300 -0.109590E-03  0.648E-03    0.40       1.5  T
   7   -206.1061335 -0.348929E-05  0.192E-03    0.40       5.0  T
   8   -206.1061339 -0.443938E-06  0.113E-03    0.40       8.5  T
   9   -206.1061340 -0.112669E-06  0.653E-04    0.40      14.7  T
     SCC iter.                  ...        0 min,  0.130 sec
     gradient                   ...        0 min,  0.023 sec
 * total energy  :  -202.9284407 Eh     change       -0.8819825E-03 Eh
   gradient norm :     0.0101583 Eh/α   predicted    -0.8325023E-03 (  -5.61%)
   displ. norm   :     0.8093720 α      lambda       -0.1117116E-02
   maximum displ.:     0.4403431 α      in ANC's #7, #8, #6, ...

........................................................................
.............................. CYCLE   41 ..............................
........................................................................
   1   -206.1046263 -0.206105E+03  0.171E-01    0.39       0.0  T
   2   -206.1045495  0.768223E-04  0.923E-02    0.40       1.0  T
   3   -206.1000898  0.445965E-02  0.151E-01    0.39       1.0  T
   4   -206.1044927 -0.440282E-02  0.306E-02    0.40       1.0  T
   5   -206.1045273 -0.346184E-04  0.273E-02    0.39       1.0  T
   6   -206.1046850 -0.157765E-03  0.620E-03    0.39       1.6  T
   7   -206.1046887 -0.364546E-05  0.208E-03    0.39       4.6  T
   8   -206.1046892 -0.472558E-06  0.986E-04    0.39       9.8  T
   9   -206.1046892 -0.665495E-07  0.617E-04    0.39      15.6  T
     SCC iter.                  ...        0 min,  0.130 sec
     gradient                   ...        0 min,  0.023 sec
 * total energy  :  -202.9293791 Eh     change       -0.9383507E-03 Eh
   gradient norm :     0.0085784 Eh/α   predicted    -0.9244631E-03 (  -1.48%)
   displ. norm   :     0.7514418 α      lambda       -0.1062269E-02
   maximum displ.:     0.4078512 α      in ANC's #7, #8, #6, ...

........................................................................
.............................. CYCLE   42 ..............................
........................................................................
   1   -206.1088020 -0.206109E+03  0.162E-01    0.39       0.0  T
   2   -206.1087751  0.268416E-04  0.848E-02    0.39       1.0  T
   3   -206.1060406  0.273452E-02  0.117E-01    0.39       1.0  T
   4   -206.1087235 -0.268290E-02  0.256E-02    0.40       1.0  T
   5   -206.1087248 -0.130932E-05  0.239E-02    0.39       1.0  T
   6   -206.1088365 -0.111730E-03  0.842E-03    0.39       1.1  T
   7   -206.1088478 -0.112746E-04  0.208E-03    0.39       4.6  T
   8   -206.1088484 -0.629277E-06  0.977E-04    0.39       9.9  T
   9   -206.1088485 -0.865481E-07  0.574E-04    0.39      16.8  T
     SCC iter.                  ...        0 min,  0.132 sec
     gradient                   ...        0 min,  0.023 sec
 * total energy  :  -202.9302929 Eh     change       -0.9137793E-03 Eh
   gradient norm :     0.0106761 Eh/α   predicted    -0.8310480E-03 (  -9.05%)
   displ. norm   :     0.7948591 α      lambda       -0.1078634E-02
   maximum displ.:     0.4297385 α      in ANC's #7, #8, #6, ...
 * RMSD in coord.:     1.0757330 α      energy gain  -0.1853865E-01 Eh

generating ANC from model Hessian ...
Using Lindh-Hessian (1995)
 Shifting diagonal of input Hessian by   4.996099003125229E-003
 Lowest  eigenvalues of input Hessian
   -0.000000    0.000000    0.000000    0.000000    0.000000    0.000000
    0.005000    0.005006    0.005015    0.005027    0.005033    0.005047
    0.005123    0.005145    0.005190    0.005259    0.005497    0.005595
 Highest eigenvalues
    2.276173    2.277165    2.599579    2.600954    2.638039    2.652764
 

........................................................................
.............................. CYCLE   43 ..............................
........................................................................
   1   -206.1062377 -0.206106E+03  0.166E-01    0.39       0.0  T
   2   -206.1062398 -0.207326E-05  0.870E-02    0.39       1.0  T
   3   -206.1047984  0.144138E-02  0.849E-02    0.39       1.0  T
   4   -206.1061855 -0.138707E-02  0.236E-02    0.39       1.0  T
   5   -206.1061321  0.533518E-04  0.257E-02    0.39       1.0  T
   6   -206.1062631 -0.130955E-03  0.984E-03    0.39       1.0  T
   7   -206.1062810 -0.179701E-04  0.186E-03    0.39       5.2  T
   8   -206.1062815 -0.434318E-06  0.963E-04    0.39      10.0  T
   9   -206.1062815 -0.585042E-07  0.554E-04    0.39      17.4  T
     SCC iter.                  ...        0 min,  0.127 sec
     gradient                   ...        0 min,  0.024 sec
 * total energy  :  -202.9312292 Eh     change       -0.9363829E-03 Eh
   gradient norm :     0.0108231 Eh/α   predicted     0.0000000E+00 (-100.00%)
   displ. norm   :     0.2581223 α      lambda       -0.7021300E-03
   maximum displ.:     0.1597504 α      in ANC's #7, #41, #8, ...

........................................................................
.............................. CYCLE   44 ..............................
........................................................................
   1   -206.1080057 -0.206108E+03  0.683E-02    0.39       0.0  T
   2   -206.1080080 -0.235497E-05  0.380E-02    0.39       1.0  T
   3   -206.1077770  0.231017E-03  0.322E-02    0.39       1.0  T
   4   -206.1079952 -0.218217E-03  0.110E-02    0.39       1.0  T
   5   -206.1079792  0.159970E-04  0.134E-02    0.39       1.0  T
   6   -206.1080132 -0.339416E-04  0.475E-03    0.39       2.0  T
   7   -206.1080167 -0.349508E-05  0.135E-03    0.39       7.1  T
   8   -206.1080170 -0.302414E-06  0.484E-04    0.39      19.9  T
   9   -206.1080170 -0.260345E-07  0.252E-04    0.39      38.3  T
     SCC iter.                  ...        0 min,  0.132 sec
     gradient                   ...        0 min,  0.023 sec
 * total energy  :  -202.9318262 Eh     change       -0.5969527E-03 Eh
   gradient norm :     0.0053316 Eh/α   predicted    -0.3744556E-03 ( -37.27%)
   displ. norm   :     0.3914168 α      lambda       -0.9658796E-03
   maximum displ.:     0.1878787 α      in ANC's #7, #41, #39, ...

........................................................................
.............................. CYCLE   45 ..............................
........................................................................
   1   -206.1069916 -0.206107E+03  0.149E-01    0.38       0.0  T
   2   -206.1070147 -0.231159E-04  0.853E-02    0.38       1.0  T
   3   -206.1060244  0.990274E-03  0.699E-02    0.38       1.0  T
   4   -206.1068782 -0.853768E-03  0.289E-02    0.39       1.0  T
   5   -206.1070069 -0.128725E-03  0.146E-02    0.38       1.0  T
   6   -206.1070269 -0.200072E-04  0.104E-02    0.38       1.0  T
   7   -206.1070476 -0.206488E-04  0.294E-03    0.38       3.3  T
   8   -206.1070486 -0.104476E-05  0.109E-03    0.38       8.9  T
   9   -206.1070487 -0.848871E-07  0.683E-04    0.38      14.1  T
     SCC iter.                  ...        0 min,  0.131 sec
     gradient                   ...        0 min,  0.023 sec
 * total energy  :  -202.9320440 Eh     change       -0.2178087E-03 Eh
   gradient norm :     0.0148918 Eh/α   predicted    -0.5569292E-03 ( 155.70%)
   displ. norm   :     0.3207811 α      lambda       -0.1229719E-02
   maximum displ.:     0.1552038 α      in ANC's #7, #41, #8, ...

........................................................................
.............................. CYCLE   46 ..............................
........................................................................
   1   -206.1077871 -0.206108E+03  0.124E-01    0.38       0.0  T
   2   -206.1077618  0.253062E-04  0.709E-02    0.38       1.0  T
   3   -206.1054907  0.227102E-02  0.977E-02    0.39       1.0  T
   4   -206.1077351 -0.224433E-02  0.213E-02    0.38       1.0  T
   5   -206.1077852 -0.501500E-04  0.151E-02    0.38       1.0  T
   6   -206.1078263 -0.411210E-04  0.521E-03    0.38       1.8  T
   7   -206.1078284 -0.207469E-05  0.215E-03    0.38       4.5  T
   8   -206.1078289 -0.504321E-06  0.969E-04    0.38       9.9  T
     SCC iter.                  ...        0 min,  0.118 sec
     gradient                   ...        0 min,  0.023 sec
 * total energy  :  -202.9326783 Eh     change       -0.6342511E-03 Eh
   gradient norm :     0.0165206 Eh/α   predicted    -0.6781404E-03 (   6.92%)
   displ. norm   :     0.2090269 α      lambda       -0.6745202E-03
   maximum displ.:     0.1289397 α      in ANC's #7, #8, #11, ...

........................................................................
.............................. CYCLE   47 ..............................
........................................................................
   1   -206.1083217 -0.206108E+03  0.839E-02    0.38       0.0  T
   2   -206.1083307 -0.906065E-05  0.466E-02    0.38       1.0  T
   3   -206.1081265  0.204204E-03  0.329E-02    0.38       1.0  T
   4   -206.1082878 -0.161302E-03  0.157E-02    0.38       1.0  T
   5   -206.1083205 -0.326902E-04  0.896E-03    0.38       1.1  T
   6   -206.1083372 -0.167098E-04  0.355E-03    0.38       2.7  T
   7   -206.1083392 -0.193995E-05  0.163E-03    0.38       5.9  T
   8   -206.1083395 -0.353916E-06  0.657E-04    0.38      14.7  T
     SCC iter.                  ...        0 min,  0.117 sec
     gradient                   ...        0 min,  0.023 sec
 * total energy  :  -202.9329861 Eh     change       -0.3078411E-03 Eh
   gradient norm :     0.0100887 Eh/α   predicted    -0.3519971E-03 (  14.34%)
   displ. norm   :     0.3645504 α      lambda       -0.1089787E-02
   maximum displ.:     0.2240637 α      in ANC's #7, #8, #11, ...

........................................................................
.............................. CYCLE   48 ..............................
........................................................................
   1   -206.1100608 -0.206110E+03  0.120E-01    0.38       0.0  T
   2   -206.1100636 -0.276247E-05  0.667E-02    0.38       1.0  T
   3   -206.1090529  0.101071E-02  0.693E-02    0.38       1.0  T
   4   -206.1100706 -0.101768E-02  0.136E-02    0.38       1.0  T
   5   -206.1100870 -0.164462E-04  0.925E-03    0.38       1.0  T
   6   -206.1100868  0.204095E-06  0.867E-03    0.38       1.1  T
   7   -206.1101022 -0.154200E-04  0.274E-03    0.38       3.5  T
   8   -206.1101034 -0.117490E-05  0.777E-04    0.38      12.4  T
   9   -206.1101034 -0.485094E-07  0.429E-04    0.38      22.4  T
     SCC iter.                  ...        0 min,  0.134 sec
     gradient                   ...        0 min,  0.023 sec
 * total energy  :  -202.9334061 Eh     change       -0.4199689E-03 Eh
   gradient norm :     0.0124843 Eh/α   predicted    -0.6173083E-03 (  46.99%)
   displ. norm   :     0.4602690 α      lambda       -0.1096226E-02
   maximum displ.:     0.2532400 α      in ANC's #7, #41, #8, ...

........................................................................
.............................. CYCLE   49 ..............................
........................................................................
   1   -206.1094460 -0.206109E+03  0.124E-01    0.37       0.0  T
   2   -206.1094060  0.400256E-04  0.719E-02    0.37       1.0  T
   3   -206.1058002  0.360575E-02  0.129E-01    0.37       1.0  T
   4   -206.1093421 -0.354184E-02  0.255E-02    0.38       1.0  T
   5   -206.1094296 -0.875333E-04  0.166E-02    0.37       1.0  T
   6   -206.1094832 -0.535701E-04  0.591E-03    0.37       1.6  T
   7   -206.1094866 -0.342209E-05  0.250E-03    0.37       3.8  T
   8   -206.1094874 -0.831700E-06  0.945E-04    0.37      10.2  T
   9   -206.1094875 -0.839678E-07  0.594E-04    0.37      16.2  T
     SCC iter.                  ...        0 min,  0.132 sec
     gradient                   ...        0 min,  0.023 sec
 * total energy  :  -202.9342162 Eh     change       -0.8101223E-03 Eh
   gradient norm :     0.0068661 Eh/α   predicted    -0.6642330E-03 ( -18.01%)
   displ. norm   :     0.6454803 α      lambda       -0.1046410E-02
   maximum displ.:     0.3614021 α      in ANC's #7, #8, #41, ...

........................................................................
.............................. CYCLE   50 ..............................
........................................................................
   1   -206.1074539 -0.206107E+03  0.153E-01    0.37       0.0  T
   2   -206.1074639 -0.995812E-05  0.867E-02    0.37       1.0  T
   3   -206.1058806  0.158332E-02  0.883E-02    0.37       1.0  T
   4   -206.1073952 -0.151467E-02  0.259E-02    0.37       1.0  T
   5   -206.1072702  0.124983E-03  0.315E-02    0.37       1.0  T
   6   -206.1075077 -0.237440E-03  0.841E-03    0.37       1.1  T
   7   -206.1075164 -0.871898E-05  0.341E-03    0.37       2.8  T
   8   -206.1075182 -0.180843E-05  0.118E-03    0.37       8.1  T
   9   -206.1075184 -0.180251E-06  0.693E-04    0.37      13.9  T
     SCC iter.                  ...        0 min,  0.131 sec
     gradient                   ...        0 min,  0.023 sec
 * total energy  :  -202.9346662 Eh     change       -0.4499878E-03 Eh
   gradient norm :     0.0173102 Eh/α   predicted    -0.7411994E-03 (  64.72%)
   displ. norm   :     0.4281903 α      lambda       -0.1009087E-02
   maximum displ.:     0.2659577 α      in ANC's #7, #8, #3, ...

........................................................................
.............................. CYCLE   51 ..............................
........................................................................
   1   -206.1079342 -0.206108E+03  0.952E-02    0.37       0.0  T
   2   -206.1078744  0.598635E-04  0.542E-02    0.37       1.0  T
   3   -206.1047264  0.314794E-02  0.119E-01    0.36       1.0  T
   4   -206.1078310 -0.310455E-02  0.236E-02    0.37       1.0  T
   5   -206.1079288 -0.978126E-04  0.124E-02    0.37       1.0  T
   6   -206.1079594 -0.305857E-04  0.407E-03    0.37       2.4  T
   7   -206.1079607 -0.137345E-05  0.195E-03    0.37       4.9  T
   8   -206.1079613 -0.528361E-06  0.658E-04    0.37      14.6  T
     SCC iter.                  ...        0 min,  0.119 sec
     gradient                   ...        0 min,  0.023 sec
 * total energy  :  -202.9354664 Eh     change       -0.8001927E-03 Eh
   gradient norm :     0.0080756 Eh/α   predicted    -0.5970551E-03 ( -25.39%)
   displ. norm   :     0.6429142 α      lambda       -0.9767740E-03
   maximum displ.:     0.3997228 α      in ANC's #7, #8, #9, ...

........................................................................
.............................. CYCLE   52 ..............................
........................................................................
   1   -206.1098620 -0.206110E+03  0.126E-01    0.36       0.0  T
   2   -206.1097953  0.667136E-04  0.697E-02    0.36       1.0  T
   3   -206.1057848  0.401050E-02  0.135E-01    0.36       1.0  T
   4   -206.1096972 -0.391243E-02  0.296E-02    0.37       1.0  T
   5   -206.1098373 -0.140125E-03  0.173E-02    0.36       1.0  T
   6   -206.1098961 -0.587556E-04  0.557E-03    0.36       1.7  T
   7   -206.1098990 -0.295409E-05  0.246E-03    0.36       3.9  T
   8   -206.1099000 -0.100967E-05  0.866E-04    0.36      11.1  T
     SCC iter.                  ...        0 min,  0.121 sec
     gradient                   ...        0 min,  0.023 sec
 * total energy  :  -202.9362724 Eh     change       -0.8060431E-03 Eh
   gradient norm :     0.0074689 Eh/α   predicted    -0.6902563E-03 ( -14.36%)
   displ. norm   :     0.7805755 α      lambda       -0.9980923E-03
   maximum displ.:     0.4790449 α      in ANC's #7, #8, #9, ...

........................................................................
.............................. CYCLE   53 ..............................
........................................................................
   1   -206.1089559 -0.206109E+03  0.163E-01    0.36       0.0  T
   2   -206.1088560  0.998606E-04  0.905E-02    0.36       1.0  T
   3   -206.1030625  0.579350E-02  0.163E-01    0.36       1.0  T
   4   -206.1086510 -0.558847E-02  0.387E-02    0.36       1.0  T
   5   -206.1089421 -0.291082E-03  0.191E-02    0.36       1.0  T
   6   -206.1090041 -0.620527E-04  0.761E-03    0.36       1.3  T
   7   -206.1090119 -0.778389E-05  0.252E-03    0.36       3.8  T
   8   -206.1090130 -0.108049E-05  0.120E-03    0.36       8.0  T
   9   -206.1090131 -0.148789E-06  0.684E-04    0.36      14.1  T
     SCC iter.                  ...        0 min,  0.138 sec
     gradient                   ...        0 min,  0.023 sec
 * total energy  :  -202.9370630 Eh     change       -0.7905612E-03 Eh
   gradient norm :     0.0136885 Eh/α   predicted    -0.8031155E-03 (   1.59%)
   displ. norm   :     0.7639257 α      lambda       -0.1015782E-02
   maximum displ.:     0.4703377 α      in ANC's #7, #8, #9, ...

........................................................................
.............................. CYCLE   54 ..............................
........................................................................
   1   -206.1105310 -0.206111E+03  0.149E-01    0.35       0.0  T
   2   -206.1104661  0.649049E-04  0.819E-02    0.36       1.0  T
   3   -206.1056076  0.485850E-02  0.147E-01    0.35       1.0  T
   4   -206.1103260 -0.471840E-02  0.325E-02    0.36       1.0  T
   5   -206.1104911 -0.165122E-03  0.200E-02    0.35       1.0  T
   6   -206.1105671 -0.760122E-04  0.616E-03    0.36       1.6  T
   7   -206.1105719 -0.477862E-05  0.249E-03    0.36       3.9  T
   8   -206.1105732 -0.129891E-05  0.993E-04    0.36       9.7  T
   9   -206.1105733 -0.104548E-06  0.580E-04    0.36      16.6  T
     SCC iter.                  ...        0 min,  0.133 sec
     gradient                   ...        0 min,  0.023 sec
 * total energy  :  -202.9379505 Eh     change       -0.8874997E-03 Eh
   gradient norm :     0.0071593 Eh/α   predicted    -0.8042867E-03 (  -9.38%)
   displ. norm   :     0.7845696 α      lambda       -0.8860850E-03
   maximum displ.:     0.4916764 α      in ANC's #7, #8, #9, ...

........................................................................
.............................. CYCLE   55 ..............................
........................................................................
   1   -206.1125993 -0.206113E+03  0.149E-01    0.35       0.0  T
[...]
    40   9 F      0.791    -0.211    11.352     3.980
    41   9 F      0.791    -0.206    11.299     3.971
    42   9 F      0.791    -0.206    11.300     3.971
    43   6 C      3.809    -0.059    21.630     6.620
    44   6 C      3.811    -0.061    21.657     6.624
    45   6 C      2.974    -0.034    28.831     8.808
    46   6 C      2.899    -0.030    28.737     8.789
    47   6 C      2.937    -0.036    28.904     8.817
    48   6 C      2.985     0.036    27.178     8.552
    49   6 C      3.074    -0.038    28.857     8.808
    50   6 C      3.071    -0.039    28.886     8.812
    51   6 C      3.024     0.030    27.294     8.570
    52  16 S      2.338    -0.033   142.411    20.085
    53   6 C      3.027     0.024    27.430     8.591
    54   6 C      3.068    -0.035    28.800     8.800
    55   6 C      3.076    -0.037    28.827     8.803
    56   6 C      2.986     0.046    26.953     8.516
    57  16 S      2.334    -0.018   141.799    20.042
    58   6 C      2.931    -0.037    28.927     8.820
    59   6 C      2.903    -0.010    28.276     8.719
    60   6 C      3.013    -0.034    28.835     8.808
    61   6 C      3.015     0.029    27.328     8.575
    62   6 C      2.947    -0.002    28.069     8.689
    63   6 C      1.939     0.120    28.131     8.565
    64   7 N      0.911    -0.247    26.430     7.435
    65   6 C      1.939     0.121    28.120     8.564
    66   7 N      0.911    -0.252    26.555     7.453
    67   6 C      3.042     0.002    27.951     8.671
    68   6 C      3.039    -0.026    28.602     8.772
    69   6 C      2.873     0.222    23.330     7.918
    70   8 O      0.856    -0.375    21.191     6.172
    71   6 C      2.910    -0.021    28.521     8.757
    72   6 C      3.151     0.006    27.608     8.594
    73   6 C      3.010     0.034    27.226     8.559
    74   6 C      2.932    -0.037    28.925     8.820
    75  16 S      2.257    -0.013   141.595    20.028
    76   6 C      2.937    -0.011    28.289     8.723
    77   6 C      3.071    -0.047    29.081     8.842
    78   1 H      0.926     0.060     2.196     2.317
    79   1 H      0.926     0.060     2.198     2.319
    80   1 H      0.926     0.054     2.273     2.358
    81   1 H      0.926     0.050     2.326     2.385
    82   1 H      0.925     0.058     2.228     2.334
    83   1 H      0.926     0.090     1.879     2.144
    84   1 H      0.926     0.057     2.239     2.340
    85   1 H      0.926     0.049     2.333     2.389
    86   1 H      0.926     0.050     2.321     2.382
    87   1 H      0.926     0.050     2.320     2.382
    88   1 H      0.925     0.056     2.244     2.342
    89   1 H      0.925     0.055     2.264     2.353
    90   1 H      0.924     0.067     2.120     2.277
    91   1 H      0.924     0.065     2.142     2.289
    92   1 H      0.924     0.054     2.266     2.354
    93   1 H      0.924     0.060     2.202     2.321
    94   1 H      0.925     0.057     2.239     2.340
    95   1 H      0.924     0.063     2.169     2.303
    96   1 H      0.925     0.062     2.179     2.309
    97   1 H      0.926     0.053     2.284     2.363
    98   1 H      0.925     0.059     2.212     2.326
    99   1 H      0.926     0.054     2.275     2.359
   100   1 H      0.926     0.050     2.324     2.384
   101   1 H      0.926     0.050     2.315     2.379
   102   1 H      0.926     0.056     2.241     2.341
   103   1 H      0.926     0.055     2.257     2.349
   104   1 H      0.925     0.073     2.050     2.239
   105   1 H      0.926     0.061     2.187     2.312
   106   1 H      0.926     0.060     2.201     2.320
   107   1 H      0.926     0.054     2.270     2.356
   108   1 H      0.926     0.050     2.321     2.382

 Mol. C6AA /au·bohr⁶  :     237916.773599
 Mol. C8AA /au·bohr⁸  :    6948956.069858
 Mol. α(0) /au        :        785.300922


Wiberg/Mayer (AO) data.
largest (>0.10) Wiberg bond orders for each atom
          total WBO             WBO to atom ...
     1  C   3.961        C    2 1.444    C   18 1.178    C    7 1.085
     2  C   3.900        C    1 1.444    C    5 1.106    C    3 1.105
     3  C   3.943        N    4 2.750    C    2 1.105
     4  N   2.951        C    3 2.750
     5  C   3.944        N    6 2.743    C    2 1.106
     6  N   2.951        C    5 2.743
     7  C   3.980        C   12 1.438    C    8 1.244    C    1 1.085
     8  C   3.976        C    9 1.477    C    7 1.244    C   16 1.022
     9  C   3.979        C    8 1.477    C   10 1.315    H   78 0.963
    10  C   3.973        C    9 1.315    C   11 1.274    C   15 1.203
    11  C   3.950        C   12 1.369    C   10 1.274    S   13 1.127
    12  C   3.973        C    7 1.438    C   11 1.369    H   79 0.958
    13  S   2.564        C   14 1.163    C   11 1.127
    14  C   3.939        C   15 1.671    S   13 1.163    H   80 0.969
    15  C   3.980        C   14 1.671    C   10 1.203    H   81 0.962
    16  C   3.912        O   17 1.741    C   18 1.046    C    8 1.022
    17  O   2.005        C   16 1.741
    18  C   3.867        C   19 1.433    C    1 1.178    C   16 1.046
    19  C   3.945        C   18 1.433    C   20 1.379    H   82 0.942
    20  C   3.873        C   21 1.390    C   19 1.379    H   83 0.944
    21  C   3.922        C   20 1.390    C   22 1.270    S   25 1.107
    22  C   3.916        C   23 1.538    C   21 1.270    H   84 0.963
    23  C   3.943        C   22 1.538    C   24 1.283    H   85 0.962
    24  C   3.902        C   26 1.333    C   23 1.283    S   25 1.114
    25  S   2.530        C   24 1.114    C   21 1.107
    26  C   3.902        C   24 1.333    C   27 1.280    S   30 1.112
    27  C   3.947        C   28 1.543    C   26 1.280    H   86 0.962
    28  C   3.917        C   27 1.543    C   29 1.262    H   87 0.963
    29  C   3.923        C   31 1.407    C   28 1.262    S   30 1.101
    30  S   2.552        C   26 1.112    C   29 1.101
    31  C   3.890        C   29 1.407    C   32 1.343    H   88 0.946
    32  C   3.919        C   31 1.343    C   36 1.292    S   33 1.117
    33  S   2.543        C   32 1.117    C   34 1.095
    34  C   3.887        C   45 1.320    C   35 1.308    S   33 1.095
    35  C   3.933        C   36 1.417    C   34 1.308    C   44 1.016
    36  C   3.918        C   35 1.417    C   32 1.292    C   37 1.018
    37  C   3.991        C   36 1.018    C   38 0.976    H   89 0.970    H   90 0.952
    38  C   3.976        C   43 0.989    C   37 0.976    H   91 0.965    C   39 0.947
    39  C   3.822        F   41 0.950    F   42 0.948    C   38 0.947    F   40 0.944
    40  F   1.067        C   39 0.944
    41  F   1.073        C   39 0.950
    42  F   1.073        C   39 0.948
    43  C   3.988        C   44 0.992    C   38 0.989    H   92 0.979    H   93 0.973
    44  C   3.992        C   35 1.016    C   43 0.992    H   94 0.963    H   95 0.955
    45  C   3.881        C   46 1.457    C   34 1.320    H   96 0.957
    46  C   3.942        C   45 1.457    C   47 1.374    H   97 0.945
    47  C   3.883        C   48 1.394    C   46 1.374    H   98 0.954
    48  C   3.902        C   47 1.394    C   49 1.279    S   52 1.089
    49  C   3.923        C   50 1.532    C   48 1.279    H   99 0.962
    50  C   3.936        C   49 1.532    C   51 1.286    H  100 0.962
    51  C   3.910        C   53 1.332    C   50 1.286    S   52 1.118
    52  S   2.504        C   51 1.118    C   48 1.089
    53  C   3.899        C   51 1.332    C   54 1.285    S   57 1.111
    54  C   3.947        C   55 1.537    C   53 1.285    H  101 0.962
    55  C   3.915        C   54 1.537    C   56 1.271    H  102 0.962
    56  C   3.935        C   58 1.391    C   55 1.271    S   57 1.107
    57  S   2.526        C   53 1.111    C   56 1.107
    58  C   3.875        C   56 1.391    C   59 1.372    H  103 0.950
    59  C   3.946        C   60 1.439    C   58 1.372    H  104 0.946
    60  C   3.863        C   59 1.439    C   61 1.178    C   69 1.030
    61  C   3.962        C   62 1.442    C   60 1.178    C   67 1.079
    62  C   3.914        C   61 1.442    C   63 1.106    C   65 1.105
    63  C   3.944        N   64 2.753    C   62 1.106
    64  N   2.954        C   63 2.753
    65  C   3.944        N   66 2.751    C   62 1.105
    66  N   2.962        C   65 2.751
    67  C   3.978        C   74 1.441    C   68 1.242    C   61 1.079
    68  C   3.975        C   71 1.477    C   67 1.242    C   69 1.019
    69  C   3.919        O   70 1.757    C   60 1.030    C   68 1.019
    70  O   2.018        C   69 1.757
    71  C   3.980        C   68 1.477    C   72 1.316    H  105 0.963
    72  C   3.974        C   71 1.316    C   73 1.274    C   77 1.202
    73  C   3.950        C   74 1.367    C   72 1.274    S   75 1.128
    74  C   3.974        C   67 1.441    C   73 1.367    H  106 0.959
    75  S   2.567        C   76 1.162    C   73 1.128
    76  C   3.940        C   77 1.672    S   75 1.162    H  107 0.969
    77  C   3.980        C   76 1.672    C   72 1.202    H  108 0.962
    78  H   0.996        C    9 0.963
    79  H   0.996        C   12 0.958
    80  H   0.996        C   14 0.969
    81  H   0.997        C   15 0.962
    82  H   0.996        C   19 0.942
    83  H   0.991        C   20 0.944
    84  H   0.996        C   22 0.963
    85  H   0.997        C   23 0.962
    86  H   0.996        C   27 0.962
    87  H   0.997        C   28 0.963
    88  H   0.996        C   31 0.946
    89  H   0.996        C   37 0.970
    90  H   0.990        C   37 0.952
    91  H   0.996        C   38 0.965
    92  H   0.997        C   43 0.979
    93  H   0.995        C   43 0.973
    94  H   0.996        C   44 0.963
    95  H   0.993        C   44 0.955
    96  H   0.995        C   45 0.957
    97  H   0.997        C   46 0.945
    98  H   0.996        C   47 0.954
    99  H   0.996        C   49 0.962
   100  H   0.997        C   50 0.962
   101  H   0.997        C   54 0.962
   102  H   0.996        C   55 0.962
   103  H   0.996        C   58 0.950
   104  H   0.992        C   59 0.946
   105  H   0.996        C   71 0.963
   106  H   0.996        C   74 0.959
   107  H   0.996        C   76 0.969
   108  H   0.997        C   77 0.962

molecular dipole:
                 x           y           z       tot (Debye)
 q only:       -0.089       3.065      -1.207
   full:       -0.243       3.842      -1.226      10.269
molecular quadrupole (traceless):
                xx          xy          yy          xz          yz          zz
 q only:       69.451     -72.637    -105.390      12.344      92.477      35.938
  q+dip:      106.684    -106.371    -135.446      31.426     107.594      28.762
   full:      105.573    -103.950    -142.837      18.788     104.021      37.264

           -------------------------------------------------
          |                Geometry Summary                 |
           -------------------------------------------------

      molecular mass/u    :     1133.3567000
   center of mass at/Å    :       -9.2780494      -7.8790486       1.8663150
  moments of inertia/u·Å² :        0.1769875E+05   0.9566194E+05   0.1111634E+06
rotational constants/cm⁻¹ :        0.9524757E-03   0.1762209E-03   0.1516474E-03

 * 106 selected distances

     #   Z        #   Z                                     value/Å
     1   6 C      2   6 C                                 1.3774143
     3   6 C      4   7 N                                 1.1493984
     5   6 C      6   7 N                                 1.1499316
     7   6 C      8   6 C                                 1.4169194
     8   6 C      9   6 C                                 1.3728585
     9   6 C     10   6 C                                 1.3989544
    10   6 C     11   6 C                                 1.4137840
     7   6 C     12   6 C                                 1.3808494
    11   6 C     12   6 C                                 1.3909184
    11   6 C     13  16 S                                 1.7363459
    13  16 S     14   6 C                                 1.7303152
    10   6 C     15   6 C                                 1.4236783
    14   6 C     15   6 C                                 1.3506004
    16   6 C     17   8 O                                 1.2168374
    18   6 C     19   6 C                                 1.3816079
    19   6 C     20   6 C                                 1.3898050
    20   6 C     21   6 C                                 1.3838781
    21   6 C     22   6 C                                 1.4105820
    22   6 C     23   6 C                                 1.3675652
    23   6 C     24   6 C                                 1.4071272
    21   6 C     25  16 S                                 1.7495268
    24   6 C     25  16 S                                 1.7461956
    24   6 C     26   6 C                                 1.3896863
    26   6 C     27   6 C                                 1.4074593
    27   6 C     28   6 C                                 1.3664941
    28   6 C     29   6 C                                 1.4122126
    26   6 C     30  16 S                                 1.7453085
    29   6 C     30  16 S                                 1.7484717
    29   6 C     31   6 C                                 1.3813181
    31   6 C     32   6 C                                 1.3926445
    32   6 C     33  16 S                                 1.7432361
    33  16 S     34   6 C                                 1.7560572 (max)
    34   6 C     35   6 C                                 1.4039075
    32   6 C     36   6 C                                 1.4053462
    35   6 C     36   6 C                                 1.3876163
    36   6 C     37   6 C                                 1.4914841
    38   6 C     39   6 C                                 1.5222063
    39   6 C     40   9 F                                 1.3440505
    39   6 C     41   9 F                                 1.3403334
    39   6 C     42   9 F                                 1.3416464
    35   6 C     44   6 C                                 1.4942940
    43   6 C     44   6 C                                 1.5342109
    34   6 C     45   6 C                                 1.3991867
    45   6 C     46   6 C                                 1.3759581
    46   6 C     47   6 C                                 1.3908776
    47   6 C     48   6 C                                 1.3831751
    48   6 C     49   6 C                                 1.4082410
    49   6 C     50   6 C                                 1.3681239
    50   6 C     51   6 C                                 1.4071915
    48   6 C     52  16 S                                 1.7541245
    51   6 C     52  16 S                                 1.7427661
    51   6 C     53   6 C                                 1.3901850
    53   6 C     54   6 C                                 1.4068556
    54   6 C     55   6 C                                 1.3673410
    55   6 C     56   6 C                                 1.4099714
    53   6 C     57  16 S                                 1.7470024
    56   6 C     57  16 S                                 1.7466199
    56   6 C     58   6 C                                 1.3835366
    58   6 C     59   6 C                                 1.3892745
    59   6 C     60   6 C                                 1.3788947
    60   6 C     61   6 C                                 1.4357216
    61   6 C     62   6 C                                 1.3775846
    63   6 C     64   7 N                                 1.1491667
    65   6 C     66   7 N                                 1.1492075
    67   6 C     68   6 C                                 1.4183592
    69   6 C     70   8 O                                 1.2133206
    68   6 C     71   6 C                                 1.3729423
    71   6 C     72   6 C                                 1.3991710
    72   6 C     73   6 C                                 1.4138989
    67   6 C     74   6 C                                 1.3798757
    73   6 C     74   6 C                                 1.3911900
    73   6 C     75  16 S                                 1.7358883
    75  16 S     76   6 C                                 1.7303459
    72   6 C     77   6 C                                 1.4238768
    76   6 C     77   6 C                                 1.3504929
     9   6 C     78   1 H                                 1.0790693
    12   6 C     79   1 H                                 1.0771082
    14   6 C     80   1 H                                 1.0726755
    15   6 C     81   1 H                                 1.0751121
    19   6 C     82   1 H                                 1.0833942
    20   6 C     83   1 H                                 1.0804400
    22   6 C     84   1 H                                 1.0753996
    23   6 C     85   1 H                                 1.0752009
    27   6 C     86   1 H                                 1.0748992
    28   6 C     87   1 H                                 1.0757810
    31   6 C     88   1 H                                 1.0820179
    37   6 C     89   1 H                                 1.0890884
    37   6 C     90   1 H                                 1.0956861
    38   6 C     91   1 H                                 1.0940662
    43   6 C     92   1 H                                 1.0906686
    43   6 C     93   1 H                                 1.0909038
    44   6 C     94   1 H                                 1.0850136
    44   6 C     95   1 H                                 1.0939322
    45   6 C     96   1 H                                 1.0841304
    46   6 C     97   1 H                                 1.0793071
    47   6 C     98   1 H                                 1.0819585
    49   6 C     99   1 H                                 1.0756018
    50   6 C    100   1 H                                 1.0748424
    54   6 C    101   1 H                                 1.0750526
    55   6 C    102   1 H                                 1.0751741
    58   6 C    103   1 H                                 1.0802732
    59   6 C    104   1 H                                 1.0866413
    71   6 C    105   1 H                                 1.0790060
    74   6 C    106   1 H                                 1.0774309
    76   6 C    107   1 H                                 1.0726711 (min)
    77   6 C    108   1 H                                 1.0750815

 * 6 distinct bonds (by element types)

   Z      Z             #   av. dist./Å        max./Å        min./Å
   1 H    6 C          31     1.0808912     1.0956861     1.0726711
   6 C    6 C          52     1.4014875     1.5342109     1.3504929
   6 C    7 N           4     1.1494260     1.1499316     1.1491667
   6 C    8 O           2     1.2150790     1.2168374     1.2133206
   6 C    9 F           3     1.3420101     1.3440505     1.3403334
   6 C   16 S          14     1.7437289     1.7560572     1.7303152


optimized geometry written to: xtbopt.xyz


           -------------------------------------------------
          | TOTAL ENERGY             -202.958633281052 Eh   |
          | GRADIENT NORM               0.000693635063 Eh/α |
          | HOMO-LUMO GAP               0.329602156410 eV   |
           -------------------------------------------------

------------------------------------------------------------------------
 * finished run on 2021/06/13 at 14:16:16.329     
------------------------------------------------------------------------
 total:
 * wall-time:     0 d,  0 h,  0 min, 37.385 sec
 *  cpu-time:     0 d,  0 h,  7 min, 28.411 sec
 * ratio c/w:    11.994 speedup
 SCF:
 * wall-time:     0 d,  0 h,  0 min,  0.283 sec
 *  cpu-time:     0 d,  0 h,  0 min,  3.376 sec
 * ratio c/w:    11.931 speedup
 ANC optimizer:
 * wall-time:     0 d,  0 h,  0 min, 37.030 sec
 *  cpu-time:     0 d,  0 h,  7 min, 24.347 sec
 * ratio c/w:    12.000 speedup

