      -----------------------------------------------------------      
     |                   =====================                   |     
     |                           x T B                           |     
     |                   =====================                   |     
     |                         S. Grimme                         |     
     |          Mulliken Center for Theoretical Chemistry        |     
     |                    University of Bonn                     |     
     |                Version 6.2 RC2 (SAW190805)                |     
      -----------------------------------------------------------      

   This program is distributed in the hope that it will be useful,
   but WITHOUT ANY WARRANTY; without even the implied warranty of
   MERCHANTABILITY or FITNESS FOR A PARTICULAR PURPOSE.
   
   FOR NON-COMMERCIAL, ACADEMIA USE ONLY.
   
   Cite this work as:
   * S. Grimme, C. Bannwarth, P. Shushkov, J. Chem. Theory Comput., 2017,
     13, 1989-2009. DOI: 10.1021/acs.jctc.7b00118
   * C. Bannwarth, S. Ehlert and S. Grimme., J. Chem. Theory Comput., 2019,
     15, 1652-1671. DOI: 10.1021/acs.jctc.8b01176
   * P. Pracht, E. Caldeweyher, S. Ehlert, S. Grimme, ChemRxiv, 2019, preprint.
     DOI: 10.26434/chemrxiv.8326202.v1
   
   for DFT-D4:
   * E. Caldeweyher, C. Bannwarth and S. Grimme, J. Chem. Phys., 2017,
     147, 034112. DOI: 10.1063/1.4993215
   * E. Caldeweyher, S. Ehlert, A. Hansen, H. Neugebauer, S. Spicher,
     C. Bannwarth and S. Grimme, J. Chem. Phys., 2019, 150, 154122.
     DOI: 10.1063/1.5090222
   
   for sTDA-xTB:
   * S. Grimme and C. Bannwarth, J. Chem. Phys., 2016, 145, 054103.
     DOI: 10.1063/1.4959605
   
   in the mass-spec context:
   * V. Asgeirsson, C. Bauer and S. Grimme, Chem. Sci., 2017, 8, 4879.
     DOI: 10.1039/c7sc00601b
   
   for metadynamics refer to:
   * S. Grimme, J. Chem. Theory Comput., 2019, 155, 2847-2862
     DOI: 10.1021/acs.jctc.9b00143
   
   with help from (in alphabetical order)
   C. Bannwarth, F. Bohle, G. Brandenburg, E. Caldeweyher, M. Checinski,
   S. Dohm, S. Ehlert, S. Ehrlich, F. März, H. Neugebauer, J. Pisarek,
   P. Pracht, P. Shushkov, and S. Spicher.
   
 * started run on 2021/06/04 at 21:31:25.448     

           -------------------------------------------------
          |                Calculation Setup                |
           -------------------------------------------------

          program call               : /ihome/ghutchison/geoffh/xtb/xtb /ihome/ghutchison/blp62/GA/running_GA/sequence/generations/34/275_117_117_117_275_13331.xyz -opt
          hostname                   : smp-n13
          coordinate file            : /ihome/ghutchison/blp62/GA/running_GA/sequence/generations/34/275_117_117_117_275_13331.xyz
          omp threads                :                    12
          number of atoms            :                    93
          number of electrons        :                   360
          charge                     :                     0
          spin                       :                   0.0
          first test random number   :      0.57882983759070


########################################################################
# WARNING! Please study the warnings concerning your input carefully
#  - XTBPATH is not set, using XTBHOME instead
#  - the use of '-opt' is discouraged, please use '--opt' next time
########################################################################

           ------------------------------------------------- 
          |                 G F N 2 - x T B                 |
          | Geometry, Frequencies, Noncovalent interactions |
          |            JCTC 2019 parametrisation            |
           ------------------------------------------------- 
             KAB for C  - Si     :                1.0500
             KAB for H  - Pd     :                0.9500
             k(s)              :                1.8500
             k(p)              :                2.2300
             k(d)              :                2.2300
             k(f)              :                2.0000
             kEN (H0ij)        :               -2.0000
             D4 a1             :                0.5200
             D4 a2             :                5.0000
             D4 s6             :                1.0000
             D4 s8             :                2.7000
             D4 s9             :                5.0000
             alphaj            :                2.0000

  Z AO/shell   Hii/eV     exponent
  1     Wed Apr 25 08:07:45 CEST 2018   EN: 2.200 GM2: 0.406  GM3: 0.0800  RAES: 1.40
     1s    -10.707211    1.230000
  6     Wed Apr 25 08:07:45 CEST 2018   EN: 2.550 GM2: 0.538  GM3: 0.1500  RAES: 3.00
     2s    -13.970922    2.096432
     2p    -10.063292    1.800000
  7     Wed Apr 25 08:07:45 CEST 2018   EN: 3.040 GM2: 0.461  GM3:-0.0640  RAES: 1.90
     2s    -16.686243    2.339881
     2p    -12.523956    2.014332
  8     Wed Apr 25 08:07:45 CEST 2018   EN: 3.440 GM2: 0.452  GM3:-0.0517  RAES: 1.80
     2s    -20.229985    2.439742
     2p    -15.503117    2.137023
 16     Tue Apr 24 11:44:34 CEST 2018   EN: 2.580 GM2: 0.340  GM3:-0.0502  RAES: 3.10
     3s    -20.029654    1.981333
     3p    -11.377694    2.025643
     3d     -0.420282    1.702555
 35     Tue Apr 24 12:21:41 CEST 2018   EN: 2.960 GM2: 0.261  GM3: 0.1300  RAES: 4.00
     4s    -23.583718    2.077587
     4p    -12.588824    2.263120
     4d      0.047980    1.845038

           ------------------------------------------------- 
          |        Self-Consistent Charge Iterations        |
           ------------------------------------------------- 

          ...................................................
          :                      SETUP                      :
          :.................................................:
          :  # basis functions                 345          :
          :  # atomic orbitals                 341          :
          :  # shells                          173          :
          :  # electrons                       360          :
          :  max. iterations                   250          :
          :  Hamiltonian                  GFN2-xTB          :
          :  restarted?                      false          :
          :  GBSA solvation                  false          :
          :  PC potential                    false          :
          :  electronic temp.          300.0000000     K    :
          :  accuracy                    1.0000000          :
          :  -> integral cutoff          0.2500000E+02      :
          :  -> integral neglect         0.1000000E-07      :
          :  -> SCF convergence          0.1000000E-05 Eh   :
          :  -> wf. convergence          0.1000000E-03 e    :
          :  Broyden damping             0.4000000          :
          ...................................................

 iter      E             dE          RMSdq      gap      omega  full diag
   1   -206.3757436 -0.206376E+03  0.607E+00    1.66       0.0  T
   2   -206.5972589 -0.221515E+00  0.386E+00    1.51       1.0  T
   3   -206.4526059  0.144653E+00  0.256E+00    1.27       1.0  T
   4   -206.7805412 -0.327935E+00  0.103E+00    1.47       1.0  T
   5   -206.8545365 -0.739953E-01  0.279E-01    1.38       1.0  T
   6   -206.8570744 -0.253786E-02  0.182E-01    1.39       1.0  T
   7   -206.8581783 -0.110388E-02  0.911E-02    1.41       1.0  T
   8   -206.8584933 -0.315033E-03  0.596E-02    1.41       1.0  T
   9   -206.8585384 -0.450929E-04  0.475E-02    1.41       1.0  T
  10   -206.8585771 -0.387251E-04  0.316E-02    1.41       1.0  T
  11   -206.8585926 -0.155007E-04  0.191E-02    1.41       1.0  T
  12   -206.8586083 -0.156503E-04  0.855E-03    1.41       1.2  T
  13   -206.8586086 -0.307579E-06  0.552E-03    1.41       1.9  T
  14   -206.8586103 -0.167592E-05  0.197E-03    1.41       5.3  T
  15   -206.8586104 -0.115476E-06  0.101E-03    1.41      10.2  T
  16   -206.8586104 -0.252695E-07  0.607E-04    1.41      17.1  T
  17   -206.8586104 -0.425712E-08  0.343E-04    1.41      30.2  T

   *** convergence criteria satisfied after 17 iterations ***

         #    Occupation            Energy/Eh            Energy/eV
      -------------------------------------------------------------
         1        2.0000           -0.8706279             -23.6910
       ...           ...                  ...                  ...
       174        2.0000           -0.4305048             -11.7146
       175        2.0000           -0.4295524             -11.6887
       176        2.0000           -0.4222513             -11.4900
       177        2.0000           -0.4218688             -11.4796
       178        2.0000           -0.4199974             -11.4287
       179        2.0000           -0.4151718             -11.2974
       180        2.0000           -0.4073225             -11.0838 (HOMO)
       181                         -0.3556592              -9.6780 (LUMO)
       182                         -0.3523232              -9.5872
       183                         -0.3413483              -9.2886
       184                         -0.3378874              -9.1944
       185                         -0.3362515              -9.1499
       ...                                ...                  ...
       341                          1.0710435              29.1446
      -------------------------------------------------------------
                  HL-Gap            0.0516634 Eh            1.4058 eV
             Fermi-level           -0.3815080 Eh          -10.3814 eV

 SCC (total)                   0 d,  0 h,  0 min,  0.229 sec
 SCC setup                      ...        0 min,  0.002 sec (  0.883%)
 Dispersion                     ...        0 min,  0.004 sec (  1.884%)
 integral evaluation            ...        0 min,  0.023 sec (  9.984%)
 zeroth order Hamiltonian       ...        0 min,  0.001 sec (  0.425%)
 iterations                     ...        0 min,  0.183 sec ( 79.743%)
 molecular gradient             ...        0 min,  0.015 sec (  6.697%)
 printout                       ...        0 min,  0.001 sec (  0.345%)

         :::::::::::::::::::::::::::::::::::::::::::::::::::::
         ::                     SUMMARY                     ::
         :::::::::::::::::::::::::::::::::::::::::::::::::::::
         :: total energy            -203.936711236330 Eh    ::
         :: gradient norm              0.207314639517 Eh/a0 ::
         :: HOMO-LUMO gap              1.405831349408 eV    ::
         ::.................................................::
         :: SCC energy              -206.858610401466 Eh    ::
         :: -> isotropic ES            0.300299413633 Eh    ::
         :: -> anisotropic ES          0.003753265859 Eh    ::
         :: -> anisotropic XC          0.097335087102 Eh    ::
         :: -> dispersion             -0.138530048398 Eh    ::
         :: repulsion energy           2.923530334726 Eh    ::
         :: add. restraining           0.000000000000 Eh    ::
         :::::::::::::::::::::::::::::::::::::::::::::::::::::

      ----------------------------------------------------------- 
     |                   =====================                   |
     |                        A N C O P T                        |
     |                   =====================                   |
     |               Approximate Normal Coordinate               |
     |                Rational Function Optimizer                |
      ----------------------------------------------------------- 

          ...................................................
          :                      SETUP                      :
          :.................................................:
          :   optimization level            normal          :
          :   max. optcycles                   279          :
          :   ANC micro-cycles                  20          :
          :   degrees of freedom               273          :
          :.................................................:
          :   RF solver                   davidson          :
          :   input Hessian                  false          :
          :   write xtbopt.log                true          :
          :   linear?                        false          :
          :   energy convergence         0.5000000E-05 Eh   :
          :   grad. convergence          0.1000000E-02 Eh/α :
          :   maximium RF displ.         2.0000000          :
          :   Hlow (freq-cutoff)         0.5000000E-02      :
          :   Hmax (freq-cutoff)         5.0000000          :
          :   S6 in model hess.         20.0000000          :
          ...................................................

generating ANC from model Hessian ...
Using Lindh-Hessian (1995)
 Shifting diagonal of input Hessian by   4.993778773556450E-003
 Lowest  eigenvalues of input Hessian
   -0.000000   -0.000000    0.000000    0.000000    0.000000    0.000000
    0.005000    0.005028    0.005030    0.005060    0.005072    0.005114
    0.005244    0.005309    0.005499    0.005706    0.005781    0.005826
 Highest eigenvalues
    2.506466    2.523167    2.532026    2.532476    2.549460    2.566766
 

........................................................................
.............................. CYCLE    1 ..............................
........................................................................
   1   -206.8586104 -0.206859E+03  0.217E-04    1.41       0.0  T
   2   -206.8586104 -0.191022E-09  0.176E-04    1.41      58.9  T
   3   -206.8586104 -0.573266E-09  0.140E-04    1.41      74.2  T
     SCC iter.                  ...        0 min,  0.033 sec
     gradient                   ...        0 min,  0.015 sec
 * total energy  :  -203.9367113 Eh     change       -0.5126802E-07 Eh
   gradient norm :     0.2073120 Eh/α   predicted     0.0000000E+00 (-100.00%)
   displ. norm   :     0.4402490 α      lambda       -0.4618444E-01
   maximum displ.:     0.1117395 α      in ANC's #62, #84, #57, ...

........................................................................
.............................. CYCLE    2 ..............................
........................................................................
   1   -206.9279696 -0.206928E+03  0.261E-01    1.36       0.0  T
   2   -206.9288640 -0.894448E-03  0.151E-01    1.34       1.0  T
   3   -206.9287747  0.893199E-04  0.837E-02    1.35       1.0  T
   4   -206.9289961 -0.221401E-03  0.403E-02    1.35       1.0  T
   5   -206.9290884 -0.923294E-04  0.117E-02    1.35       1.0  T
   6   -206.9290905 -0.207697E-05  0.591E-03    1.35       1.8  T
   7   -206.9290922 -0.172196E-05  0.220E-03    1.35       4.7  T
     SCC iter.                  ...        0 min,  0.074 sec
     gradient                   ...        0 min,  0.014 sec
 * total energy  :  -203.9701159 Eh     change       -0.3340458E-01 Eh
   gradient norm :     0.0933483 Eh/α   predicted    -0.2756826E-01 ( -17.47%)
   displ. norm   :     0.5044476 α      lambda       -0.2218842E-01
   maximum displ.:     0.1744022 α      in ANC's #31, #57, #30, ...

........................................................................
.............................. CYCLE    3 ..............................
........................................................................
   1   -206.9377088 -0.206938E+03  0.273E-01    1.28       0.0  T
   2   -206.9384293 -0.720474E-03  0.158E-01    1.26       1.0  T
   3   -206.9382364  0.192828E-03  0.878E-02    1.28       1.0  T
   4   -206.9386065 -0.370027E-03  0.364E-02    1.27       1.0  T
   5   -206.9386766 -0.701478E-04  0.130E-02    1.27       1.0  T
   6   -206.9386801 -0.346708E-05  0.683E-03    1.27       1.5  T
   7   -206.9386823 -0.222955E-05  0.279E-03    1.27       3.7  T
   8   -206.9386828 -0.507433E-06  0.153E-03    1.27       6.8  T
     SCC iter.                  ...        0 min,  0.084 sec
     gradient                   ...        0 min,  0.014 sec
 * total energy  :  -203.9845989 Eh     change       -0.1448308E-01 Eh
   gradient norm :     0.0251290 Eh/α   predicted    -0.1391733E-01 (  -3.91%)
   displ. norm   :     0.5544478 α      lambda       -0.7374914E-02
   maximum displ.:     0.2434561 α      in ANC's #31, #30, #43, ...

........................................................................
.............................. CYCLE    4 ..............................
........................................................................
   1   -206.9382256 -0.206938E+03  0.230E-01    1.24       0.0  T
   2   -206.9383235 -0.978681E-04  0.125E-01    1.24       1.0  T
   3   -206.9381069  0.216549E-03  0.547E-02    1.24       1.0  T
   4   -206.9383674 -0.260434E-03  0.167E-02    1.24       1.0  T
   5   -206.9383743 -0.691523E-05  0.966E-03    1.24       1.1  T
   6   -206.9383779 -0.366631E-05  0.444E-03    1.24       2.3  T
   7   -206.9383788 -0.816132E-06  0.249E-03    1.24       4.2  T
     SCC iter.                  ...        0 min,  0.074 sec
     gradient                   ...        0 min,  0.015 sec
 * total energy  :  -203.9898933 Eh     change       -0.5294339E-02 Eh
   gradient norm :     0.0235928 Eh/α   predicted    -0.4821103E-02 (  -8.94%)
   displ. norm   :     0.6672325 α      lambda       -0.6107700E-02
   maximum displ.:     0.3470243 α      in ANC's #31, #30, #32, ...

........................................................................
.............................. CYCLE    5 ..............................
........................................................................
   1   -206.9396126 -0.206940E+03  0.293E-01    1.21       0.0  T
   2   -206.9397153 -0.102732E-03  0.160E-01    1.22       1.0  T
   3   -206.9394836  0.231723E-03  0.584E-02    1.22       1.0  T
   4   -206.9397675 -0.283882E-03  0.168E-02    1.22       1.0  T
   5   -206.9397720 -0.445222E-05  0.102E-02    1.22       1.0  T
   6   -206.9397773 -0.534898E-05  0.466E-03    1.22       2.2  T
   7   -206.9397780 -0.725645E-06  0.313E-03    1.22       3.3  T
     SCC iter.                  ...        0 min,  0.073 sec
     gradient                   ...        0 min,  0.014 sec
 * total energy  :  -203.9930735 Eh     change       -0.3180197E-02 Eh
   gradient norm :     0.0313290 Eh/α   predicted    -0.4413428E-02 (  38.78%)
   displ. norm   :     0.4869804 α      lambda       -0.4182913E-02
   maximum displ.:     0.2263073 α      in ANC's #31, #30, #20, ...

........................................................................
.............................. CYCLE    6 ..............................
........................................................................
   1   -206.9429652 -0.206943E+03  0.222E-01    1.21       0.0  T
   2   -206.9430199 -0.546487E-04  0.123E-01    1.22       1.0  T
   3   -206.9427429  0.276924E-03  0.576E-02    1.20       1.0  T
   4   -206.9430622 -0.319227E-03  0.130E-02    1.21       1.0  T
   5   -206.9430675 -0.537056E-05  0.748E-03    1.21       1.4  T
   6   -206.9430694 -0.184331E-05  0.402E-03    1.21       2.6  T
   7   -206.9430700 -0.675227E-06  0.263E-03    1.21       3.9  T
     SCC iter.                  ...        0 min,  0.073 sec
     gradient                   ...        0 min,  0.014 sec
 * total energy  :  -203.9956913 Eh     change       -0.2617830E-02 Eh
   gradient norm :     0.0246318 Eh/α   predicted    -0.2587460E-02 (  -1.16%)
   displ. norm   :     0.4774468 α      lambda       -0.3062863E-02
   maximum displ.:     0.1767846 α      in ANC's #31, #30, #20, ...

........................................................................
.............................. CYCLE    7 ..............................
........................................................................
   1   -206.9492178 -0.206949E+03  0.230E-01    1.21       0.0  T
   2   -206.9492911 -0.733302E-04  0.128E-01    1.22       1.0  T
   3   -206.9491077  0.183485E-03  0.482E-02    1.21       1.0  T
   4   -206.9493288 -0.221146E-03  0.122E-02    1.22       1.0  T
   5   -206.9493325 -0.367454E-05  0.748E-03    1.22       1.4  T
   6   -206.9493352 -0.271400E-05  0.367E-03    1.22       2.8  T
   7   -206.9493357 -0.546064E-06  0.226E-03    1.22       4.6  T
     SCC iter.                  ...        0 min,  0.078 sec
     gradient                   ...        0 min,  0.017 sec
 * total energy  :  -203.9965952 Eh     change       -0.9039368E-03 Eh
   gradient norm :     0.0277796 Eh/α   predicted    -0.1880531E-02 ( 108.04%)
   displ. norm   :     0.3722845 α      lambda       -0.2840454E-02
   maximum displ.:     0.1581212 α      in ANC's #31, #14, #18, ...

........................................................................
.............................. CYCLE    8 ..............................
........................................................................
   1   -206.9566481 -0.206957E+03  0.194E-01    1.21       0.0  T
   2   -206.9566954 -0.473215E-04  0.107E-01    1.22       1.0  T
   3   -206.9566411  0.543049E-04  0.277E-02    1.22       1.0  T
   4   -206.9567164 -0.752222E-04  0.763E-03    1.22       1.4  T
   5   -206.9567174 -0.105948E-05  0.463E-03    1.22       2.2  T
   6   -206.9567184 -0.988771E-06  0.231E-03    1.22       4.5  T
     SCC iter.                  ...        0 min,  0.063 sec
     gradient                   ...        0 min,  0.015 sec
 * total energy  :  -203.9982924 Eh     change       -0.1697145E-02 Eh
   gradient norm :     0.0218337 Eh/α   predicted    -0.1617064E-02 (  -4.72%)
   displ. norm   :     0.3704011 α      lambda       -0.1339136E-02
   maximum displ.:     0.1529268 α      in ANC's #32, #31, #39, ...

........................................................................
.............................. CYCLE    9 ..............................
........................................................................
   1   -206.9548604 -0.206955E+03  0.135E-01    1.21       0.0  T
   2   -206.9548743 -0.138533E-04  0.762E-02    1.21       1.0  T
   3   -206.9548332  0.410314E-04  0.244E-02    1.21       1.0  T
   4   -206.9548825 -0.493299E-04  0.650E-03    1.21       1.6  T
   5   -206.9548827 -0.133943E-06  0.358E-03    1.21       2.9  T
   6   -206.9548835 -0.788659E-06  0.149E-03    1.21       7.0  T
     SCC iter.                  ...        0 min,  0.062 sec
     gradient                   ...        0 min,  0.014 sec
 * total energy  :  -203.9989943 Eh     change       -0.7018589E-03 Eh
   gradient norm :     0.0200299 Eh/α   predicted    -0.7614411E-03 (   8.49%)
   displ. norm   :     0.3371144 α      lambda       -0.1211666E-02
   maximum displ.:     0.1246194 α      in ANC's #18, #14, #20, ...

........................................................................
.............................. CYCLE   10 ..............................
........................................................................
   1   -206.9613026 -0.206961E+03  0.129E-01    1.21       0.0  T
   2   -206.9613215 -0.188814E-04  0.722E-02    1.21       1.0  T
   3   -206.9612419  0.795835E-04  0.317E-02    1.21       1.0  T
   4   -206.9613330 -0.910640E-04  0.805E-03    1.22       1.3  T
   5   -206.9613344 -0.140041E-05  0.504E-03    1.21       2.1  T
   6   -206.9613360 -0.165619E-05  0.210E-03    1.21       4.9  T
     SCC iter.                  ...        0 min,  0.063 sec
     gradient                   ...        0 min,  0.014 sec
 * total energy  :  -203.9996520 Eh     change       -0.6577522E-03 Eh
   gradient norm :     0.0153057 Eh/α   predicted    -0.6746858E-03 (   2.57%)
   displ. norm   :     0.3982055 α      lambda       -0.9109991E-03
   maximum displ.:     0.1593607 α      in ANC's #18, #14, #20, ...

........................................................................
.............................. CYCLE   11 ..............................
........................................................................
   1   -206.9574928 -0.206957E+03  0.143E-01    1.21       0.0  T
   2   -206.9575080 -0.152063E-04  0.812E-02    1.21       1.0  T
   3   -206.9574429  0.650518E-04  0.292E-02    1.22       1.0  T
   4   -206.9575181 -0.752222E-04  0.706E-03    1.22       1.5  T
   5   -206.9575182 -0.746759E-07  0.486E-03    1.22       2.1  T
   6   -206.9575201 -0.187870E-05  0.155E-03    1.22       6.7  T
   7   -206.9575202 -0.109427E-06  0.921E-04    1.22      11.3  T
     SCC iter.                  ...        0 min,  0.072 sec
     gradient                   ...        0 min,  0.014 sec
 * total energy  :  -204.0001310 Eh     change       -0.4789827E-03 Eh
   gradient norm :     0.0147962 Eh/α   predicted    -0.5277322E-03 (  10.18%)
   displ. norm   :     0.2424027 α      lambda       -0.5112413E-03
   maximum displ.:     0.0924237 α      in ANC's #18, #20, #14, ...

........................................................................
.............................. CYCLE   12 ..............................
........................................................................
   1   -206.9613609 -0.206961E+03  0.859E-02    1.22       0.0  T
   2   -206.9613682 -0.729466E-05  0.483E-02    1.23       1.0  T
   3   -206.9613464  0.218311E-04  0.171E-02    1.23       1.0  T
   4   -206.9613720 -0.255539E-04  0.482E-03    1.23       2.2  T
   5   -206.9613721 -0.152834E-06  0.318E-03    1.23       3.3  T
   6   -206.9613728 -0.673966E-06  0.118E-03    1.23       8.8  T
   7   -206.9613729 -0.724777E-07  0.659E-04    1.23      15.7  T
     SCC iter.                  ...        0 min,  0.072 sec
     gradient                   ...        0 min,  0.014 sec
 * total energy  :  -204.0004034 Eh     change       -0.2724548E-03 Eh
   gradient norm :     0.0153061 Eh/α   predicted    -0.2706490E-03 (  -0.66%)
   displ. norm   :     0.3749922 α      lambda       -0.6265663E-03
   maximum displ.:     0.1628639 α      in ANC's #18, #32, #6, ...

........................................................................
.............................. CYCLE   13 ..............................
........................................................................
   1   -206.9567537 -0.206957E+03  0.130E-01    1.22       0.0  T
   2   -206.9567699 -0.161332E-04  0.740E-02    1.23       1.0  T
   3   -206.9566564  0.113482E-03  0.379E-02    1.23       1.0  T
   4   -206.9567867 -0.130289E-03  0.730E-03    1.24       1.4  T
   5   -206.9567880 -0.134840E-05  0.432E-03    1.24       2.4  T
   6   -206.9567889 -0.857998E-06  0.168E-03    1.24       6.2  T
   7   -206.9567890 -0.130040E-06  0.891E-04    1.24      11.6  T
     SCC iter.                  ...        0 min,  0.073 sec
     gradient                   ...        0 min,  0.014 sec
 * total energy  :  -204.0006589 Eh     change       -0.2554669E-03 Eh
   gradient norm :     0.0120304 Eh/α   predicted    -0.3573380E-03 (  39.88%)
   displ. norm   :     0.2489807 α      lambda       -0.5441476E-03
   maximum displ.:     0.1224983 α      in ANC's #18, #6, #19, ...

........................................................................
.............................. CYCLE   14 ..............................
........................................................................
   1   -206.9596340 -0.206960E+03  0.902E-02    1.24       0.0  T
   2   -206.9596433 -0.923156E-05  0.506E-02    1.24       1.0  T
   3   -206.9596040  0.392882E-04  0.225E-02    1.25       1.0  T
   4   -206.9596497 -0.457317E-04  0.539E-03    1.25       1.9  T
   5   -206.9596503 -0.560095E-06  0.342E-03    1.25       3.0  T
   6   -206.9596510 -0.686676E-06  0.129E-03    1.25       8.0  T
   7   -206.9596510 -0.821445E-07  0.718E-04    1.25      14.4  T
     SCC iter.                  ...        0 min,  0.073 sec
     gradient                   ...        0 min,  0.014 sec
 * total energy  :  -204.0009613 Eh     change       -0.3023748E-03 Eh
   gradient norm :     0.0121799 Eh/α   predicted    -0.2889417E-03 (  -4.44%)
   displ. norm   :     0.3057434 α      lambda       -0.4659641E-03
   maximum displ.:     0.1380339 α      in ANC's #18, #6, #12, ...

........................................................................
.............................. CYCLE   15 ..............................
........................................................................
   1   -206.9601375 -0.206960E+03  0.980E-02    1.24       0.0  T
   2   -206.9601483 -0.108335E-04  0.551E-02    1.26       1.0  T
   3   -206.9601096  0.387109E-04  0.233E-02    1.26       1.0  T
   4   -206.9601554 -0.457721E-04  0.559E-03    1.26       1.9  T
   5   -206.9601558 -0.469620E-06  0.364E-03    1.26       2.8  T
   6   -206.9601565 -0.622846E-06  0.134E-03    1.26       7.7  T
   7   -206.9601565 -0.705163E-07  0.842E-04    1.26      12.3  T
     SCC iter.                  ...        0 min,  0.074 sec
     gradient                   ...        0 min,  0.014 sec
 * total energy  :  -204.0012113 Eh     change       -0.2500257E-03 Eh
   gradient norm :     0.0164496 Eh/α   predicted    -0.2547630E-03 (   1.89%)
   displ. norm   :     0.4225014 α      lambda       -0.6421080E-03
   maximum displ.:     0.1518775 α      in ANC's #18, #6, #15, ...

........................................................................
.............................. CYCLE   16 ..............................
........................................................................
   1   -206.9649852 -0.206965E+03  0.125E-01    1.25       0.0  T
   2   -206.9650091 -0.238663E-04  0.712E-02    1.27       1.0  T
   3   -206.9649162  0.928709E-04  0.349E-02    1.27       1.0  T
   4   -206.9650274 -0.111210E-03  0.774E-03    1.28       1.3  T
   5   -206.9650286 -0.121971E-05  0.480E-03    1.28       2.2  T
   6   -206.9650295 -0.852475E-06  0.209E-03    1.28       5.0  T
   7   -206.9650297 -0.186992E-06  0.120E-03    1.28       8.7  T
     SCC iter.                  ...        0 min,  0.074 sec
     gradient                   ...        0 min,  0.014 sec
 * total energy  :  -204.0015900 Eh     change       -0.3786736E-03 Eh
   gradient norm :     0.0152679 Eh/α   predicted    -0.3783708E-03 (  -0.08%)
   displ. norm   :     0.4846124 α      lambda       -0.7109445E-03
   maximum displ.:     0.1907537 α      in ANC's #18, #6, #16, ...

........................................................................
.............................. CYCLE   17 ..............................
........................................................................
   1   -206.9592672 -0.206959E+03  0.147E-01    1.26       0.0  T
   2   -206.9592967 -0.294728E-04  0.842E-02    1.29       1.0  T
   3   -206.9591110  0.185641E-03  0.490E-02    1.28       1.0  T
   4   -206.9593317 -0.220646E-03  0.959E-03    1.29       1.1  T
   5   -206.9593348 -0.308615E-05  0.579E-03    1.29       1.8  T
   6   -206.9593361 -0.129434E-05  0.259E-03    1.29       4.0  T
   7   -206.9593364 -0.365660E-06  0.145E-03    1.29       7.1  T
     SCC iter.                  ...        0 min,  0.075 sec
     gradient                   ...        0 min,  0.014 sec
 * total energy  :  -204.0020707 Eh     change       -0.4807065E-03 Eh
   gradient norm :     0.0153172 Eh/α   predicted    -0.4389571E-03 (  -8.69%)
   displ. norm   :     0.5215130 α      lambda       -0.9350438E-03
   maximum displ.:     0.1909167 α      in ANC's #6, #15, #16, ...

........................................................................
.............................. CYCLE   18 ..............................
........................................................................
   1   -206.9640821 -0.206964E+03  0.169E-01    1.28       0.0  T
   2   -206.9641192 -0.371103E-04  0.953E-02    1.30       1.0  T
   3   -206.9639419  0.177313E-03  0.482E-02    1.29       1.0  T
   4   -206.9641539 -0.211961E-03  0.101E-02    1.30       1.0  T
   5   -206.9641554 -0.155481E-05  0.631E-03    1.30       1.6  T
   6   -206.9641571 -0.164925E-05  0.237E-03    1.30       4.4  T
   7   -206.9641573 -0.221660E-06  0.144E-03    1.30       7.2  T
     SCC iter.                  ...        0 min,  0.075 sec
     gradient                   ...        0 min,  0.015 sec
 * total energy  :  -204.0025573 Eh     change       -0.4865787E-03 Eh
   gradient norm :     0.0243260 Eh/α   predicted    -0.5946807E-03 (  22.22%)
   displ. norm   :     0.5131859 α      lambda       -0.9178531E-03
   maximum displ.:     0.1885328 α      in ANC's #6, #16, #15, ...

........................................................................
.............................. CYCLE   19 ..............................
........................................................................
   1   -206.9563402 -0.206956E+03  0.152E-01    1.29       0.0  T
   2   -206.9563718 -0.315858E-04  0.863E-02    1.31       1.0  T
   3   -206.9561782  0.193590E-03  0.498E-02    1.30       1.0  T
   4   -206.9564108 -0.232645E-03  0.983E-03    1.31       1.1  T
   5   -206.9564124 -0.158964E-05  0.630E-03    1.31       1.6  T
   6   -206.9564143 -0.191142E-05  0.207E-03    1.31       5.0  T
   7   -206.9564145 -0.191540E-06  0.125E-03    1.31       8.3  T
     SCC iter.                  ...        0 min,  0.075 sec
     gradient                   ...        0 min,  0.014 sec
 * total energy  :  -204.0032181 Eh     change       -0.6608191E-03 Eh
   gradient norm :     0.0155457 Eh/α   predicted    -0.5797922E-03 ( -12.26%)
   displ. norm   :     0.5530234 α      lambda       -0.1136394E-02
   maximum displ.:     0.2034422 α      in ANC's #6, #15, #16, ...

........................................................................
.............................. CYCLE   20 ..............................
........................................................................
   1   -206.9538630 -0.206954E+03  0.162E-01    1.29       0.0  T
   2   -206.9539034 -0.403485E-04  0.920E-02    1.30       1.0  T
   3   -206.9537155  0.187875E-03  0.510E-02    1.30       1.0  T
   4   -206.9539450 -0.229480E-03  0.102E-02    1.30       1.0  T
   5   -206.9539467 -0.171594E-05  0.645E-03    1.30       1.6  T
   6   -206.9539489 -0.222116E-05  0.206E-03    1.30       5.0  T
   7   -206.9539491 -0.194918E-06  0.118E-03    1.30       8.8  T
     SCC iter.                  ...        0 min,  0.075 sec
     gradient                   ...        0 min,  0.014 sec
 * total energy  :  -204.0038956 Eh     change       -0.6775498E-03 Eh
   gradient norm :     0.0214953 Eh/α   predicted    -0.7419738E-03 (   9.51%)
   displ. norm   :     0.5162391 α      lambda       -0.9935081E-03
   maximum displ.:     0.1987133 α      in ANC's #6, #15, #16, ...
 * RMSD in coord.:     0.6048882 α      energy gain  -0.6718440E-01 Eh

generating ANC from model Hessian ...
Using Lindh-Hessian (1995)
 Shifting diagonal of input Hessian by   5.007209815190714E-003
 Lowest  eigenvalues of input Hessian
    0.005000   -0.000000   -0.000000    0.000000    0.000000    0.000000
    0.000000    0.005027    0.005039    0.005054    0.005076    0.005120
    0.005236    0.005276    0.005538    0.005583    0.005598    0.005711
 Highest eigenvalues
    2.502577    2.505654    2.601283    2.601503    2.639535    2.646773
 

........................................................................
.............................. CYCLE   21 ..............................
........................................................................
   1   -206.9591546 -0.206959E+03  0.149E-01    1.31       0.0  T
   2   -206.9591853 -0.306816E-04  0.843E-02    1.32       1.0  T
   3   -206.9590248  0.160467E-03  0.461E-02    1.31       1.0  T
   4   -206.9592193 -0.194473E-03  0.969E-03    1.32       1.1  T
   5   -206.9592199 -0.542178E-06  0.621E-03    1.32       1.7  T
   6   -206.9592220 -0.210452E-05  0.188E-03    1.32       5.5  T
   7   -206.9592221 -0.149352E-06  0.107E-03    1.32       9.7  T
   8   -206.9592222 -0.374972E-07  0.683E-04    1.32      15.2  T
   9   -206.9592222 -0.890714E-08  0.377E-04    1.32      27.5  T
     SCC iter.                  ...        0 min,  0.094 sec
     gradient                   ...        0 min,  0.015 sec
 * total energy  :  -204.0046166 Eh     change       -0.7209145E-03 Eh
   gradient norm :     0.0172508 Eh/α   predicted     0.0000000E+00 (-100.00%)
   displ. norm   :     0.1959330 α      lambda       -0.6417771E-03
   maximum displ.:     0.0763004 α      in ANC's #17, #10, #21, ...

........................................................................
.............................. CYCLE   22 ..............................
........................................................................
   1   -206.9627203 -0.206963E+03  0.107E-01    1.32       0.0  T
   2   -206.9627369 -0.166136E-04  0.593E-02    1.32       1.0  T
   3   -206.9627095  0.273652E-04  0.185E-02    1.32       1.0  T
   4   -206.9627450 -0.354541E-04  0.420E-03    1.32       2.5  T
   5   -206.9627456 -0.609905E-06  0.272E-03    1.32       3.8  T
   6   -206.9627459 -0.367978E-06  0.129E-03    1.32       8.0  T
     SCC iter.                  ...        0 min,  0.064 sec
     gradient                   ...        0 min,  0.014 sec
 * total energy  :  -204.0047882 Eh     change       -0.1716767E-03 Eh
   gradient norm :     0.0116688 Eh/α   predicted    -0.3332075E-03 (  94.09%)
   displ. norm   :     0.2899256 α      lambda       -0.1206439E-02
   maximum displ.:     0.0981922 α      in ANC's #20, #6, #17, ...

........................................................................
.............................. CYCLE   23 ..............................
........................................................................
   1   -206.9720926 -0.206972E+03  0.169E-01    1.32       0.0  T
   2   -206.9721326 -0.400086E-04  0.940E-02    1.32       1.0  T
   3   -206.9720377  0.949327E-04  0.345E-02    1.32       1.0  T
   4   -206.9721545 -0.116806E-03  0.730E-03    1.32       1.4  T
   5   -206.9721564 -0.194167E-05  0.424E-03    1.32       2.4  T
   6   -206.9721571 -0.621967E-06  0.216E-03    1.32       4.8  T
   7   -206.9721573 -0.183916E-06  0.117E-03    1.32       8.9  T
     SCC iter.                  ...        0 min,  0.074 sec
     gradient                   ...        0 min,  0.015 sec
 * total energy  :  -204.0048062 Eh     change       -0.1796748E-04 Eh
   gradient norm :     0.0274186 Eh/α   predicted    -0.6539234E-03 (3539.48%)
   displ. norm   :     0.1584531 α      lambda       -0.1115698E-02
   maximum displ.:     0.0717447 α      in ANC's #10, #47, #45, ...

........................................................................
.............................. CYCLE   24 ..............................
........................................................................
   1   -206.9679531 -0.206968E+03  0.143E-01    1.32       0.0  T
   2   -206.9679730 -0.198754E-04  0.787E-02    1.32       1.0  T
   3   -206.9679668  0.615341E-05  0.127E-02    1.32       1.0  T
   4   -206.9679822 -0.153488E-04  0.366E-03    1.32       2.8  T
   5   -206.9679823 -0.872039E-07  0.209E-03    1.32       5.0  T
   6   -206.9679825 -0.255675E-06  0.853E-04    1.32      12.2  T
     SCC iter.                  ...        0 min,  0.068 sec
     gradient                   ...        0 min,  0.016 sec
 * total energy  :  -204.0050705 Eh     change       -0.2642683E-03 Eh
   gradient norm :     0.0144127 Eh/α   predicted    -0.5718544E-03 ( 116.39%)
   displ. norm   :     0.2010475 α      lambda       -0.1212075E-02
   maximum displ.:     0.0881165 α      in ANC's #21, #19, #11, ...

........................................................................
.............................. CYCLE   25 ..............................
........................................................................
   1   -206.9588079 -0.206959E+03  0.168E-01    1.32       0.0  T
   2   -206.9588439 -0.360358E-04  0.925E-02    1.32       1.0  T
   3   -206.9587965  0.473832E-04  0.271E-02    1.32       1.0  T
   4   -206.9588626 -0.660500E-04  0.557E-03    1.32       1.9  T
   5   -206.9588634 -0.821815E-06  0.371E-03    1.32       2.8  T
   6   -206.9588642 -0.779159E-06  0.152E-03    1.32       6.8  T
   7   -206.9588643 -0.957520E-07  0.872E-04    1.32      11.9  T
     SCC iter.                  ...        0 min,  0.074 sec
     gradient                   ...        0 min,  0.014 sec
 * total energy  :  -204.0048912 Eh     change        0.1792750E-03 Eh
   gradient norm :     0.0231395 Eh/α   predicted    -0.6305341E-03 (-451.71%)
   displ. norm   :     0.2024695 α      lambda       -0.1586976E-02
   maximum displ.:     0.0775309 α      in ANC's #47, #11, #6, ...

........................................................................
.............................. CYCLE   26 ..............................
........................................................................
   1   -206.9599309 -0.206960E+03  0.166E-01    1.32       0.0  T
   2   -206.9599632 -0.323270E-04  0.919E-02    1.32       1.0  T
   3   -206.9599239  0.392528E-04  0.233E-02    1.32       1.0  T
   4   -206.9599812 -0.572305E-04  0.358E-03    1.32       2.9  T
   5   -206.9599814 -0.240499E-06  0.225E-03    1.32       4.6  T
   6   -206.9599816 -0.192495E-06  0.756E-04    1.32      13.7  T
     SCC iter.                  ...        0 min,  0.065 sec
     gradient                   ...        0 min,  0.015 sec
 * total energy  :  -204.0051340 Eh     change       -0.2428224E-03 Eh
   gradient norm :     0.0209877 Eh/α   predicted    -0.8260172E-03 ( 240.17%)
   displ. norm   :     0.2090408 α      lambda       -0.1463534E-02
   maximum displ.:     0.0803735 α      in ANC's #45, #6, #20, ...

........................................................................
.............................. CYCLE   27 ..............................
........................................................................
   1   -206.9726443 -0.206973E+03  0.132E-01    1.32       0.0  T
   2   -206.9726722 -0.278208E-04  0.734E-02    1.33       1.0  T
   3   -206.9726086  0.635254E-04  0.283E-02    1.32       1.0  T
   4   -206.9726860 -0.773339E-04  0.629E-03    1.32       1.6  T
   5   -206.9726876 -0.162034E-05  0.370E-03    1.32       2.8  T
   6   -206.9726882 -0.635732E-06  0.184E-03    1.32       5.6  T
     SCC iter.                  ...        0 min,  0.065 sec
     gradient                   ...        0 min,  0.014 sec
 * total energy  :  -204.0053757 Eh     change       -0.2416890E-03 Eh
   gradient norm :     0.0261825 Eh/α   predicted    -0.7637449E-03 ( 216.00%)
   displ. norm   :     0.1041661 α      lambda       -0.6399047E-03
   maximum displ.:     0.0414661 α      in ANC's #21, #5, #17, ...

........................................................................
.............................. CYCLE   28 ..............................
........................................................................
   1   -206.9664003 -0.206966E+03  0.647E-02    1.32       0.0  T
   2   -206.9664062 -0.590905E-05  0.352E-02    1.32       1.0  T
   3   -206.9663903  0.159674E-04  0.151E-02    1.33       1.0  T
   4   -206.9664098 -0.195725E-04  0.347E-03    1.32       3.0  T
   5   -206.9664099 -0.886493E-08  0.244E-03    1.33       4.3  T
   6   -206.9664103 -0.400441E-06  0.902E-04    1.32      11.5  T
     SCC iter.                  ...        0 min,  0.064 sec
     gradient                   ...        0 min,  0.014 sec
 * total energy  :  -204.0057260 Eh     change       -0.3502928E-03 Eh
   gradient norm :     0.0040146 Eh/α   predicted    -0.3234240E-03 (  -7.67%)
   displ. norm   :     0.1674252 α      lambda       -0.2056884E-03
   maximum displ.:     0.0719745 α      in ANC's #17, #6, #5, ...

........................................................................
.............................. CYCLE   29 ..............................
........................................................................
   1   -206.9631646 -0.206963E+03  0.703E-02    1.33       0.0  T
   2   -206.9631704 -0.585935E-05  0.387E-02    1.33       1.0  T
   3   -206.9631590  0.113914E-04  0.124E-02    1.33       1.0  T
   4   -206.9631736 -0.145426E-04  0.326E-03    1.33       3.2  T
   5   -206.9631736 -0.357474E-08  0.222E-03    1.33       4.7  T
   6   -206.9631739 -0.360127E-06  0.702E-04    1.33      14.8  T
     SCC iter.                  ...        0 min,  0.065 sec
     gradient                   ...        0 min,  0.014 sec
 * total energy  :  -204.0057792 Eh     change       -0.5321442E-04 Eh
   gradient norm :     0.0074917 Eh/α   predicted    -0.1057249E-03 (  98.68%)
   displ. norm   :     0.2085544 α      lambda       -0.2445944E-03
   maximum displ.:     0.0960326 α      in ANC's #6, #17, #5, ...

........................................................................
.............................. CYCLE   30 ..............................
........................................................................
   1   -206.9632163 -0.206963E+03  0.650E-02    1.32       0.0  T
   2   -206.9632212 -0.490849E-05  0.360E-02    1.33       1.0  T
   3   -206.9632036  0.176776E-04  0.152E-02    1.33       1.0  T
   4   -206.9632247 -0.211185E-04  0.376E-03    1.33       2.8  T
   5   -206.9632247 -0.276486E-07  0.247E-03    1.33       4.2  T
   6   -206.9632251 -0.409559E-06  0.648E-04    1.33      16.0  T
     SCC iter.                  ...        0 min,  0.064 sec
     gradient                   ...        0 min,  0.014 sec
 * total energy  :  -204.0059577 Eh     change       -0.1784809E-03 Eh
   gradient norm :     0.0064232 Eh/α   predicted    -0.1276168E-03 ( -28.50%)
   displ. norm   :     0.3346211 α      lambda       -0.2263931E-03
   maximum displ.:     0.1607580 α      in ANC's #6, #5, #17, ...

........................................................................
.............................. CYCLE   31 ..............................
........................................................................
   1   -206.9650861 -0.206965E+03  0.953E-02    1.32       0.0  T
   2   -206.9650957 -0.961902E-05  0.519E-02    1.33       1.0  T
   3   -206.9650638  0.318986E-04  0.209E-02    1.32       1.0  T
   4   -206.9651018 -0.379521E-04  0.620E-03    1.33       1.7  T
   5   -206.9651017  0.716856E-07  0.383E-03    1.33       2.7  T
   6   -206.9651028 -0.107251E-05  0.948E-04    1.33      10.9  T
   7   -206.9651028 -0.609472E-07  0.442E-04    1.33      23.4  T
     SCC iter.                  ...        0 min,  0.074 sec
     gradient                   ...        0 min,  0.014 sec
 * total energy  :  -204.0061285 Eh     change       -0.1708224E-03 Eh
   gradient norm :     0.0029649 Eh/α   predicted    -0.1258720E-03 ( -26.31%)
   displ. norm   :     0.3669746 α      lambda       -0.1749173E-03
   maximum displ.:     0.1856680 α      in ANC's #6, #5, #17, ...

........................................................................
.............................. CYCLE   32 ..............................
........................................................................
   1   -206.9661104 -0.206966E+03  0.985E-02    1.32       0.0  T
   2   -206.9661185 -0.812350E-05  0.538E-02    1.33       1.0  T
   3   -206.9660922  0.262870E-04  0.195E-02    1.32       1.0  T
   4   -206.9661232 -0.310209E-04  0.635E-03    1.33       1.6  T
   5   -206.9661232  0.915135E-07  0.373E-03    1.33       2.8  T
   6   -206.9661243 -0.112173E-05  0.806E-04    1.33      12.9  T
   7   -206.9661243 -0.369798E-07  0.429E-04    1.33      24.1  T
   8   -206.9661243 -0.461159E-08  0.259E-04    1.33      40.0  T
     SCC iter.                  ...        0 min,  0.083 sec
     gradient                   ...        0 min,  0.015 sec
 * total energy  :  -204.0062671 Eh     change       -0.1385810E-03 Eh
   gradient norm :     0.0032668 Eh/α   predicted    -0.9924107E-04 ( -28.39%)
   displ. norm   :     0.3286173 α      lambda       -0.1470477E-03
   maximum displ.:     0.1783891 α      in ANC's #6, #5, #17, ...

........................................................................
.............................. CYCLE   33 ..............................
........................................................................
   1   -206.9673968 -0.206967E+03  0.859E-02    1.32       0.0  T
   2   -206.9674020 -0.524578E-05  0.463E-02    1.32       1.0  T
   3   -206.9673927  0.930135E-05  0.131E-02    1.32       1.0  T
   4   -206.9674038 -0.110327E-04  0.580E-03    1.33       1.8  T
   5   -206.9674041 -0.367165E-06  0.281E-03    1.32       3.7  T
   6   -206.9674049 -0.735482E-06  0.599E-04    1.32      17.3  T
   7   -206.9674049 -0.100594E-07  0.389E-04    1.32      26.7  T
     SCC iter.                  ...        0 min,  0.074 sec
     gradient                   ...        0 min,  0.015 sec
 * total energy  :  -204.0063883 Eh     change       -0.1212197E-03 Eh
   gradient norm :     0.0039854 Eh/α   predicted    -0.8146480E-04 ( -32.80%)
   displ. norm   :     0.3330151 α      lambda       -0.1423731E-03
   maximum displ.:     0.1890116 α      in ANC's #6, #5, #17, ...

........................................................................
.............................. CYCLE   34 ..............................
........................................................................
   1   -206.9675187 -0.206968E+03  0.801E-02    1.32       0.0  T
   2   -206.9675228 -0.414646E-05  0.435E-02    1.32       1.0  T
   3   -206.9675183  0.455772E-05  0.104E-02    1.32       1.0  T
   4   -206.9675234 -0.510921E-05  0.555E-03    1.32       1.9  T
   5   -206.9675244 -0.103507E-05  0.189E-03    1.32       5.5  T
   6   -206.9675247 -0.307710E-06  0.602E-04    1.32      17.2  T
   7   -206.9675247 -0.728025E-08  0.397E-04    1.32      26.1  T
     SCC iter.                  ...        0 min,  0.074 sec
     gradient                   ...        0 min,  0.015 sec
 * total energy  :  -204.0065086 Eh     change       -0.1202878E-03 Eh
   gradient norm :     0.0031325 Eh/α   predicted    -0.7908495E-04 ( -34.25%)
   displ. norm   :     0.3553893 α      lambda       -0.1463777E-03
   maximum displ.:     0.2081314 α      in ANC's #6, #5, #7, ...

........................................................................
.............................. CYCLE   35 ..............................
........................................................................
   1   -206.9674004 -0.206967E+03  0.843E-02    1.32       0.0  T
   2   -206.9674055 -0.513639E-05  0.449E-02    1.32       1.0  T
   3   -206.9674035  0.201773E-05  0.946E-03    1.32       1.1  T
   4   -206.9674054 -0.192501E-05  0.604E-03    1.32       1.7  T
   5   -206.9674072 -0.175365E-05  0.159E-03    1.32       6.5  T
   6   -206.9674074 -0.201525E-06  0.711E-04    1.32      14.6  T
   7   -206.9674074 -0.144949E-07  0.477E-04    1.32      21.8  T
     SCC iter.                  ...        0 min,  0.074 sec
     gradient                   ...        0 min,  0.016 sec
 * total energy  :  -204.0066350 Eh     change       -0.1263603E-03 Eh
   gradient norm :     0.0027871 Eh/α   predicted    -0.8243524E-04 ( -34.76%)
   displ. norm   :     0.3841941 α      lambda       -0.1562174E-03
   maximum displ.:     0.2279970 α      in ANC's #6, #5, #7, ...

........................................................................
.............................. CYCLE   36 ..............................
........................................................................
   1   -206.9665491 -0.206967E+03  0.894E-02    1.32       0.0  T
   2   -206.9665547 -0.555655E-05  0.475E-02    1.32       1.0  T
   3   -206.9665524  0.224712E-05  0.982E-03    1.32       1.1  T
   4   -206.9665551 -0.265547E-05  0.605E-03    1.32       1.7  T
   5   -206.9665566 -0.155448E-05  0.177E-03    1.32       5.9  T
   6   -206.9665568 -0.183112E-06  0.100E-03    1.32      10.3  T
   7   -206.9665568 -0.114868E-07  0.740E-04    1.32      14.0  T
   8   -206.9665568 -0.591692E-08  0.449E-04    1.32      23.1  T
     SCC iter.                  ...        0 min,  0.084 sec
     gradient                   ...        0 min,  0.015 sec
 * total energy  :  -204.0067699 Eh     change       -0.1349680E-03 Eh
   gradient norm :     0.0030411 Eh/α   predicted    -0.8964310E-04 ( -33.58%)
   displ. norm   :     0.4349140 α      lambda       -0.1711254E-03
   maximum displ.:     0.2596868 α      in ANC's #6, #5, #1, ...

........................................................................
.............................. CYCLE   37 ..............................
........................................................................
   1   -206.9657557 -0.206966E+03  0.106E-01    1.32       0.0  T
   2   -206.9657644 -0.868627E-05  0.554E-02    1.32       1.0  T
   3   -206.9657614  0.294080E-05  0.117E-02    1.32       1.0  T
   4   -206.9657651 -0.364352E-05  0.728E-03    1.32       1.4  T
   5   -206.9657671 -0.202013E-05  0.268E-03    1.32       3.9  T
   6   -206.9657677 -0.557445E-06  0.126E-03    1.32       8.3  T
   7   -206.9657677 -0.210585E-07  0.918E-04    1.32      11.3  T
   8   -206.9657677 -0.941259E-08  0.540E-04    1.32      19.2  T
     SCC iter.                  ...        0 min,  0.085 sec
     gradient                   ...        0 min,  0.015 sec
 * total energy  :  -204.0069186 Eh     change       -0.1486626E-03 Eh
   gradient norm :     0.0034636 Eh/α   predicted    -0.1017501E-03 ( -31.56%)
   displ. norm   :     0.4740152 α      lambda       -0.1775420E-03
   maximum displ.:     0.2845064 α      in ANC's #6, #5, #1, ...

........................................................................
.............................. CYCLE   38 ..............................
........................................................................
   1   -206.9648383 -0.206965E+03  0.121E-01    1.32       0.0  T
   2   -206.9648493 -0.110431E-04  0.630E-02    1.32       1.0  T
   3   -206.9648471  0.228470E-05  0.125E-02    1.32       1.0  T
   4   -206.9648506 -0.351250E-05  0.799E-03    1.32       1.3  T
   5   -206.9648531 -0.250165E-05  0.283E-03    1.32       3.7  T
   6   -206.9648535 -0.426522E-06  0.174E-03    1.32       6.0  T
   7   -206.9648535 -0.430759E-07  0.127E-03    1.32       8.2  T
   8   -206.9648536 -0.189459E-07  0.714E-04    1.32      14.5  T
   9   -206.9648536 -0.230785E-07  0.366E-04    1.32      28.3  T
     SCC iter.                  ...        0 min,  0.095 sec
     gradient                   ...        0 min,  0.015 sec
 * total energy  :  -204.0070729 Eh     change       -0.1543069E-03 Eh
   gradient norm :     0.0035978 Eh/α   predicted    -0.1087218E-03 ( -29.54%)
   displ. norm   :     0.5148903 α      lambda       -0.1861281E-03
   maximum displ.:     0.3116195 α      in ANC's #6, #5, #1, ...

........................................................................
.............................. CYCLE   39 ..............................
........................................................................
   1   -206.9643334 -0.206964E+03  0.133E-01    1.32       0.0  T
   2   -206.9643475 -0.141456E-04  0.687E-02    1.32       1.0  T
   3   -206.9643451  0.242259E-05  0.137E-02    1.32       1.0  T
   4   -206.9643485 -0.341658E-05  0.891E-03    1.32       1.2  T
   5   -206.9643522 -0.370622E-05  0.264E-03    1.32       3.9  T
   6   -206.9643525 -0.300435E-06  0.171E-03    1.32       6.1  T
   7   -206.9643526 -0.404121E-07  0.126E-03    1.32       8.3  T
   8   -206.9643526 -0.310442E-08  0.781E-04    1.32      13.3  T
   9   -206.9643526 -0.338377E-07  0.383E-04    1.32      27.1  T
     SCC iter.                  ...        0 min,  0.095 sec
     gradient                   ...        0 min,  0.015 sec
 * total energy  :  -204.0072360 Eh     change       -0.1631016E-03 Eh
   gradient norm :     0.0035628 Eh/α   predicted    -0.1177421E-03 ( -27.81%)
   displ. norm   :     0.5627310 α      lambda       -0.2040630E-03
   maximum displ.:     0.3430769 α      in ANC's #6, #5, #1, ...

........................................................................
.............................. CYCLE   40 ..............................
........................................................................
   1   -206.9643230 -0.206964E+03  0.148E-01    1.32       0.0  T
   2   -206.9643396 -0.165741E-04  0.763E-02    1.32       1.0  T
   3   -206.9643374  0.220793E-05  0.147E-02    1.32       1.0  T
   4   -206.9643408 -0.339079E-05  0.991E-03    1.32       1.0  T
   5   -206.9643451 -0.434972E-05  0.311E-03    1.32       3.3  T
   6   -206.9643455 -0.372550E-06  0.206E-03    1.32       5.0  T
   7   -206.9643455 -0.517383E-07  0.149E-03    1.32       7.0  T
   8   -206.9643456 -0.167458E-07  0.797E-04    1.32      13.0  T
   9   -206.9643456 -0.303607E-07  0.394E-04    1.32      26.3  T
     SCC iter.                  ...        0 min,  0.096 sec
     gradient                   ...        0 min,  0.015 sec
 * total energy  :  -204.0074165 Eh     change       -0.1804898E-03 Eh
   gradient norm :     0.0034106 Eh/α   predicted    -0.1343467E-03 ( -25.57%)
   displ. norm   :     0.6226888 α      lambda       -0.2303571E-03
   maximum displ.:     0.3816556 α      in ANC's #6, #5, #1, ...

........................................................................
.............................. CYCLE   41 ..............................
........................................................................
   1   -206.9647904 -0.206965E+03  0.157E-01    1.32       0.0  T
   2   -206.9648085 -0.181394E-04  0.808E-02    1.32       1.0  T
   3   -206.9648013  0.725789E-05  0.169E-02    1.32       1.0  T
   4   -206.9648099 -0.863095E-05  0.108E-02    1.32       1.0  T
   5   -206.9648147 -0.482233E-05  0.350E-03    1.32       3.0  T
   6   -206.9648154 -0.656607E-06  0.201E-03    1.32       5.2  T
   7   -206.9648154 -0.450198E-07  0.146E-03    1.32       7.1  T
   8   -206.9648154 -0.126846E-07  0.878E-04    1.32      11.8  T
   9   -206.9648155 -0.330350E-07  0.396E-04    1.32      26.2  T
     SCC iter.                  ...        0 min,  0.096 sec
     gradient                   ...        0 min,  0.015 sec
 * total energy  :  -204.0076189 Eh     change       -0.2024179E-03 Eh
   gradient norm :     0.0033318 Eh/α   predicted    -0.1598412E-03 ( -21.03%)
   displ. norm   :     0.6634068 α      lambda       -0.2403222E-03
   maximum displ.:     0.4080222 α      in ANC's #6, #5, #1, ...

........................................................................
.............................. CYCLE   42 ..............................
........................................................................
   1   -206.9655837 -0.206966E+03  0.168E-01    1.32       0.0  T
   2   -206.9656034 -0.196830E-04  0.864E-02    1.32       1.0  T
   3   -206.9655926  0.108098E-04  0.184E-02    1.32       1.0  T
   4   -206.9656056 -0.130363E-04  0.114E-02    1.32       1.0  T
   5   -206.9656105 -0.483248E-05  0.402E-03    1.32       2.6  T
   6   -206.9656114 -0.889289E-06  0.222E-03    1.32       4.7  T
   7   -206.9656114 -0.285469E-07  0.157E-03    1.32       6.6  T
   8   -206.9656114 -0.350499E-07  0.823E-04    1.32      12.6  T
   9   -206.9656114 -0.253429E-07  0.383E-04    1.32      27.1  T
     SCC iter.                  ...        0 min,  0.096 sec
     gradient                   ...        0 min,  0.017 sec
 * total energy  :  -204.0078266 Eh     change       -0.2076566E-03 Eh
   gradient norm :     0.0034642 Eh/α   predicted    -0.1730476E-03 ( -16.67%)
   displ. norm   :     0.6717616 α      lambda       -0.2244305E-03
   maximum displ.:     0.4137625 α      in ANC's #6, #5, #1, ...
 * RMSD in coord.:     0.6714679 α      energy gain  -0.3930926E-02 Eh

generating ANC from model Hessian ...
Using Lindh-Hessian (1995)
 Shifting diagonal of input Hessian by   5.001641026634141E-003
 Lowest  eigenvalues of input Hessian
    0.005000   -0.000000   -0.000000   -0.000000    0.000000    0.000000
    0.000000    0.005024    0.005041    0.005056    0.005081    0.005137
    0.005237    0.005292    0.005553    0.005648    0.005710    0.005819
 Highest eigenvalues
    2.504643    2.506309    2.604024    2.604295    2.643574    2.647801
 

........................................................................
.............................. CYCLE   43 ..............................
........................................................................
   1   -206.9660852 -0.206966E+03  0.156E-01    1.31       0.0  T
   2   -206.9661022 -0.169844E-04  0.816E-02    1.31       1.0  T
   3   -206.9660899  0.123294E-04  0.180E-02    1.31       1.0  T
   4   -206.9661037 -0.138250E-04  0.109E-02    1.32       1.0  T
   5   -206.9661083 -0.460748E-05  0.377E-03    1.31       2.7  T
   6   -206.9661092 -0.876428E-06  0.198E-03    1.31       5.2  T
   7   -206.9661092 -0.448328E-07  0.148E-03    1.31       7.0  T
   8   -206.9661092 -0.157836E-07  0.915E-04    1.31      11.3  T
   9   -206.9661093 -0.294363E-07  0.446E-04    1.31      23.2  T
     SCC iter.                  ...        0 min,  0.095 sec
     gradient                   ...        0 min,  0.015 sec
 * total energy  :  -204.0080169 Eh     change       -0.1903363E-03 Eh
   gradient norm :     0.0033653 Eh/α   predicted     0.0000000E+00 (-100.00%)
   displ. norm   :     0.0753862 α      lambda       -0.5754516E-04
   maximum displ.:     0.0373725 α      in ANC's #6, #5, #19, ...

........................................................................
.............................. CYCLE   44 ..............................
........................................................................
   1   -206.9666446 -0.206967E+03  0.265E-02    1.31       0.0  T
   2   -206.9666455 -0.911674E-06  0.139E-02    1.31       1.0  T
   3   -206.9666438  0.163741E-05  0.517E-03    1.31       2.0  T
   4   -206.9666458 -0.195429E-05  0.194E-03    1.31       5.3  T
   5   -206.9666459 -0.650909E-07  0.107E-03    1.31       9.7  T
   6   -206.9666459 -0.620937E-07  0.467E-04    1.31      22.2  T
   7   -206.9666459 -0.105659E-07  0.288E-04    1.31      36.0  T
     SCC iter.                  ...        0 min,  0.075 sec
     gradient                   ...        0 min,  0.015 sec
 * total energy  :  -204.0080621 Eh     change       -0.4524376E-04 Eh
   gradient norm :     0.0020852 Eh/α   predicted    -0.2894500E-04 ( -36.02%)
   displ. norm   :     0.1031844 α      lambda       -0.7215416E-04
   maximum displ.:     0.0450704 α      in ANC's #6, #19, #8, ...

........................................................................
.............................. CYCLE   45 ..............................
........................................................................
   1   -206.9674050 -0.206967E+03  0.389E-02    1.31       0.0  T
   2   -206.9674075 -0.244855E-05  0.215E-02    1.31       1.0  T
   3   -206.9674045  0.296424E-05  0.712E-03    1.31       1.5  T
   4   -206.9674084 -0.385935E-05  0.222E-03    1.31       4.7  T
   5   -206.9674085 -0.140176E-06  0.120E-03    1.31       8.6  T
   6   -206.9674085 -0.484663E-07  0.614E-04    1.31      16.9  T
   7   -206.9674086 -0.172956E-07  0.337E-04    1.31      30.8  T
     SCC iter.                  ...        0 min,  0.074 sec
     gradient                   ...        0 min,  0.015 sec
 * total energy  :  -204.0080928 Eh     change       -0.3064056E-04 Eh
   gradient norm :     0.0029156 Eh/α   predicted    -0.3646496E-04 (  19.01%)
   displ. norm   :     0.1717151 α      lambda       -0.1076042E-03
   maximum displ.:     0.0699883 α      in ANC's #6, #5, #20, ...

........................................................................
.............................. CYCLE   46 ..............................
........................................................................
   1   -206.9678785 -0.206968E+03  0.611E-02    1.31       0.0  T
   2   -206.9678833 -0.482462E-05  0.343E-02    1.31       1.0  T
   3   -206.9678715  0.117978E-04  0.131E-02    1.31       1.0  T
   4   -206.9678858 -0.142397E-04  0.310E-03    1.31       3.3  T
   5   -206.9678861 -0.305116E-06  0.181E-03    1.31       5.7  T
   6   -206.9678862 -0.106371E-06  0.951E-04    1.31      10.9  T
   7   -206.9678862 -0.353301E-07  0.491E-04    1.31      21.1  T
     SCC iter.                  ...        0 min,  0.074 sec
     gradient                   ...        0 min,  0.015 sec
 * total energy  :  -204.0080954 Eh     change       -0.2597778E-05 Eh
   gradient norm :     0.0051514 Eh/α   predicted    -0.5538872E-04 (2032.16%)
   displ. norm   :     0.0940757 α      lambda       -0.1427815E-03
   maximum displ.:     0.0454962 α      in ANC's #6, #19, #8, ...

........................................................................
.............................. CYCLE   47 ..............................
........................................................................
   1   -206.9679601 -0.206968E+03  0.451E-02    1.31       0.0  T
   2   -206.9679623 -0.216612E-05  0.249E-02    1.31       1.0  T
   3   -206.9679608  0.151476E-05  0.554E-03    1.31       1.9  T
   4   -206.9679634 -0.256554E-05  0.168E-03    1.31       6.2  T
   5   -206.9679634 -0.244324E-07  0.893E-04    1.31      11.6  T
     SCC iter.                  ...        0 min,  0.053 sec
     gradient                   ...        0 min,  0.015 sec
 * total energy  :  -204.0081502 Eh     change       -0.5480160E-04 Eh
   gradient norm :     0.0035647 Eh/α   predicted    -0.7202426E-04 (  31.43%)
   displ. norm   :     0.0451916 α      lambda       -0.5893732E-04
   maximum displ.:     0.0199639 α      in ANC's #45, #6, #20, ...

........................................................................
.............................. CYCLE   48 ..............................
........................................................................
   1   -206.9672480 -0.206967E+03  0.395E-02    1.31       0.0  T
   2   -206.9672497 -0.171478E-05  0.202E-02    1.31       1.0  T
   3   -206.9672479  0.174171E-05  0.547E-03    1.31       1.9  T
   4   -206.9672504 -0.243959E-05  0.210E-03    1.31       4.9  T
   5   -206.9672504 -0.536413E-07  0.115E-03    1.31       9.1  T
   6   -206.9672505 -0.707063E-07  0.581E-04    1.31      17.8  T
   7   -206.9672505 -0.850829E-08  0.420E-04    1.31      24.7  T
     SCC iter.                  ...        0 min,  0.075 sec
     gradient                   ...        0 min,  0.015 sec
 * total energy  :  -204.0081748 Eh     change       -0.2463203E-04 Eh
   gradient norm :     0.0021194 Eh/α   predicted    -0.2953105E-04 (  19.89%)
   displ. norm   :     0.0830111 α      lambda       -0.5603341E-04
   maximum displ.:     0.0425528 α      in ANC's #6, #5, #9, ...

........................................................................
.............................. CYCLE   49 ..............................
........................................................................
   1   -206.9665760 -0.206967E+03  0.429E-02    1.31       0.0  T
   2   -206.9665779 -0.196623E-05  0.225E-02    1.31       1.0  T
   3   -206.9665758  0.215803E-05  0.614E-03    1.31       1.7  T
   4   -206.9665788 -0.304283E-05  0.225E-03    1.31       4.6  T
   5   -206.9665789 -0.551864E-07  0.112E-03    1.31       9.2  T
   6   -206.9665789 -0.766269E-07  0.594E-04    1.31      17.5  T
   7   -206.9665789 -0.657960E-08  0.437E-04    1.31      23.7  T
     SCC iter.                  ...        0 min,  0.074 sec
     gradient                   ...        0 min,  0.015 sec
 * total energy  :  -204.0081915 Eh     change       -0.1670974E-04 Eh
   gradient norm :     0.0025527 Eh/α   predicted    -0.2821324E-04 (  68.84%)
   displ. norm   :     0.1269415 α      lambda       -0.6337010E-04
   maximum displ.:     0.0650070 α      in ANC's #6, #5, #9, ...

........................................................................
.............................. CYCLE   50 ..............................
........................................................................
   1   -206.9663713 -0.206966E+03  0.414E-02    1.31       0.0  T
   2   -206.9663727 -0.139802E-05  0.231E-02    1.31       1.0  T
   3   -206.9663713  0.143520E-05  0.517E-03    1.31       2.0  T
   4   -206.9663733 -0.205088E-05  0.176E-03    1.31       5.9  T
   5   -206.9663734 -0.345093E-07  0.942E-04    1.31      11.0  T
   6   -206.9663734 -0.649886E-07  0.387E-04    1.31      26.8  T
     SCC iter.                  ...        0 min,  0.063 sec
     gradient                   ...        0 min,  0.015 sec
 * total energy  :  -204.0082149 Eh     change       -0.2333620E-04 Eh
   gradient norm :     0.0026638 Eh/α   predicted    -0.3219906E-04 (  37.98%)
   displ. norm   :     0.2094902 α      lambda       -0.1059143E-03
   maximum displ.:     0.1124634 α      in ANC's #6, #5, #9, ...

........................................................................
.............................. CYCLE   51 ..............................
........................................................................
   1   -206.9665637 -0.206967E+03  0.615E-02    1.31       0.0  T
   2   -206.9665671 -0.342402E-05  0.337E-02    1.31       1.0  T
   3   -206.9665662  0.952544E-06  0.653E-03    1.31       1.6  T
   4   -206.9665680 -0.183869E-05  0.346E-03    1.31       3.0  T
   5   -206.9665683 -0.340289E-06  0.135E-03    1.31       7.7  T
   6   -206.9665685 -0.117497E-06  0.633E-04    1.31      16.4  T
   7   -206.9665685 -0.146301E-07  0.409E-04    1.31      25.3  T
     SCC iter.                  ...        0 min,  0.074 sec
     gradient                   ...        0 min,  0.015 sec
 * total energy  :  -204.0082621 Eh     change       -0.4722488E-04 Eh
   gradient norm :     0.0028688 Eh/α   predicted    -0.5528127E-04 (  17.06%)
   displ. norm   :     0.1467973 α      lambda       -0.5591949E-04
   maximum displ.:     0.0838680 α      in ANC's #6, #5, #8, ...

........................................................................
.............................. CYCLE   52 ..............................
........................................................................
   1   -206.9666022 -0.206967E+03  0.519E-02    1.31       0.0  T
   2   -206.9666044 -0.216381E-05  0.265E-02    1.31       1.0  T
   3   -206.9666044 -0.915051E-08  0.461E-03    1.31       2.3  T
   4   -206.9666047 -0.279609E-06  0.316E-03    1.31       3.3  T
   5   -206.9666050 -0.389054E-06  0.115E-03    1.31       9.0  T
   6   -206.9666051 -0.685042E-07  0.667E-04    1.31      15.5  T
   7   -206.9666051 -0.220891E-08  0.501E-04    1.31      20.7  T
     SCC iter.                  ...        0 min,  0.074 sec
     gradient                   ...        0 min,  0.015 sec
 * total energy  :  -204.0083095 Eh     change       -0.4742223E-04 Eh
   gradient norm :     0.0019993 Eh/α   predicted    -0.2856476E-04 ( -39.77%)
   displ. norm   :     0.4252474 α      lambda       -0.8251572E-04
   maximum displ.:     0.2368031 α      in ANC's #6, #5, #8, ...

........................................................................
.............................. CYCLE   53 ..............................
........................................................................
   1   -206.9662784 -0.206966E+03  0.142E-01    1.30       0.0  T
   2   -206.9662940 -0.155946E-04  0.729E-02    1.30       1.0  T
   3   -206.9662944 -0.366231E-06  0.126E-02    1.30       1.0  T
   4   -206.9662952 -0.818524E-06  0.896E-03    1.30       1.2  T
   5   -206.9662990 -0.379016E-05  0.314E-03    1.30       3.3  T
   6   -206.9662994 -0.457315E-06  0.197E-03    1.30       5.3  T
   7   -206.9662995 -0.253717E-07  0.149E-03    1.30       6.9  T
   8   -206.9662995 -0.610471E-07  0.710E-04    1.30      14.6  T
   9   -206.9662995 -0.128197E-07  0.393E-04    1.30      26.4  T
     SCC iter.                  ...        0 min,  0.095 sec
     gradient                   ...        0 min,  0.015 sec
 * total energy  :  -204.0083985 Eh     change       -0.8897012E-04 Eh
   gradient norm :     0.0030261 Eh/α   predicted    -0.4457538E-04 ( -49.90%)
   displ. norm   :     0.3337535 α      lambda       -0.7013336E-04
   maximum displ.:     0.1860056 α      in ANC's #6, #5, #8, ...

........................................................................
.............................. CYCLE   54 ..............................
........................................................................
   1   -206.9661925 -0.206966E+03  0.941E-02    1.30       0.0  T
   2   -206.9661994 -0.689286E-05  0.493E-02    1.30       1.0  T
   3   -206.9661989  0.549421E-06  0.899E-03    1.30       1.2  T
   4   -206.9661999 -0.100083E-05  0.606E-03    1.30       1.7  T
   5   -206.9662014 -0.153547E-05  0.243E-03    1.30       4.3  T
   6   -206.9662018 -0.401061E-06  0.124E-03    1.30       8.3  T
   7   -206.9662018 -0.377905E-07  0.894E-04    1.30      11.6  T
   8   -206.9662018 -0.848698E-08  0.517E-04    1.30      20.0  T
     SCC iter.                  ...        0 min,  0.085 sec
     gradient                   ...        0 min,  0.015 sec
 * total energy  :  -204.0084618 Eh     change       -0.6328798E-04 Eh
   gradient norm :     0.0028708 Eh/α   predicted    -0.3897302E-04 ( -38.42%)
   displ. norm   :     0.5057518 α      lambda       -0.1126374E-03
   maximum displ.:     0.2881361 α      in ANC's #6, #5, #8, ...

........................................................................
.............................. CYCLE   55 ..............................
........................................................................
   1   -206.9662319 -0.206966E+03  0.138E-01    1.30       0.0  T
   2   -206.9662470 -0.150839E-04  0.723E-02    1.30       1.0  T
   3   -206.9662440  0.298364E-05  0.140E-02    1.30       1.0  T
   4   -206.9662485 -0.450085E-05  0.886E-03    1.30       1.2  T
   5   -206.9662512 -0.270640E-05  0.389E-03    1.30       2.7  T
   6   -206.9662523 -0.112187E-05  0.179E-03    1.30       5.8  T
   7   -206.9662524 -0.847169E-07  0.127E-03    1.30       8.2  T
   8   -206.9662524 -0.886135E-08  0.796E-04    1.30      13.0  T
   9   -206.9662524 -0.211687E-07  0.362E-04    1.30      28.6  T
     SCC iter.                  ...        0 min,  0.099 sec
     gradient                   ...        0 min,  0.017 sec
 * total energy  :  -204.0085600 Eh     change       -0.9822217E-04 Eh
   gradient norm :     0.0021923 Eh/α   predicted    -0.7072664E-04 ( -27.99%)
   displ. norm   :     0.5352868 α      lambda       -0.1122836E-03
   maximum displ.:     0.3135284 α      in ANC's #6, #5, #1, ...

........................................................................
.............................. CYCLE   56 ..............................
........................................................................
   1   -206.9665168 -0.206967E+03  0.144E-01    1.30       0.0  T
   2   -206.9665330 -0.161871E-04  0.749E-02    1.30       1.0  T
   3   -206.9665270  0.604486E-05  0.155E-02    1.30       1.0  T
   4   -206.9665351 -0.810334E-05  0.934E-03    1.30       1.1  T
   5   -206.9665375 -0.237721E-05  0.449E-03    1.30       2.3  T
   6   -206.9665391 -0.161979E-05  0.184E-03    1.30       5.6  T
   7   -206.9665392 -0.735223E-07  0.132E-03    1.30       7.8  T
   8   -206.9665392 -0.651013E-08  0.866E-04    1.30      12.0  T
   9   -206.9665392 -0.261366E-07  0.390E-04    1.30      26.6  T
     SCC iter.                  ...        0 min,  0.095 sec
     gradient                   ...        0 min,  0.015 sec
 * total energy  :  -204.0086563 Eh     change       -0.9629536E-04 Eh
   gradient norm :     0.0019588 Eh/α   predicted    -0.7223453E-04 ( -24.99%)
   displ. norm   :     0.8105213 α      lambda       -0.1009573E-03
   maximum displ.:     0.4850778 α      in ANC's #6, #5, #1, ...

........................................................................
.............................. CYCLE   57 ..............................
........................................................................
   1   -206.9659971 -0.206966E+03  0.214E-01    1.30       0.0  T
   2   -206.9660317 -0.345174E-04  0.111E-01    1.30       1.0  T
   3   -206.9660166  0.150516E-04  0.234E-02    1.30       1.0  T
   4   -206.9660358 -0.191847E-04  0.140E-02    1.30       1.0  T
   5   -206.9660413 -0.550123E-05  0.674E-03    1.30       1.5  T
   6   -206.9660450 -0.370974E-05  0.269E-03    1.30       3.9  T
   7   -206.9660451 -0.112285E-06  0.198E-03    1.30       5.2  T
   8   -206.9660451 -0.155516E-07  0.129E-03    1.30       8.0  T
   9   -206.9660452 -0.664676E-07  0.588E-04    1.30      17.6  T
  10   -206.9660452 -0.764567E-08  0.351E-04    1.30      29.5  T
     SCC iter.                  ...        0 min,  0.105 sec
     gradient                   ...        0 min,  0.015 sec
 * total energy  :  -204.0087777 Eh     change       -0.1214135E-03 Eh
   gradient norm :     0.0028745 Eh/α   predicted    -0.6522170E-04 ( -46.28%)
   displ. norm   :     0.4069087 α      lambda       -0.7151824E-04
   maximum displ.:     0.2481431 α      in ANC's #6, #5, #1, ...

........................................................................
.............................. CYCLE   58 ..............................
........................................................................
   1   -206.9668034 -0.206967E+03  0.105E-01    1.30       0.0  T
   2   -206.9668112 -0.779395E-05  0.545E-02    1.30       1.0  T
   3   -206.9668083  0.294460E-05  0.111E-02    1.30       1.0  T
   4   -206.9668116 -0.331399E-05  0.713E-03    1.30       1.5  T
   5   -206.9668134 -0.181186E-05  0.323E-03    1.30       3.2  T
   6   -206.9668143 -0.852989E-06  0.136E-03    1.30       7.6  T
   7   -206.9668143 -0.125513E-07  0.101E-03    1.30      10.3  T
   8   -206.9668143 -0.140176E-07  0.578E-04    1.30      17.9  T
   9   -206.9668143 -0.119355E-07  0.290E-04    1.30      35.8  T
     SCC iter.                  ...        0 min,  0.094 sec
     gradient                   ...        0 min,  0.015 sec
 * total energy  :  -204.0088413 Eh     change       -0.6362496E-04 Eh
   gradient norm :     0.0025723 Eh/α   predicted    -0.4168261E-04 ( -34.49%)
   displ. norm   :     0.4410718 α      lambda       -0.7941676E-04
   maximum displ.:     0.2703289 α      in ANC's #6, #5, #1, ...

........................................................................
.............................. CYCLE   59 ..............................
........................................................................
   1   -206.9669029 -0.206967E+03  0.112E-01    1.30       0.0  T
   2   -206.9669114 -0.847832E-05  0.579E-02    1.30       1.0  T
   3   -206.9669082  0.324792E-05  0.117E-02    1.30       1.0  T
   4   -206.9669114 -0.320000E-05  0.774E-03    1.30       1.3  T
   5   -206.9669141 -0.269868E-05  0.304E-03    1.30       3.4  T
   6   -206.9669148 -0.686745E-06  0.144E-03    1.30       7.2  T
   7   -206.9669148 -0.109350E-07  0.108E-03    1.30       9.6  T
   8   -206.9669148 -0.246157E-07  0.571E-04    1.30      18.2  T
   9   -206.9669148 -0.954864E-08  0.309E-04    1.30      33.5  T
     SCC iter.                  ...        0 min,  0.094 sec
     gradient                   ...        0 min,  0.015 sec
 * total energy  :  -204.0089128 Eh     change       -0.7144005E-04 Eh
   gradient norm :     0.0019925 Eh/α   predicted    -0.4743618E-04 ( -33.60%)
   displ. norm   :     0.6787662 α      lambda       -0.8344722E-04
   maximum displ.:     0.4190170 α      in ANC's #6, #5, #1, ...

........................................................................
.............................. CYCLE   60 ..............................
........................................................................
   1   -206.9671000 -0.206967E+03  0.168E-01    1.29       0.0  T
   2   -206.9671179 -0.178701E-04  0.876E-02    1.29       1.0  T
   3   -206.9671129  0.492796E-05  0.170E-02    1.29       1.0  T
[...]
       189                         -0.2953513              -8.0369
       190                         -0.2893238              -7.8729
       191                         -0.2804195              -7.6306
       ...                                ...                  ...
       341                          1.1515471              31.3352
      -------------------------------------------------------------
                  HL-Gap            0.0464685 Eh            1.2645 eV
             Fermi-level           -0.3800387 Eh          -10.3414 eV

     #   Z        covCN         q      C6AA      α(0)
     1   6 C      3.011     0.034    27.223     8.559
     2   6 C      2.947     0.014    27.700     8.632
     3   6 C      1.939     0.125    28.018     8.548
     4   7 N      0.911    -0.219    25.790     7.345
     5   6 C      1.938     0.122    28.094     8.560
     6   7 N      0.911    -0.219    25.779     7.343
     7   6 C      3.033     0.008    27.800     8.648
     8   6 C      3.036    -0.015    28.354     8.734
     9   6 C      2.910    -0.014    28.356     8.732
    10   6 C      3.147     0.011    27.499     8.579
    11   6 C      3.007     0.031    27.291     8.569
    12   6 C      2.934    -0.033    28.814     8.803
    13  16 S      2.397     0.028   139.919    19.909
    14   6 C      2.933     0.091    25.982     8.359
    15   6 C      3.101    -0.055    29.235     8.860
    16  35 Br     1.142    -0.102   187.857    22.099
    17   6 C      2.861     0.239    23.013     7.863
    18   8 O      0.856    -0.353    20.762     6.109
    19   6 C      3.006    -0.014    28.351     8.734
    20   6 C      2.893    -0.018    28.462     8.747
    21   6 C      3.040     0.151    24.700     8.152
    22   8 O      1.732    -0.165    16.785     5.532
    23   6 C      3.126    -0.035    28.666     8.767
    24   6 C      2.806     0.304    21.850     7.658
    25   8 O      0.857    -0.361    20.919     6.132
    26   7 N      2.771    -0.176    24.797     7.396
    27   6 C      2.809     0.294    22.014     7.687
    28   8 O      0.857    -0.369    21.062     6.153
    29   6 C      3.127    -0.056    29.194     8.847
    30   6 C      3.040     0.150    24.712     8.154
    31   6 C      2.898    -0.038    28.945     8.821
    32   6 C      2.899    -0.037    28.929     8.819
    33   6 C      3.045     0.147    24.778     8.164
    34   8 O      1.731    -0.166    16.796     5.534
    35   6 C      3.117    -0.057    29.245     8.858
    36   6 C      2.812     0.293    22.033     7.691
    37   8 O      0.857    -0.366    21.020     6.147
    38   7 N      2.772    -0.177    24.819     7.399
    39   6 C      2.806     0.295    21.994     7.683
    40   8 O      0.857    -0.387    21.416     6.205
    41   6 C      3.141    -0.056    29.137     8.833
    42   6 C      3.032     0.147    24.787     8.166
    43   6 C      2.911    -0.029    28.726     8.789
    44   6 C      2.892    -0.027    28.681     8.781
    45   6 C      3.039     0.146    24.783     8.165
    46   8 O      1.736    -0.172    16.888     5.549
    47   6 C      3.120    -0.054    29.161     8.844
    48   6 C      2.804     0.293    22.045     7.692
    49   8 O      0.857    -0.361    20.916     6.132
    50   7 N      2.771    -0.182    24.929     7.416
    51   6 C      2.803     0.292    22.046     7.692
    52   8 O      0.857    -0.363    20.961     6.138
    53   6 C      3.122    -0.054    29.140     8.840
    54   6 C      3.033     0.144    24.835     8.174
    55   6 C      2.896    -0.030    28.736     8.789
    56   6 C      2.905    -0.016    28.402     8.739
    57   6 C      2.903    -0.006    28.170     8.703
    58   6 C      3.005    -0.022    28.529     8.762
    59   6 C      3.005     0.035    27.208     8.556
    60   6 C      2.947     0.020    27.553     8.609
    61   6 C      1.952     0.135    27.787     8.513
    62   7 N      0.911    -0.229    26.022     7.378
    63   6 C      1.948     0.131    27.879     8.527
    64   7 N      0.911    -0.238    26.211     7.404
    65   6 C      3.042     0.007    27.832     8.653
    66   6 C      3.032    -0.021    28.501     8.757
    67   6 C      2.872     0.227    23.241     7.903
    68   8 O      0.856    -0.352    20.744     6.106
    69   6 C      2.910    -0.017    28.444     8.745
    70   6 C      3.148     0.009    27.544     8.585
    71   6 C      3.008     0.031    27.300     8.571
    72   6 C      2.934    -0.033    28.825     8.805
    73  16 S      2.397     0.022   140.178    19.927
    74   6 C      2.933     0.091    25.987     8.360
    75   6 C      3.101    -0.056    29.253     8.863
    76  35 Br     1.141    -0.106   187.967    22.106
    77   1 H      0.926     0.075     2.033     2.230
    78   1 H      0.926     0.070     2.091     2.261
    79   1 H      0.926     0.073     2.053     2.240
    80   1 H      0.925     0.091     1.870     2.138
    81   1 H      0.860     0.208     1.066     1.618
    82   1 H      0.925     0.106     1.727     2.055
    83   1 H      0.925     0.109     1.704     2.041
    84   1 H      0.860     0.211     1.054     1.608
    85   1 H      0.925     0.098     1.800     2.098
    86   1 H      0.926     0.091     1.869     2.138
    87   1 H      0.860     0.205     1.080     1.628
    88   1 H      0.926     0.084     1.938     2.177
    89   1 H      0.926     0.073     2.047     2.238
    90   1 H      0.925     0.084     1.939     2.177
    91   1 H      0.926     0.072     2.068     2.249
    92   1 H      0.926     0.068     2.106     2.270
    93   1 H      0.926     0.071     2.071     2.251

 Mol. C6AA /au·bohr⁶  :     191145.333086
 Mol. C8AA /au·bohr⁸  :    5523268.126404
 Mol. α(0) /au        :        695.517994


Wiberg/Mayer (AO) data.
largest (>0.10) Wiberg bond orders for each atom
          total WBO             WBO to atom ...
     1  C   3.973        C    2 1.496    C   19 1.121    C    7 1.099
     2  C   3.939        C    1 1.496    C    5 1.094    C    3 1.094
     3  C   3.947        N    4 2.772    C    2 1.094
     4  N   2.975        C    3 2.772
     5  C   3.947        N    6 2.769    C    2 1.094
     6  N   2.971        C    5 2.769
     7  C   3.980        C   12 1.421    C    8 1.240    C    1 1.099
     8  C   3.979        C    9 1.466    C    7 1.240    C   17 1.030
     9  C   3.972        C    8 1.466    C   10 1.319    H   77 0.961
    10  C   3.974        C    9 1.319    C   11 1.259    C   15 1.207
    11  C   3.951        C   12 1.383    C   10 1.259    S   13 1.124
    12  C   3.973        C    7 1.421    C   11 1.383    H   78 0.957
    13  S   2.566        C   14 1.134    C   11 1.124
    14  C   3.901        C   15 1.606    S   13 1.134    Br  16 1.034
    15  C   3.973        C   14 1.606    C   10 1.207    H   79 0.958
    16  Br  1.175        C   14 1.034
    17  C   3.924        O   18 1.791    C    8 1.030    C   19 0.997
    18  O   2.070        C   17 1.791
    19  C   3.958        C   20 1.614    C    1 1.121    C   17 0.997
    20  C   3.952        C   19 1.614    C   21 1.172    H   80 0.940
    21  C   3.904        C   23 1.403    C   20 1.172    O   22 1.104
    22  O   2.442        C   30 1.115    C   21 1.104
    23  C   3.957        C   21 1.403    C   29 1.278    C   24 1.005
    24  C   3.943        O   25 1.758    N   26 1.114    C   23 1.005
    25  O   2.081        C   24 1.758    N   26 0.136
    26  N   3.504        C   27 1.118    C   24 1.114    H   81 0.924    O   25 0.136    O   28 0.135
    27  C   3.943        O   28 1.738    N   26 1.118    C   29 1.017
    28  O   2.068        C   27 1.738    N   26 0.135
    29  C   3.941        C   30 1.383    C   23 1.278    C   27 1.017
    30  C   3.906        C   29 1.383    C   31 1.185    O   22 1.115
    31  C   3.951        C   32 1.640    C   30 1.185    H   82 0.949
    32  C   3.949        C   31 1.640    C   33 1.187    H   83 0.946
    33  C   3.904        C   35 1.394    C   32 1.187    O   34 1.104
    34  O   2.437        C   42 1.110    C   33 1.104
    35  C   3.939        C   33 1.394    C   41 1.270    C   36 1.017
    36  C   3.941        O   37 1.743    N   38 1.113    C   35 1.017
    37  O   2.070        C   36 1.743    N   38 0.134
    38  N   3.502        C   39 1.121    C   36 1.113    H   84 0.924    O   40 0.135    O   37 0.134
    39  C   3.940        O   40 1.727    N   38 1.121    C   41 1.022
    40  O   2.051        C   39 1.727    N   38 0.135
    41  C   3.945        C   42 1.391    C   35 1.270    C   39 1.022
    42  C   3.907        C   41 1.391    C   43 1.190    O   34 1.110
    43  C   3.966        C   44 1.645    C   42 1.190    H   85 0.948
    44  C   3.953        C   43 1.645    C   45 1.174    H   86 0.959
    45  C   3.901        C   47 1.404    C   44 1.174    O   46 1.106
    46  O   2.443        C   45 1.106    C   54 1.102
    47  C   3.938        C   45 1.404    C   53 1.262    C   48 1.016
    48  C   3.943        O   49 1.753    N   50 1.109    C   47 1.016
    49  O   2.072        C   48 1.753    N   50 0.136
    50  N   3.495        C   51 1.113    C   48 1.109    H   87 0.926    O   52 0.138    O   49 0.136
    51  C   3.943        O   52 1.750    N   50 1.113    C   53 1.015
    52  O   2.070        C   51 1.750    N   50 0.138
    53  C   3.937        C   54 1.400    C   47 1.262    C   51 1.015
    54  C   3.904        C   53 1.400    C   55 1.186    O   46 1.102
    55  C   3.965        C   56 1.620    C   54 1.186    H   88 0.959
    56  C   3.970        C   55 1.620    C   57 1.232    H   89 0.950
    57  C   3.952        C   58 1.583    C   56 1.232    H   90 0.950
    58  C   3.932        C   57 1.583    C   59 1.120    C   67 1.000
    59  C   3.974        C   60 1.507    C   58 1.120    C   65 1.086
    60  C   3.958        C   59 1.507    C   63 1.095    C   61 1.084
    61  C   3.944        N   62 2.772    C   60 1.084
    62  N   2.973        C   61 2.772
    63  C   3.945        N   64 2.762    C   60 1.095
    64  N   2.976        C   63 2.762
    65  C   3.976        C   72 1.427    C   66 1.244    C   59 1.086
    66  C   3.976        C   69 1.466    C   65 1.244    C   67 1.027
    67  C   3.923        O   68 1.789    C   66 1.027    C   58 1.000
    68  O   2.062        C   67 1.789
    69  C   3.973        C   66 1.466    C   70 1.320    H   91 0.962
    70  C   3.975        C   69 1.320    C   71 1.263    C   75 1.204
    71  C   3.951        C   72 1.379    C   70 1.263    S   73 1.123
    72  C   3.974        C   65 1.427    C   71 1.379    H   92 0.958
    73  S   2.563        C   74 1.132    C   71 1.123
    74  C   3.902        C   75 1.609    S   73 1.132    Br  76 1.032
    75  C   3.975        C   74 1.609    C   70 1.204    H   93 0.959
    76  Br  1.173        C   74 1.032
    77  H   0.994        C    9 0.961
    78  H   0.994        C   12 0.957
    79  H   0.994        C   15 0.958
    80  H   0.989        C   20 0.940
    81  H   0.957        N   26 0.924
    82  H   0.988        C   31 0.949
    83  H   0.988        C   32 0.946
    84  H   0.956        N   38 0.924
    85  H   0.990        C   43 0.948
    86  H   0.991        C   44 0.959
    87  H   0.958        N   50 0.926
    88  H   0.992        C   55 0.959
    89  H   0.995        C   56 0.950
    90  H   0.991        C   57 0.950
    91  H   0.994        C   69 0.962
    92  H   0.994        C   72 0.958
    93  H   0.995        C   75 0.959

molecular dipole:
                 x           y           z       tot (Debye)
 q only:        1.583      -0.094      -0.396
   full:        1.994       0.752      -0.158       5.432
molecular quadrupole (traceless):
                xx          xy          yy          xz          yz          zz
 q only:      -22.186       5.262     -10.233     -24.823     -35.549      32.419
  q+dip:      -29.988      -0.082       1.139     -34.764     -35.598      28.849
   full:      -14.476      -5.743      -7.752     -40.332     -36.462      22.228

           -------------------------------------------------
          |                Geometry Summary                 |
           -------------------------------------------------

      molecular mass/u    :     1163.6966000
   center of mass at/Å    :       -4.5006418       5.6591100      -4.9361857
  moments of inertia/u·Å² :        0.1776856E+05   0.9662590E+05   0.1108323E+06
rotational constants/cm⁻¹ :        0.9487336E-03   0.1744629E-03   0.1521003E-03

 * 86 selected distances

     #   Z        #   Z                                     value/Å
     1   6 C      2   6 C                                 1.3694125
     3   6 C      4   7 N                                 1.1474455
     5   6 C      6   7 N                                 1.1477233
     7   6 C      8   6 C                                 1.4175092
     8   6 C      9   6 C                                 1.3743133
     9   6 C     10   6 C                                 1.3981396
    10   6 C     11   6 C                                 1.4170934
     7   6 C     12   6 C                                 1.3836287
    11   6 C     12   6 C                                 1.3888460
    11   6 C     13  16 S                                 1.7364138
    13  16 S     14   6 C                                 1.7438882
    10   6 C     15   6 C                                 1.4211503
    14   6 C     15   6 C                                 1.3548504
    14   6 C     16  35 Br                                1.8739025
    17   6 C     18   8 O                                 1.2084209
    19   6 C     20   6 C                                 1.3576891
    20   6 C     21   6 C                                 1.4235115
    21   6 C     22   8 O                                 1.3571402
    21   6 C     23   6 C                                 1.3823466
    24   6 C     25   8 O                                 1.2004001
    24   6 C     26   7 N                                 1.3924562
    26   7 N     27   6 C                                 1.3901364
    27   6 C     28   8 O                                 1.2031237
    23   6 C     29   6 C                                 1.4105481
    22   8 O     30   6 C                                 1.3540134
    29   6 C     30   6 C                                 1.3874574
    30   6 C     31   6 C                                 1.4205137
    31   6 C     32   6 C                                 1.3546424
    32   6 C     33   6 C                                 1.4196476
    33   6 C     34   8 O                                 1.3601500
    33   6 C     35   6 C                                 1.3867378
    36   6 C     37   8 O                                 1.2025368
    36   6 C     38   7 N                                 1.3941265
    38   7 N     39   6 C                                 1.3903418
    39   6 C     40   8 O                                 1.2049845
    35   6 C     41   6 C                                 1.4108113
    34   8 O     42   6 C                                 1.3540250
    41   6 C     42   6 C                                 1.3829864
    42   6 C     43   6 C                                 1.4146363
    43   6 C     44   6 C                                 1.3530219
    44   6 C     45   6 C                                 1.4251914
    45   6 C     46   8 O                                 1.3546307
    45   6 C     47   6 C                                 1.3826838
    48   6 C     49   8 O                                 1.2008431
    48   6 C     50   7 N                                 1.3942091
    50   7 N     51   6 C                                 1.3930042
    51   6 C     52   8 O                                 1.2013232
    47   6 C     53   6 C                                 1.4180338
    46   8 O     54   6 C                                 1.3544917
    53   6 C     54   6 C                                 1.3832880
    54   6 C     55   6 C                                 1.4215471
    55   6 C     56   6 C                                 1.3578633
    56   6 C     57   6 C                                 1.4138520
    57   6 C     58   6 C                                 1.3602784
    59   6 C     60   6 C                                 1.3692809
    61   6 C     62   7 N                                 1.1473743
    63   6 C     64   7 N                                 1.1482707
    65   6 C     66   6 C                                 1.4173387
    67   6 C     68   8 O                                 1.2085130
    66   6 C     69   6 C                                 1.3745387
    69   6 C     70   6 C                                 1.3981070
    70   6 C     71   6 C                                 1.4163279
    65   6 C     72   6 C                                 1.3821297
    71   6 C     72   6 C                                 1.3892335
    71   6 C     73  16 S                                 1.7366527
    73  16 S     74   6 C                                 1.7441015
    70   6 C     75   6 C                                 1.4217783
    74   6 C     75   6 C                                 1.3542790
    74   6 C     76  35 Br                                1.8748005 (max)
     9   6 C     77   1 H                                 1.0784736
    12   6 C     78   1 H                                 1.0772095
    15   6 C     79   1 H                                 1.0746689
    20   6 C     80   1 H                                 1.0820981
    26   7 N     81   1 H                                 1.0105411
    31   6 C     82   1 H                                 1.0817757
    32   6 C     83   1 H                                 1.0820053
    38   7 N     84   1 H                                 1.0107434
    43   6 C     85   1 H                                 1.0818358
    44   6 C     86   1 H                                 1.0782117
    50   7 N     87   1 H                                 1.0104299 (min)
    55   6 C     88   1 H                                 1.0795565
    56   6 C     89   1 H                                 1.0794829
    57   6 C     90   1 H                                 1.0855648
    69   6 C     91   1 H                                 1.0786170
    72   6 C     92   1 H                                 1.0770063
    75   6 C     93   1 H                                 1.0746610

 * 7 distinct bonds (by element types)

   Z      Z             #   av. dist./Å        max./Å        min./Å
   1 H    6 C          14     1.0793691     1.0855648     1.0746610
   6 C    6 C          39     1.3926986     1.4251914     1.3530219
   1 H    7 N           3     1.0105715     1.0107434     1.0104299
   6 C    7 N          10     1.2945088     1.3942091     1.1473743
   6 C    8 O          14     1.2688997     1.3601500     1.2004001
   6 C   16 S           4     1.7402640     1.7441015     1.7364138
   6 C   35 Br          2     1.8743515     1.8748005     1.8739025


optimized geometry written to: xtbopt.xyz


           -------------------------------------------------
          | TOTAL ENERGY             -204.011858897168 Eh   |
          | GRADIENT NORM               0.000804850592 Eh/α |
          | HOMO-LUMO GAP               1.264472265307 eV   |
           -------------------------------------------------

------------------------------------------------------------------------
 * finished run on 2021/06/04 at 21:31:45.512     
------------------------------------------------------------------------
 total:
 * wall-time:     0 d,  0 h,  0 min, 20.064 sec
 *  cpu-time:     0 d,  0 h,  4 min,  0.659 sec
 * ratio c/w:    11.995 speedup
 SCF:
 * wall-time:     0 d,  0 h,  0 min,  0.230 sec
 *  cpu-time:     0 d,  0 h,  0 min,  2.740 sec
 * ratio c/w:    11.913 speedup
 ANC optimizer:
 * wall-time:     0 d,  0 h,  0 min, 19.787 sec
 *  cpu-time:     0 d,  0 h,  3 min, 57.443 sec
 * ratio c/w:    12.000 speedup

