      -----------------------------------------------------------      
     |                   =====================                   |     
     |                           x T B                           |     
     |                   =====================                   |     
     |                         S. Grimme                         |     
     |          Mulliken Center for Theoretical Chemistry        |     
     |                    University of Bonn                     |     
     |                Version 6.2 RC2 (SAW190805)                |     
      -----------------------------------------------------------      

   This program is distributed in the hope that it will be useful,
   but WITHOUT ANY WARRANTY; without even the implied warranty of
   MERCHANTABILITY or FITNESS FOR A PARTICULAR PURPOSE.
   
   FOR NON-COMMERCIAL, ACADEMIA USE ONLY.
   
   Cite this work as:
   * S. Grimme, C. Bannwarth, P. Shushkov, J. Chem. Theory Comput., 2017,
     13, 1989-2009. DOI: 10.1021/acs.jctc.7b00118
   * C. Bannwarth, S. Ehlert and S. Grimme., J. Chem. Theory Comput., 2019,
     15, 1652-1671. DOI: 10.1021/acs.jctc.8b01176
   * P. Pracht, E. Caldeweyher, S. Ehlert, S. Grimme, ChemRxiv, 2019, preprint.
     DOI: 10.26434/chemrxiv.8326202.v1
   
   for DFT-D4:
   * E. Caldeweyher, C. Bannwarth and S. Grimme, J. Chem. Phys., 2017,
     147, 034112. DOI: 10.1063/1.4993215
   * E. Caldeweyher, S. Ehlert, A. Hansen, H. Neugebauer, S. Spicher,
     C. Bannwarth and S. Grimme, J. Chem. Phys., 2019, 150, 154122.
     DOI: 10.1063/1.5090222
   
   for sTDA-xTB:
   * S. Grimme and C. Bannwarth, J. Chem. Phys., 2016, 145, 054103.
     DOI: 10.1063/1.4959605
   
   in the mass-spec context:
   * V. Asgeirsson, C. Bauer and S. Grimme, Chem. Sci., 2017, 8, 4879.
     DOI: 10.1039/c7sc00601b
   
   for metadynamics refer to:
   * S. Grimme, J. Chem. Theory Comput., 2019, 155, 2847-2862
     DOI: 10.1021/acs.jctc.9b00143
   
   with help from (in alphabetical order)
   C. Bannwarth, F. Bohle, G. Brandenburg, E. Caldeweyher, M. Checinski,
   S. Dohm, S. Ehlert, S. Ehrlich, F. März, H. Neugebauer, J. Pisarek,
   P. Pracht, P. Shushkov, and S. Spicher.
   
 * started run on 2021/06/07 at 14:06:48.335     

           -------------------------------------------------
          |                Calculation Setup                |
           -------------------------------------------------

          program call               : /ihome/ghutchison/geoffh/xtb/xtb /ihome/ghutchison/blp62/GA/running_GA/sequence/generations/57/275_104_222_47_269_13507.xyz -opt
          hostname                   : smp-n156
          coordinate file            : /ihome/ghutchison/blp62/GA/running_GA/sequence/generations/57/275_104_222_47_269_13507.xyz
          omp threads                :                    12
          number of atoms            :                   104
          number of electrons        :                   362
          charge                     :                     0
          spin                       :                   0.0
          first test random number   :      0.72449913415239


########################################################################
# WARNING! Please study the warnings concerning your input carefully
#  - XTBPATH is not set, using XTBHOME instead
#  - the use of '-opt' is discouraged, please use '--opt' next time
########################################################################

           ------------------------------------------------- 
          |                 G F N 2 - x T B                 |
          | Geometry, Frequencies, Noncovalent interactions |
          |            JCTC 2019 parametrisation            |
           ------------------------------------------------- 
             KAB for C  - Si     :                1.0500
             KAB for H  - Pd     :                0.9500
             k(s)              :                1.8500
             k(p)              :                2.2300
             k(d)              :                2.2300
             k(f)              :                2.0000
             kEN (H0ij)        :               -2.0000
             D4 a1             :                0.5200
             D4 a2             :                5.0000
             D4 s6             :                1.0000
             D4 s8             :                2.7000
             D4 s9             :                5.0000
             alphaj            :                2.0000

  Z AO/shell   Hii/eV     exponent
  1     Wed Apr 25 08:07:45 CEST 2018   EN: 2.200 GM2: 0.406  GM3: 0.0800  RAES: 1.40
     1s    -10.707211    1.230000
  6     Wed Apr 25 08:07:45 CEST 2018   EN: 2.550 GM2: 0.538  GM3: 0.1500  RAES: 3.00
     2s    -13.970922    2.096432
     2p    -10.063292    1.800000
  7     Wed Apr 25 08:07:45 CEST 2018   EN: 3.040 GM2: 0.461  GM3:-0.0640  RAES: 1.90
     2s    -16.686243    2.339881
     2p    -12.523956    2.014332
  8     Wed Apr 25 08:07:45 CEST 2018   EN: 3.440 GM2: 0.452  GM3:-0.0517  RAES: 1.80
     2s    -20.229985    2.439742
     2p    -15.503117    2.137023
  9     Mon Apr 23 13:58:50 CEST 2018   EN: 3.980 GM2: 0.532  GM3: 0.1426  RAES: 2.40
     2s    -23.458179    2.416361
     2p    -15.746583    2.308399
 16     Tue Apr 24 11:44:34 CEST 2018   EN: 2.580 GM2: 0.340  GM3:-0.0502  RAES: 3.10
     3s    -20.029654    1.981333
     3p    -11.377694    2.025643
     3d     -0.420282    1.702555
 35     Tue Apr 24 12:21:41 CEST 2018   EN: 2.960 GM2: 0.261  GM3: 0.1300  RAES: 4.00
     4s    -23.583718    2.077587
     4p    -12.588824    2.263120
     4d      0.047980    1.845038

           ------------------------------------------------- 
          |        Self-Consistent Charge Iterations        |
           ------------------------------------------------- 

          ...................................................
          :                      SETUP                      :
          :.................................................:
          :  # basis functions                 368          :
          :  # atomic orbitals                 362          :
          :  # shells                          186          :
          :  # electrons                       362          :
          :  max. iterations                   250          :
          :  Hamiltonian                  GFN2-xTB          :
          :  restarted?                      false          :
          :  GBSA solvation                  false          :
          :  PC potential                    false          :
          :  electronic temp.          300.0000000     K    :
          :  accuracy                    1.0000000          :
          :  -> integral cutoff          0.2500000E+02      :
          :  -> integral neglect         0.1000000E-07      :
          :  -> SCF convergence          0.1000000E-05 Eh   :
          :  -> wf. convergence          0.1000000E-03 e    :
          :  Broyden damping             0.4000000          :
          ...................................................

 iter      E             dE          RMSdq      gap      omega  full diag
   1   -201.7192010 -0.201719E+03  0.532E+00    1.30       0.0  T
   2   -201.7734809 -0.542799E-01  0.337E+00    1.08       1.0  T
   3   -201.4748135  0.298667E+00  0.243E+00    0.54       1.0  T
   4   -201.9465176 -0.471704E+00  0.640E-01    0.61       1.0  T
   5   -201.9726090 -0.260913E-01  0.248E-01    0.56       1.0  T
   6   -201.9731504 -0.541435E-03  0.155E-01    0.62       1.0  T
   7   -201.9746182 -0.146779E-02  0.830E-02    0.63       1.0  T
   8   -201.9750172 -0.398984E-03  0.516E-02    0.63       1.0  T
   9   -201.9750945 -0.773416E-04  0.369E-02    0.62       1.0  T
  10   -201.9750963 -0.175422E-05  0.286E-02    0.62       1.0  T
  11   -201.9751236 -0.273303E-04  0.191E-02    0.62       1.0  T
  12   -201.9751365 -0.128972E-04  0.119E-02    0.62       1.0  T
  13   -201.9751433 -0.684757E-05  0.521E-03    0.62       1.9  T
  14   -201.9751443 -0.972283E-06  0.281E-03    0.62       3.5  T
  15   -201.9751448 -0.437295E-06  0.127E-03    0.62       7.7  T
  16   -201.9751448 -0.645086E-07  0.665E-04    0.62      14.7  T
  17   -201.9751448 -0.113264E-07  0.417E-04    0.62      23.5  T

   *** convergence criteria satisfied after 17 iterations ***

         #    Occupation            Energy/Eh            Energy/eV
      -------------------------------------------------------------
         1        2.0000           -0.8630383             -23.4845
       ...           ...                  ...                  ...
       175        2.0000           -0.4115611             -11.1991
       176        2.0000           -0.4109537             -11.1826
       177        2.0000           -0.3993153             -10.8659
       178        2.0000           -0.3927418             -10.6870
       179        2.0000           -0.3822112             -10.4005
       180        2.0000           -0.3748419             -10.2000
       181        2.0000           -0.3597228              -9.7886 (HOMO)
       182        0.0000           -0.3370784              -9.1724 (LUMO)
       183        0.0000           -0.3346187              -9.1054
       184                         -0.3217144              -8.7543
       185                         -0.3214307              -8.7466
       186                         -0.3115967              -8.4790
       ...                                ...                  ...
       362                          1.0987437              29.8983
      -------------------------------------------------------------
                  HL-Gap            0.0226444 Eh            0.6162 eV
             Fermi-level           -0.3484350 Eh           -9.4814 eV

 SCC (total)                   0 d,  0 h,  0 min,  3.029 sec
 SCC setup                      ...        0 min,  0.002 sec (  0.082%)
 Dispersion                     ...        0 min,  0.004 sec (  0.135%)
 integral evaluation            ...        0 min,  0.216 sec (  7.138%)
 zeroth order Hamiltonian       ...        0 min,  0.001 sec (  0.042%)
 iterations                     ...        0 min,  2.707 sec ( 89.385%)
 molecular gradient             ...        0 min,  0.093 sec (  3.076%)
 printout                       ...        0 min,  0.004 sec (  0.138%)

         :::::::::::::::::::::::::::::::::::::::::::::::::::::
         ::                     SUMMARY                     ::
         :::::::::::::::::::::::::::::::::::::::::::::::::::::
         :: total energy            -198.862260337673 Eh    ::
         :: gradient norm              0.183332298056 Eh/a0 ::
         :: HOMO-LUMO gap              0.616186124134 eV    ::
         ::.................................................::
         :: SCC energy              -201.975144827428 Eh    ::
         :: -> isotropic ES            0.121781904064 Eh    ::
         :: -> anisotropic ES          0.009520369721 Eh    ::
         :: -> anisotropic XC          0.127068918323 Eh    ::
         :: -> dispersion             -0.159252076144 Eh    ::
         :: repulsion energy           3.109805174343 Eh    ::
         :: add. restraining           0.000000000000 Eh    ::
         :::::::::::::::::::::::::::::::::::::::::::::::::::::

      ----------------------------------------------------------- 
     |                   =====================                   |
     |                        A N C O P T                        |
     |                   =====================                   |
     |               Approximate Normal Coordinate               |
     |                Rational Function Optimizer                |
      ----------------------------------------------------------- 

          ...................................................
          :                      SETUP                      :
          :.................................................:
          :   optimization level            normal          :
          :   max. optcycles                   312          :
          :   ANC micro-cycles                  20          :
          :   degrees of freedom               306          :
          :.................................................:
          :   RF solver                   davidson          :
          :   input Hessian                  false          :
          :   write xtbopt.log                true          :
          :   linear?                        false          :
          :   energy convergence         0.5000000E-05 Eh   :
          :   grad. convergence          0.1000000E-02 Eh/α :
          :   maximium RF displ.         2.0000000          :
          :   Hlow (freq-cutoff)         0.5000000E-02      :
          :   Hmax (freq-cutoff)         5.0000000          :
          :   S6 in model hess.         20.0000000          :
          ...................................................

generating ANC from model Hessian ...
Using Lindh-Hessian (1995)
 Shifting diagonal of input Hessian by   4.997613799144113E-003
 Lowest  eigenvalues of input Hessian
   -0.000000   -0.000000   -0.000000    0.000000    0.000000    0.000000
    0.005000    0.005009    0.005028    0.005058    0.005083    0.005088
    0.005128    0.005159    0.005242    0.005384    0.005500    0.005593
 Highest eigenvalues
    2.260433    2.261662    2.496562    2.498401    2.564139    2.582897
 

........................................................................
.............................. CYCLE    1 ..............................
........................................................................
   1   -201.9751448 -0.201975E+03  0.250E-04    0.62       0.0  T
   2   -201.9751448  0.536090E-09  0.226E-04    0.62      43.4  T
   3   -201.9751448 -0.292860E-08  0.152E-04    0.62      64.6  T
     SCC iter.                  ...        0 min,  0.355 sec
     gradient                   ...        0 min,  0.074 sec
 * total energy  :  -198.8622603 Eh     change       -0.4644960E-08 Eh
   gradient norm :     0.1833323 Eh/α   predicted     0.0000000E+00 (-100.00%)
   displ. norm   :     0.4259841 α      lambda       -0.3872833E-01
   maximum displ.:     0.1274359 α      in ANC's #130, #51, #143, ...

........................................................................
.............................. CYCLE    2 ..............................
........................................................................
   1   -202.0861428 -0.202086E+03  0.291E-01    0.60       0.0  T
   2   -202.0862530 -0.110167E-03  0.155E-01    0.61       1.0  T
   3   -202.0842719  0.198112E-02  0.140E-01    0.60       1.0  T
   4   -202.0864721 -0.220019E-02  0.461E-02    0.61       1.0  T
   5   -202.0866785 -0.206397E-03  0.208E-02    0.61       1.0  T
   6   -202.0866952 -0.166896E-04  0.103E-02    0.61       1.0  T
   7   -202.0867035 -0.832644E-05  0.450E-03    0.61       2.2  T
   8   -202.0867054 -0.193174E-05  0.147E-03    0.61       6.7  T
   9   -202.0867055 -0.115693E-06  0.772E-04    0.61      12.7  T
     SCC iter.                  ...        0 min,  1.250 sec
     gradient                   ...        0 min,  0.081 sec
 * total energy  :  -198.8892268 Eh     change       -0.2696642E-01 Eh
   gradient norm :     0.0773582 Eh/α   predicted    -0.2287825E-01 ( -15.16%)
   displ. norm   :     0.5027627 α      lambda       -0.1617966E-01
   maximum displ.:     0.1702410 α      in ANC's #51, #53, #45, ...

........................................................................
.............................. CYCLE    3 ..............................
........................................................................
   1   -202.1177586 -0.202118E+03  0.292E-01    0.56       0.0  T
   2   -202.1177754 -0.168507E-04  0.153E-01    0.59       1.0  T
   3   -202.1147156  0.305981E-02  0.160E-01    0.59       1.0  T
   4   -202.1179886 -0.327303E-02  0.427E-02    0.59       1.0  T
   5   -202.1181722 -0.183552E-03  0.196E-02    0.59       1.0  T
   6   -202.1181862 -0.140472E-04  0.977E-03    0.59       1.0  T
   7   -202.1181931 -0.691693E-05  0.418E-03    0.59       2.3  T
   8   -202.1181949 -0.171832E-05  0.137E-03    0.59       7.1  T
   9   -202.1181950 -0.102022E-06  0.700E-04    0.59      14.0  T
     SCC iter.                  ...        0 min,  1.051 sec
     gradient                   ...        0 min,  0.079 sec
 * total energy  :  -198.9001846 Eh     change       -0.1095787E-01 Eh
   gradient norm :     0.0263549 Eh/α   predicted    -0.1013471E-01 (  -7.51%)
   displ. norm   :     0.5872411 α      lambda       -0.7286619E-02
   maximum displ.:     0.1947676 α      in ANC's #53, #51, #18, ...

........................................................................
.............................. CYCLE    4 ..............................
........................................................................
   1   -202.1183166 -0.202118E+03  0.272E-01    0.56       0.0  T
   2   -202.1180268  0.289723E-03  0.150E-01    0.59       1.0  T
   3   -202.1123763  0.565057E-02  0.207E-01    0.60       1.0  T
   4   -202.1187078 -0.633149E-02  0.324E-02    0.59       1.0  T
   5   -202.1187782 -0.704401E-04  0.171E-02    0.59       1.0  T
   6   -202.1187896 -0.114103E-04  0.842E-03    0.59       1.2  T
   7   -202.1187952 -0.558259E-05  0.298E-03    0.59       3.3  T
   8   -202.1187959 -0.673185E-06  0.156E-03    0.59       6.3  T
     SCC iter.                  ...        0 min,  0.984 sec
     gradient                   ...        0 min,  0.077 sec
 * total energy  :  -198.9061094 Eh     change       -0.5924804E-02 Eh
   gradient norm :     0.0279903 Eh/α   predicted    -0.4899712E-02 ( -17.30%)
   displ. norm   :     0.7736391 α      lambda       -0.7871465E-02
   maximum displ.:     0.2732688 α      in ANC's #18, #21, #53, ...

........................................................................
.............................. CYCLE    5 ..............................
........................................................................
   1   -202.1044870 -0.202104E+03  0.372E-01    0.57       0.0  T
   2   -202.1022793  0.220765E-02  0.232E-01    0.61       1.0  T
   3   -202.0876731  0.146062E-01  0.337E-01    0.63       1.0  T
   4   -202.1056347 -0.179616E-01  0.479E-02    0.60       1.0  T
   5   -202.1057977 -0.163030E-03  0.248E-02    0.61       1.0  T
   6   -202.1058268 -0.290457E-04  0.135E-02    0.61       1.0  T
   7   -202.1058414 -0.145993E-04  0.612E-03    0.60       1.6  T
   8   -202.1058445 -0.316941E-05  0.297E-03    0.60       3.3  T
   9   -202.1058451 -0.543759E-06  0.161E-03    0.60       6.1  T
     SCC iter.                  ...        0 min,  1.232 sec
     gradient                   ...        0 min,  0.077 sec
 * total energy  :  -198.9110155 Eh     change       -0.4906077E-02 Eh
   gradient norm :     0.0353995 Eh/α   predicted    -0.6291334E-02 (  28.24%)
   displ. norm   :     0.6749279 α      lambda       -0.7855976E-02
   maximum displ.:     0.2159523 α      in ANC's #18, #53, #21, ...

........................................................................
.............................. CYCLE    6 ..............................
........................................................................
   1   -202.0965788 -0.202097E+03  0.335E-01    0.58       0.0  T
   2   -202.0906355  0.594325E-02  0.259E-01    0.61       1.0  T
   3   -202.0836331  0.700238E-02  0.305E-01    0.63       1.0  T
   4   -202.0982398 -0.146067E-01  0.551E-02    0.60       1.0  T
   5   -202.0984901 -0.250217E-03  0.246E-02    0.60       1.0  T
   6   -202.0985203 -0.302686E-04  0.141E-02    0.60       1.0  T
   7   -202.0985378 -0.174529E-04  0.689E-03    0.60       1.4  T
   8   -202.0985420 -0.423863E-05  0.340E-03    0.60       2.9  T
   9   -202.0985427 -0.672729E-06  0.196E-03    0.60       5.0  T
     SCC iter.                  ...        0 min,  1.051 sec
     gradient                   ...        0 min,  0.087 sec
 * total energy  :  -198.9158935 Eh     change       -0.4878015E-02 Eh
   gradient norm :     0.0309471 Eh/α   predicted    -0.5717294E-02 (  17.21%)
   displ. norm   :     0.5581620 α      lambda       -0.4220418E-02
   maximum displ.:     0.2480019 α      in ANC's #18, #21, #16, ...

........................................................................
.............................. CYCLE    7 ..............................
........................................................................
   1   -202.1120333 -0.202112E+03  0.236E-01    0.60       0.0  T
   2   -202.1082860  0.374727E-02  0.186E-01    0.60       1.0  T
   3   -202.1035341  0.475190E-02  0.233E-01    0.63       1.0  T
   4   -202.1128436 -0.930947E-02  0.368E-02    0.61       1.0  T
   5   -202.1129422 -0.986275E-04  0.173E-02    0.61       1.0  T
   6   -202.1129483 -0.610803E-05  0.112E-02    0.61       1.0  T
   7   -202.1129620 -0.136692E-04  0.504E-03    0.61       1.9  T
   8   -202.1129646 -0.263843E-05  0.217E-03    0.61       4.5  T
   9   -202.1129649 -0.285002E-06  0.119E-03    0.61       8.3  T
     SCC iter.                  ...        0 min,  1.247 sec
     gradient                   ...        0 min,  0.088 sec
 * total energy  :  -198.9191590 Eh     change       -0.3265466E-02 Eh
   gradient norm :     0.0250494 Eh/α   predicted    -0.2767633E-02 ( -15.25%)
   displ. norm   :     0.6666697 α      lambda       -0.4788185E-02
   maximum displ.:     0.3253376 α      in ANC's #18, #21, #16, ...

........................................................................
.............................. CYCLE    8 ..............................
........................................................................
   1   -202.1225363 -0.202123E+03  0.298E-01    0.60       0.0  T
   2   -202.1143204  0.821586E-02  0.252E-01    0.59       1.0  T
   3   -202.1066751  0.764533E-02  0.308E-01    0.64       1.0  T
   4   -202.1237680 -0.170929E-01  0.490E-02    0.60       1.0  T
   5   -202.1239303 -0.162348E-03  0.218E-02    0.60       1.0  T
   6   -202.1239246  0.577285E-05  0.166E-02    0.59       1.0  T
   7   -202.1239602 -0.356524E-04  0.769E-03    0.60       1.3  T
   8   -202.1239669 -0.665934E-05  0.330E-03    0.60       3.0  T
   9   -202.1239677 -0.797117E-06  0.208E-03    0.60       4.7  T
  10   -202.1239683 -0.600986E-06  0.845E-04    0.60      11.6  T
     SCC iter.                  ...        0 min,  1.354 sec
     gradient                   ...        0 min,  0.086 sec
 * total energy  :  -198.9224848 Eh     change       -0.3325801E-02 Eh
   gradient norm :     0.0200968 Eh/α   predicted    -0.3458154E-02 (   3.98%)
   displ. norm   :     0.6608512 α      lambda       -0.2968285E-02
   maximum displ.:     0.3072160 α      in ANC's #18, #21, #16, ...

........................................................................
.............................. CYCLE    9 ..............................
........................................................................
   1   -202.1245356 -0.202125E+03  0.272E-01    0.56       0.0  T
   2   -202.1133456  0.111900E-01  0.265E-01    0.55       1.0  T
   3   -202.1099173  0.342826E-02  0.291E-01    0.62       1.0  T
   4   -202.1256470 -0.157297E-01  0.529E-02    0.56       1.0  T
   5   -202.1258623 -0.215266E-03  0.229E-02    0.56       1.0  T
   6   -202.1258762 -0.139184E-04  0.166E-02    0.56       1.0  T
   7   -202.1259081 -0.319058E-04  0.833E-03    0.56       1.2  T
   8   -202.1259175 -0.942719E-05  0.334E-03    0.56       2.9  T
   9   -202.1259192 -0.168107E-05  0.161E-03    0.56       6.1  T
  10   -202.1259194 -0.166149E-06  0.996E-04    0.56       9.8  T
     SCC iter.                  ...        0 min,  1.168 sec
     gradient                   ...        0 min,  0.078 sec
 * total energy  :  -198.9246928 Eh     change       -0.2208026E-02 Eh
   gradient norm :     0.0204843 Eh/α   predicted    -0.2132317E-02 (  -3.43%)
   displ. norm   :     0.6410326 α      lambda       -0.2745606E-02
   maximum displ.:     0.2828043 α      in ANC's #18, #16, #21, ...

........................................................................
.............................. CYCLE   10 ..............................
........................................................................
   1   -202.1323694 -0.202132E+03  0.264E-01    0.52       0.0  T
   2   -202.1225677  0.980163E-02  0.248E-01    0.51       1.0  T
   3   -202.1135679  0.899983E-02  0.313E-01    0.59       1.0  T
   4   -202.1328919 -0.193240E-01  0.579E-02    0.53       1.0  T
   5   -202.1332120 -0.320102E-03  0.255E-02    0.52       1.0  T
   6   -202.1332532 -0.411995E-04  0.180E-02    0.52       1.0  T
   7   -202.1332909 -0.377356E-04  0.926E-03    0.52       1.1  T
   8   -202.1333028 -0.118728E-04  0.357E-03    0.52       2.7  T
   9   -202.1333041 -0.132661E-05  0.218E-03    0.52       4.5  T
  10   -202.1333046 -0.517946E-06  0.118E-03    0.52       8.3  T
     SCC iter.                  ...        0 min,  1.344 sec
     gradient                   ...        0 min,  0.088 sec
 * total energy  :  -198.9264978 Eh     change       -0.1804974E-02 Eh
   gradient norm :     0.0250878 Eh/α   predicted    -0.1936921E-02 (   7.31%)
   displ. norm   :     0.6287233 α      lambda       -0.2516308E-02
   maximum displ.:     0.2602702 α      in ANC's #18, #16, #13, ...

........................................................................
.............................. CYCLE   11 ..............................
........................................................................
   1   -202.1184021 -0.202118E+03  0.260E-01    0.49       0.0  T
   2   -202.1022441  0.161579E-01  0.294E-01    0.46       1.0  T
   3   -202.1013862  0.857993E-03  0.301E-01    0.55       1.0  T
   4   -202.1190692 -0.176830E-01  0.646E-02    0.49       1.0  T
   5   -202.1193133 -0.244124E-03  0.335E-02    0.48       1.0  T
   6   -202.1194950 -0.181680E-03  0.158E-02    0.48       1.0  T
   7   -202.1195225 -0.275468E-04  0.733E-03    0.48       1.3  T
   8   -202.1195258 -0.326764E-05  0.351E-03    0.48       2.8  T
   9   -202.1195277 -0.193497E-05  0.156E-03    0.48       6.3  T
     SCC iter.                  ...        0 min,  1.238 sec
     gradient                   ...        0 min,  0.086 sec
 * total energy  :  -198.9282836 Eh     change       -0.1785858E-02 Eh
   gradient norm :     0.0232498 Eh/α   predicted    -0.1755488E-02 (  -1.70%)
   displ. norm   :     0.5848583 α      lambda       -0.2467584E-02
   maximum displ.:     0.2227422 α      in ANC's #16, #18, #13, ...

........................................................................
.............................. CYCLE   12 ..............................
........................................................................
   1   -202.1183714 -0.202118E+03  0.233E-01    0.45       0.0  T
   2   -202.1119633  0.640808E-02  0.205E-01    0.43       1.0  T
   3   -202.0944340  0.175294E-01  0.332E-01    0.54       1.0  T
   4   -202.1182083 -0.237744E-01  0.665E-02    0.46       1.0  T
   5   -202.1185882 -0.379839E-03  0.322E-02    0.45       1.0  T
   6   -202.1187622 -0.174062E-03  0.160E-02    0.44       1.0  T
   7   -202.1187904 -0.281699E-04  0.865E-03    0.44       1.1  T
   8   -202.1188031 -0.126740E-04  0.299E-03    0.45       3.3  T
   9   -202.1188047 -0.157871E-05  0.159E-03    0.44       6.2  T
  10   -202.1188048 -0.177805E-06  0.100E-03    0.45       9.8  T
     SCC iter.                  ...        0 min,  1.167 sec
     gradient                   ...        0 min,  0.087 sec
 * total energy  :  -198.9298459 Eh     change       -0.1562289E-02 Eh
   gradient norm :     0.0233966 Eh/α   predicted    -0.1655822E-02 (   5.99%)
   displ. norm   :     0.5914155 α      lambda       -0.2313735E-02
   maximum displ.:     0.2282754 α      in ANC's #16, #20, #18, ...

........................................................................
.............................. CYCLE   13 ..............................
........................................................................
   1   -202.1208927 -0.202121E+03  0.234E-01    0.43       0.0  T
   2   -202.1166704  0.422237E-02  0.180E-01    0.42       1.0  T
   3   -202.0915462  0.251242E-01  0.361E-01    0.55       1.0  T
   4   -202.1206212 -0.290751E-01  0.657E-02    0.44       1.0  T
   5   -202.1209129 -0.291686E-03  0.353E-02    0.44       1.0  T
   6   -202.1211313 -0.218413E-03  0.163E-02    0.43       1.0  T
   7   -202.1211711 -0.398015E-04  0.886E-03    0.43       1.1  T
   8   -202.1211831 -0.119855E-04  0.241E-03    0.43       4.1  T
   9   -202.1211831  0.343829E-07  0.195E-03    0.43       5.0  T
  10   -202.1211838 -0.717986E-06  0.620E-04    0.43      15.8  T
     SCC iter.                  ...        0 min,  1.481 sec
     gradient                   ...        0 min,  0.084 sec
 * total energy  :  -198.9314528 Eh     change       -0.1606872E-02 Eh
   gradient norm :     0.0223064 Eh/α   predicted    -0.1561513E-02 (  -2.82%)
   displ. norm   :     0.6440309 α      lambda       -0.2321914E-02
   maximum displ.:     0.2438070 α      in ANC's #16, #13, #20, ...

........................................................................
.............................. CYCLE   14 ..............................
........................................................................
   1   -202.1252907 -0.202125E+03  0.243E-01    0.42       0.0  T
   2   -202.1208855  0.440526E-02  0.188E-01    0.40       1.0  T
   3   -202.0928721  0.280133E-01  0.377E-01    0.53       1.0  T
   4   -202.1249160 -0.320439E-01  0.719E-02    0.43       1.0  T
   5   -202.1252633 -0.347246E-03  0.391E-02    0.42       1.0  T
   6   -202.1255696 -0.306301E-03  0.168E-02    0.41       1.0  T
   7   -202.1255986 -0.289953E-04  0.109E-02    0.41       1.0  T
   8   -202.1256182 -0.196353E-04  0.339E-03    0.41       2.9  T
   9   -202.1256185 -0.337812E-06  0.241E-03    0.41       4.1  T
  10   -202.1256197 -0.117031E-05  0.731E-04    0.41      13.4  T
     SCC iter.                  ...        0 min,  1.412 sec
     gradient                   ...        0 min,  0.078 sec
 * total energy  :  -198.9327993 Eh     change       -0.1346538E-02 Eh
   gradient norm :     0.0357558 Eh/α   predicted    -0.1642512E-02 (  21.98%)
   displ. norm   :     0.5393381 α      lambda       -0.2468545E-02
   maximum displ.:     0.2135659 α      in ANC's #16, #7, #18, ...

........................................................................
.............................. CYCLE   15 ..............................
........................................................................
   1   -202.1312136 -0.202131E+03  0.181E-01    0.40       0.0  T
   2   -202.1274456  0.376799E-02  0.160E-01    0.38       1.0  T
   3   -202.1133249  0.141207E-01  0.279E-01    0.48       1.0  T
   4   -202.1311731 -0.178482E-01  0.504E-02    0.40       1.0  T
   5   -202.1312665 -0.933759E-04  0.296E-02    0.40       1.0  T
   6   -202.1314526 -0.186097E-03  0.117E-02    0.40       1.0  T
   7   -202.1314366  0.159206E-04  0.118E-02    0.39       1.0  T
   8   -202.1314678 -0.311320E-04  0.264E-03    0.40       3.7  T
   9   -202.1314678 -0.707258E-07  0.197E-03    0.40       5.0  T
  10   -202.1314684 -0.602434E-06  0.974E-04    0.40      10.1  T
     SCC iter.                  ...        0 min,  1.431 sec
     gradient                   ...        0 min,  0.079 sec
 * total energy  :  -198.9343774 Eh     change       -0.1578068E-02 Eh
   gradient norm :     0.0240811 Eh/α   predicted    -0.1593304E-02 (   0.97%)
   displ. norm   :     0.6079065 α      lambda       -0.2245228E-02
   maximum displ.:     0.2360725 α      in ANC's #16, #7, #27, ...

........................................................................
.............................. CYCLE   16 ..............................
........................................................................
   1   -202.1304592 -0.202130E+03  0.203E-01    0.38       0.0  T
   2   -202.1268786  0.358061E-02  0.161E-01    0.36       1.0  T
   3   -202.1029592  0.239194E-01  0.340E-01    0.49       1.0  T
   4   -202.1300071 -0.270479E-01  0.652E-02    0.39       1.0  T
   5   -202.1303879 -0.380783E-03  0.346E-02    0.38       1.0  T
   6   -202.1306057 -0.217805E-03  0.171E-02    0.38       1.0  T
   7   -202.1306582 -0.525267E-04  0.890E-03    0.38       1.1  T
   8   -202.1306710 -0.127719E-04  0.248E-03    0.38       4.0  T
   9   -202.1306711 -0.113882E-06  0.186E-03    0.38       5.3  T
  10   -202.1306717 -0.625500E-06  0.701E-04    0.38      14.0  T
     SCC iter.                  ...        0 min,  1.246 sec
     gradient                   ...        0 min,  0.078 sec
 * total energy  :  -198.9358439 Eh     change       -0.1466437E-02 Eh
   gradient norm :     0.0289000 Eh/α   predicted    -0.1537479E-02 (   4.84%)
   displ. norm   :     0.6292102 α      lambda       -0.2311581E-02
   maximum displ.:     0.2179942 α      in ANC's #16, #13, #7, ...

........................................................................
.............................. CYCLE   17 ..............................
........................................................................
   1   -202.1224046 -0.202122E+03  0.223E-01    0.36       0.0  T
   2   -202.1224182 -0.136547E-04  0.125E-01    0.37       1.0  T
   3   -202.1153327  0.708550E-02  0.168E-01    0.35       1.0  T
   4   -202.1216502 -0.631751E-02  0.603E-02    0.38       1.0  T
   5   -202.1224809 -0.830629E-03  0.134E-02    0.37       1.0  T
   6   -202.1224906 -0.969213E-05  0.772E-03    0.37       1.3  T
   7   -202.1224964 -0.581037E-05  0.343E-03    0.37       2.9  T
   8   -202.1224978 -0.141194E-05  0.169E-03    0.37       5.8  T
     SCC iter.                  ...        0 min,  1.196 sec
     gradient                   ...        0 min,  0.087 sec
 * total energy  :  -198.9369280 Eh     change       -0.1084120E-02 Eh
   gradient norm :     0.0400406 Eh/α   predicted    -0.1613376E-02 (  48.82%)
   displ. norm   :     0.5103043 α      lambda       -0.2185936E-02
   maximum displ.:     0.1860749 α      in ANC's #16, #7, #20, ...

........................................................................
.............................. CYCLE   18 ..............................
........................................................................
   1   -202.1302774 -0.202130E+03  0.154E-01    0.36       0.0  T
   2   -202.1299987  0.278754E-03  0.931E-02    0.36       1.0  T
   3   -202.1082974  0.217013E-01  0.289E-01    0.34       1.0  T
   4   -202.1293033 -0.210059E-01  0.725E-02    0.37       1.0  T
   5   -202.1303136 -0.101031E-02  0.165E-02    0.36       1.0  T
   6   -202.1303566 -0.430598E-04  0.707E-03    0.36       1.4  T
   7   -202.1303580 -0.141273E-05  0.426E-03    0.36       2.3  T
   8   -202.1303604 -0.235641E-05  0.190E-03    0.36       5.2  T
     SCC iter.                  ...        0 min,  1.082 sec
     gradient                   ...        0 min,  0.084 sec
 * total energy  :  -198.9383904 Eh     change       -0.1462467E-02 Eh
   gradient norm :     0.0176891 Eh/α   predicted    -0.1377591E-02 (  -5.80%)
   displ. norm   :     0.5465913 α      lambda       -0.1733584E-02
   maximum displ.:     0.2113092 α      in ANC's #7, #16, #12, ...

........................................................................
.............................. CYCLE   19 ..............................
........................................................................
   1   -202.1439992 -0.202144E+03  0.153E-01    0.35       0.0  T
   2   -202.1438339  0.165305E-03  0.892E-02    0.36       1.0  T
   3   -202.1240401  0.197938E-01  0.277E-01    0.34       1.0  T
   4   -202.1438064 -0.197663E-01  0.389E-02    0.36       1.0  T
   5   -202.1440425 -0.236070E-03  0.125E-02    0.36       1.0  T
   6   -202.1440531 -0.106442E-04  0.722E-03    0.36       1.4  T
   7   -202.1440583 -0.517720E-05  0.332E-03    0.36       2.9  T
   8   -202.1440596 -0.122781E-05  0.154E-03    0.36       6.4  T
   9   -202.1440599 -0.368951E-06  0.638E-04    0.36      15.4  T
     SCC iter.                  ...        0 min,  1.009 sec
     gradient                   ...        0 min,  0.076 sec
 * total energy  :  -198.9389838 Eh     change       -0.5934053E-03 Eh
   gradient norm :     0.0250155 Eh/α   predicted    -0.1125757E-02 (  89.71%)
   displ. norm   :     0.5974018 α      lambda       -0.2279081E-02
   maximum displ.:     0.1906856 α      in ANC's #16, #7, #13, ...

........................................................................
.............................. CYCLE   20 ..............................
........................................................................
   1   -202.1249308 -0.202125E+03  0.181E-01    0.34       0.0  T
   2   -202.1146578  0.102731E-01  0.221E-01    0.32       1.0  T
   3   -202.1097475  0.491030E-02  0.261E-01    0.41       1.0  T
   4   -202.1245240 -0.147765E-01  0.706E-02    0.35       1.0  T
   5   -202.1248202 -0.296238E-03  0.455E-02    0.35       1.0  T
   6   -202.1253156 -0.495395E-03  0.145E-02    0.34       1.0  T
   7   -202.1253330 -0.173982E-04  0.856E-03    0.34       1.1  T
   8   -202.1253427 -0.963119E-05  0.306E-03    0.34       3.2  T
   9   -202.1253439 -0.119732E-05  0.170E-03    0.34       5.8  T
  10   -202.1253443 -0.425807E-06  0.637E-04    0.34      15.4  T
     SCC iter.                  ...        0 min,  1.290 sec
     gradient                   ...        0 min,  0.083 sec
 * total energy  :  -198.9396546 Eh     change       -0.6707842E-03 Eh
   gradient norm :     0.0273972 Eh/α   predicted    -0.1546231E-02 ( 130.51%)
   displ. norm   :     0.3396893 α      lambda       -0.2802572E-02
   maximum displ.:     0.1178737 α      in ANC's #7, #12, #21, ...
 * RMSD in coord.:     0.8755194 α      energy gain  -0.7739429E-01 Eh

generating ANC from model Hessian ...
Using Lindh-Hessian (1995)
 Shifting diagonal of input Hessian by   5.059903612806091E-003
 Lowest  eigenvalues of input Hessian
    0.005000    0.005042   -0.000000   -0.000000   -0.000000   -0.000000
    0.000000    0.000000    0.005060    0.005085    0.005109    0.005153
    0.005206    0.005236    0.005336    0.005413    0.005555    0.005627
 Highest eigenvalues
    2.274099    2.276178    2.593441    2.605504    2.645429    2.656514
 

........................................................................
.............................. CYCLE   21 ..............................
........................................................................
   1   -202.1392598 -0.202139E+03  0.157E-01    0.34       0.0  T
   2   -202.1342663  0.499349E-02  0.165E-01    0.37       1.0  T
   3   -202.1197165  0.145498E-01  0.281E-01    0.33       1.0  T
   4   -202.1390979 -0.193814E-01  0.549E-02    0.35       1.0  T
   5   -202.1394974 -0.399549E-03  0.241E-02    0.35       1.0  T
   6   -202.1395502 -0.528175E-04  0.143E-02    0.35       1.0  T
   7   -202.1395782 -0.279959E-04  0.751E-03    0.35       1.3  T
   8   -202.1395871 -0.889331E-05  0.284E-03    0.35       3.5  T
   9   -202.1395879 -0.767416E-06  0.120E-03    0.35       8.1  T
  10   -202.1395879 -0.518158E-07  0.715E-04    0.35      13.7  T
  11   -202.1395880 -0.203172E-07  0.404E-04    0.35      24.2  T
     SCC iter.                  ...        0 min,  1.419 sec
     gradient                   ...        0 min,  0.086 sec
 * total energy  :  -198.9393649 Eh     change        0.2897087E-03 Eh
   gradient norm :     0.0418597 Eh/α   predicted     0.0000000E+00 (-100.00%)
   displ. norm   :     0.2364010 α      lambda       -0.2995344E-02
   maximum displ.:     0.0856546 α      in ANC's #35, #7, #10, ...

........................................................................
.............................. CYCLE   22 ..............................
........................................................................
   1   -202.1367748 -0.202137E+03  0.128E-01    0.35       0.0  T
   2   -202.1361440  0.630797E-03  0.868E-02    0.34       1.0  T
   3   -202.1206973  0.154467E-01  0.252E-01    0.41       1.0  T
   4   -202.1367721 -0.160749E-01  0.255E-02    0.35       1.0  T
   5   -202.1368005 -0.284038E-04  0.141E-02    0.35       1.0  T
   6   -202.1368384 -0.378374E-04  0.659E-03    0.35       1.5  T
   7   -202.1368392 -0.858126E-06  0.527E-03    0.35       1.9  T
   8   -202.1368454 -0.617048E-05  0.147E-03    0.35       6.7  T
   9   -202.1368455 -0.116887E-06  0.108E-03    0.35       9.1  T
     SCC iter.                  ...        0 min,  0.998 sec
     gradient                   ...        0 min,  0.087 sec
 * total energy  :  -198.9411210 Eh     change       -0.1756114E-02 Eh
   gradient norm :     0.0153343 Eh/α   predicted    -0.1581371E-02 (  -9.95%)
   displ. norm   :     0.2425517 α      lambda       -0.1107317E-02
   maximum displ.:     0.0859539 α      in ANC's #10, #30, #7, ...

........................................................................
.............................. CYCLE   23 ..............................
........................................................................
   1   -202.1391153 -0.202139E+03  0.137E-01    0.34       0.0  T
   2   -202.1383718  0.743462E-03  0.926E-02    0.36       1.0  T
   3   -202.1103103  0.280615E-01  0.335E-01    0.33       1.0  T
   4   -202.1390662 -0.287559E-01  0.300E-02    0.35       1.0  T
   5   -202.1391578 -0.915523E-04  0.129E-02    0.35       1.0  T
   6   -202.1391914 -0.336580E-04  0.502E-03    0.35       2.0  T
   7   -202.1391922 -0.777764E-06  0.331E-03    0.35       3.0  T
   8   -202.1391929 -0.668338E-06  0.176E-03    0.35       5.6  T
   9   -202.1391933 -0.444347E-06  0.690E-04    0.35      14.2  T
     SCC iter.                  ...        0 min,  1.190 sec
     gradient                   ...        0 min,  0.085 sec
 * total energy  :  -198.9413674 Eh     change       -0.2463785E-03 Eh
   gradient norm :     0.0132310 Eh/α   predicted    -0.5862324E-03 ( 137.94%)
   displ. norm   :     0.2840265 α      lambda       -0.1195373E-02
   maximum displ.:     0.1074122 α      in ANC's #7, #21, #30, ...

........................................................................
.............................. CYCLE   24 ..............................
........................................................................
   1   -202.1396787 -0.202140E+03  0.163E-01    0.35       0.0  T
   2   -202.1393363  0.342469E-03  0.974E-02    0.36       1.0  T
   3   -202.1061455  0.331908E-01  0.359E-01    0.34       1.0  T
   4   -202.1396796 -0.335341E-01  0.228E-02    0.35       1.0  T
   5   -202.1397238 -0.442849E-04  0.106E-02    0.35       1.0  T
   6   -202.1397437 -0.199084E-04  0.424E-03    0.35       2.3  T
   7   -202.1397441 -0.339090E-06  0.236E-03    0.35       4.2  T
   8   -202.1397445 -0.462608E-06  0.108E-03    0.35       9.1  T
     SCC iter.                  ...        0 min,  0.888 sec
     gradient                   ...        0 min,  0.086 sec
 * total energy  :  -198.9414976 Eh     change       -0.1302331E-03 Eh
   gradient norm :     0.0214064 Eh/α   predicted    -0.6459084E-03 ( 395.96%)
   displ. norm   :     0.2407802 α      lambda       -0.1551743E-02
   maximum displ.:     0.0864055 α      in ANC's #35, #10, #9, ...

........................................................................
.............................. CYCLE   25 ..............................
........................................................................
   1   -202.1363018 -0.202136E+03  0.154E-01    0.35       0.0  T
   2   -202.1355747  0.727119E-03  0.100E-01    0.34       1.0  T
   3   -202.1146225  0.209522E-01  0.293E-01    0.43       1.0  T
   4   -202.1362779 -0.216554E-01  0.274E-02    0.35       1.0  T
   5   -202.1363349 -0.570250E-04  0.141E-02    0.35       1.0  T
   6   -202.1363819 -0.469334E-04  0.389E-03    0.35       2.5  T
   7   -202.1363827 -0.831371E-06  0.247E-03    0.35       4.0  T
   8   -202.1363833 -0.625652E-06  0.972E-04    0.35      10.1  T
     SCC iter.                  ...        0 min,  0.890 sec
     gradient                   ...        0 min,  0.077 sec
 * total energy  :  -198.9421425 Eh     change       -0.6448569E-03 Eh
   gradient norm :     0.0103248 Eh/α   predicted    -0.8208653E-03 (  27.29%)
   displ. norm   :     0.2939489 α      lambda       -0.1352280E-02
   maximum displ.:     0.1027935 α      in ANC's #7, #10, #32, ...

........................................................................
.............................. CYCLE   26 ..............................
........................................................................
   1   -202.1337957 -0.202134E+03  0.157E-01    0.35       0.0  T
   2   -202.1337928  0.289860E-05  0.873E-02    0.35       1.0  T
   3   -202.1294048  0.438803E-02  0.132E-01    0.38       1.0  T
   4   -202.1334175 -0.401267E-02  0.441E-02    0.35       1.0  T
   5   -202.1338490 -0.431560E-03  0.924E-03    0.35       1.1  T
   6   -202.1338594 -0.103412E-04  0.448E-03    0.35       2.2  T
   7   -202.1338595 -0.127645E-06  0.317E-03    0.35       3.1  T
   8   -202.1338615 -0.200161E-05  0.106E-03    0.35       9.3  T
   9   -202.1338616 -0.105620E-06  0.519E-04    0.35      18.9  T
     SCC iter.                  ...        0 min,  1.184 sec
     gradient                   ...        0 min,  0.069 sec
 * total energy  :  -198.9425723 Eh     change       -0.4297889E-03 Eh
   gradient norm :     0.0234924 Eh/α   predicted    -0.7345651E-03 (  70.91%)
   displ. norm   :     0.3705238 α      lambda       -0.1269297E-02
   maximum displ.:     0.1470533 α      in ANC's #7, #10, #32, ...

........................................................................
.............................. CYCLE   27 ..............................
........................................................................
   1   -202.1362851 -0.202136E+03  0.146E-01    0.35       0.0  T
   2   -202.1343164  0.196879E-02  0.120E-01    0.37       1.0  T
   3   -202.1129791  0.213372E-01  0.305E-01    0.34       1.0  T
   4   -202.1361265 -0.231474E-01  0.449E-02    0.36       1.0  T
   5   -202.1363862 -0.259679E-03  0.180E-02    0.36       1.0  T
   6   -202.1364508 -0.646156E-04  0.672E-03    0.35       1.5  T
   7   -202.1364522 -0.135103E-05  0.360E-03    0.35       2.7  T
   8   -202.1364526 -0.383032E-06  0.197E-03    0.35       5.0  T
     SCC iter.                  ...        0 min,  0.992 sec
     gradient                   ...        0 min,  0.078 sec
 * total energy  :  -198.9434632 Eh     change       -0.8909286E-03 Eh
   gradient norm :     0.0093641 Eh/α   predicted    -0.7217800E-03 ( -18.99%)
   displ. norm   :     0.6337252 α      lambda       -0.1307118E-02
   maximum displ.:     0.2624525 α      in ANC's #7, #10, #32, ...

........................................................................
.............................. CYCLE   28 ..............................
........................................................................
   1   -202.1326968 -0.202133E+03  0.211E-01    0.35       0.0  T
   2   -202.1311524  0.154434E-02  0.142E-01    0.37       1.0  T
   3   -202.0852122  0.459402E-01  0.434E-01    0.35       1.0  T
   4   -202.1318508 -0.466386E-01  0.768E-02    0.37       1.0  T
   5   -202.1329250 -0.107414E-02  0.217E-02    0.36       1.0  T
   6   -202.1329704 -0.454183E-04  0.107E-02    0.36       1.0  T
   7   -202.1329754 -0.505946E-05  0.540E-03    0.36       1.8  T
   8   -202.1329773 -0.189119E-05  0.216E-03    0.36       4.5  T
   9   -202.1329776 -0.276709E-06  0.118E-03    0.36       8.3  T
     SCC iter.                  ...        0 min,  1.108 sec
     gradient                   ...        0 min,  0.071 sec
 * total energy  :  -198.9445364 Eh     change       -0.1073180E-02 Eh
   gradient norm :     0.0142949 Eh/α   predicted    -0.9160353E-03 ( -14.64%)
   displ. norm   :     0.7184454 α      lambda       -0.1371800E-02
   maximum displ.:     0.3153579 α      in ANC's #7, #10, #15, ...

........................................................................
.............................. CYCLE   29 ..............................
........................................................................
   1   -202.1313523 -0.202131E+03  0.239E-01    0.35       0.0  T
   2   -202.1281641  0.318818E-02  0.176E-01    0.38       1.0  T
   3   -202.0761869  0.519772E-01  0.469E-01    0.37       1.0  T
   4   -202.1304095 -0.542225E-01  0.868E-02    0.37       1.0  T
   5   -202.1316968 -0.128735E-02  0.267E-02    0.36       1.0  T
   6   -202.1317610 -0.641230E-04  0.145E-02    0.36       1.0  T
   7   -202.1317689 -0.794723E-05  0.849E-03    0.36       1.2  T
   8   -202.1317732 -0.429106E-05  0.516E-03    0.36       1.9  T
   9   -202.1317771 -0.394650E-05  0.176E-03    0.36       5.6  T
  10   -202.1317774 -0.288537E-06  0.944E-04    0.36      10.4  T
  11   -202.1317775 -0.557082E-07  0.496E-04    0.36      19.8  T
     SCC iter.                  ...        0 min,  0.928 sec
     gradient                   ...        0 min,  0.085 sec
 * total energy  :  -198.9456755 Eh     change       -0.1139062E-02 Eh
   gradient norm :     0.0164311 Eh/α   predicted    -0.1039939E-02 (  -8.70%)
   displ. norm   :     0.6828533 α      lambda       -0.1544878E-02
   maximum displ.:     0.3220190 α      in ANC's #7, #10, #15, ...

........................................................................
.............................. CYCLE   30 ..............................
........................................................................
   1   -202.1402042 -0.202140E+03  0.229E-01    0.35       0.0  T
   2   -202.1380907  0.211349E-02  0.157E-01    0.38       1.0  T
   3   -202.0884385  0.496522E-01  0.455E-01    0.37       1.0  T
   4   -202.1393743 -0.509358E-01  0.764E-02    0.37       1.0  T
   5   -202.1404738 -0.109945E-02  0.214E-02    0.36       1.0  T
   6   -202.1404983 -0.244814E-04  0.117E-02    0.36       1.0  T
   7   -202.1405035 -0.524896E-05  0.633E-03    0.36       1.5  T
   8   -202.1405059 -0.241747E-05  0.236E-03    0.36       4.2  T
   9   -202.1405063 -0.410800E-06  0.143E-03    0.36       6.9  T
     SCC iter.                  ...        0 min,  0.947 sec
     gradient                   ...        0 min,  0.077 sec
 * total energy  :  -198.9468312 Eh     change       -0.1155778E-02 Eh
   gradient norm :     0.0123519 Eh/α   predicted    -0.1132625E-02 (  -2.00%)
   displ. norm   :     0.7181955 α      lambda       -0.1340509E-02
   maximum displ.:     0.3236960 α      in ANC's #7, #10, #15, ...

........................................................................
.............................. CYCLE   31 ..............................
........................................................................
   1   -202.1379316 -0.202138E+03  0.228E-01    0.36       0.0  T
   2   -202.1365786  0.135297E-02  0.148E-01    0.37       1.0  T
   3   -202.0912357  0.453429E-01  0.432E-01    0.37       1.0  T
   4   -202.1366705 -0.454348E-01  0.847E-02    0.37       1.0  T
   5   -202.1381672 -0.149674E-02  0.215E-02    0.36       1.0  T
   6   -202.1381972 -0.299147E-04  0.117E-02    0.36       1.0  T
   7   -202.1381968  0.313223E-06  0.813E-03    0.36       1.2  T
   8   -202.1382026 -0.574521E-05  0.452E-03    0.36       2.2  T
   9   -202.1382062 -0.359093E-05  0.142E-03    0.36       6.9  T
  10   -202.1382063 -0.130528E-06  0.805E-04    0.36      12.2  T
  11   -202.1382063 -0.284154E-07  0.475E-04    0.36      20.6  T
     SCC iter.                  ...        0 min,  0.919 sec
     gradient                   ...        0 min,  0.077 sec
 * total energy  :  -198.9476694 Eh     change       -0.8381512E-03 Eh
   gradient norm :     0.0157704 Eh/α   predicted    -0.1015978E-02 (  21.22%)
   displ. norm   :     0.4569616 α      lambda       -0.1227511E-02
   maximum displ.:     0.2313799 α      in ANC's #7, #10, #15, ...

........................................................................
.............................. CYCLE   32 ..............................
........................................................................
   1   -202.1472764 -0.202147E+03  0.168E-01    0.36       0.0  T
   2   -202.1469959  0.280474E-03  0.971E-02    0.36       1.0  T
   3   -202.1236298  0.233661E-01  0.305E-01    0.36       1.0  T
   4   -202.1471478 -0.235180E-01  0.327E-02    0.36       1.0  T
   5   -202.1473343 -0.186436E-03  0.113E-02    0.36       1.0  T
   6   -202.1473382 -0.391986E-05  0.622E-03    0.36       1.6  T
   7   -202.1473407 -0.254921E-05  0.378E-03    0.36       2.6  T
   8   -202.1473428 -0.203224E-05  0.166E-03    0.36       5.9  T
   9   -202.1473432 -0.430629E-06  0.658E-04    0.36      14.9  T
     SCC iter.                  ...        0 min,  0.955 sec
     gradient                   ...        0 min,  0.078 sec
 * total energy  :  -198.9479708 Eh     change       -0.3014183E-03 Eh
   gradient norm :     0.0218497 Eh/α   predicted    -0.7419192E-03 ( 146.14%)
   displ. norm   :     0.4303802 α      lambda       -0.1103858E-02
   maximum displ.:     0.2000027 α      in ANC's #7, #10, #15, ...

........................................................................
.............................. CYCLE   33 ..............................
........................................................................
   1   -202.1386435 -0.202139E+03  0.161E-01    0.36       0.0  T
   2   -202.1384836  0.159909E-03  0.909E-02    0.36       1.0  T
   3   -202.1243293  0.141543E-01  0.239E-01    0.35       1.0  T
   4   -202.1379173 -0.135881E-01  0.588E-02    0.37       1.0  T
   5   -202.1387204 -0.803074E-03  0.125E-02    0.36       1.0  T
   6   -202.1387258 -0.538796E-05  0.834E-03    0.36       1.2  T
   7   -202.1387322 -0.637665E-05  0.409E-03    0.36       2.4  T
   8   -202.1387343 -0.217630E-05  0.187E-03    0.36       5.3  T
   9   -202.1387349 -0.551881E-06  0.695E-04    0.36      14.1  T
     SCC iter.                  ...        0 min,  0.751 sec
     gradient                   ...        0 min,  0.085 sec
 * total energy  :  -198.9485827 Eh     change       -0.6119295E-03 Eh
   gradient norm :     0.0113673 Eh/α   predicted    -0.6541673E-03 (   6.90%)
   displ. norm   :     0.2991703 α      lambda       -0.6947050E-03
   maximum displ.:     0.1615131 α      in ANC's #7, #10, #4, ...

........................................................................
.............................. CYCLE   34 ..............................
........................................................................
   1   -202.1457240 -0.202146E+03  0.995E-02    0.36       0.0  T
   2   -202.1456395  0.845370E-04  0.568E-02    0.36       1.0  T
   3   -202.1406925  0.494692E-02  0.142E-01    0.38       1.0  T
   4   -202.1454395 -0.474701E-02  0.368E-02    0.36       1.0  T
   5   -202.1457395 -0.299921E-03  0.113E-02    0.36       1.0  T
   6   -202.1457595 -0.200498E-04  0.497E-03    0.36       2.0  T
   7   -202.1457609 -0.136192E-05  0.267E-03    0.36       3.7  T
   8   -202.1457620 -0.116503E-05  0.872E-04    0.36      11.2  T
     SCC iter.                  ...        0 min,  0.876 sec
     gradient                   ...        0 min,  0.078 sec
 * total energy  :  -198.9488382 Eh     change       -0.2554837E-03 Eh
   gradient norm :     0.0154247 Eh/α   predicted    -0.3784486E-03 (  48.13%)
   displ. norm   :     0.3607763 α      lambda       -0.5618082E-03
   maximum displ.:     0.1905305 α      in ANC's #7, #10, #15, ...

........................................................................
.............................. CYCLE   35 ..............................
........................................................................
   1   -202.1436083 -0.202144E+03  0.114E-01    0.36       0.0  T
   2   -202.1436181 -0.972965E-05  0.618E-02    0.36       1.0  T
   3   -202.1430588  0.559284E-03  0.514E-02    0.36       1.0  T
   4   -202.1430778 -0.189771E-04  0.474E-02    0.35       1.0  T
   5   -202.1436133 -0.535576E-03  0.118E-02    0.36       1.0  T
   6   -202.1436297 -0.163819E-04  0.681E-03    0.36       1.4  T
   7   -202.1436377 -0.794102E-05  0.200E-03    0.36       4.9  T
   8   -202.1436382 -0.523394E-06  0.737E-04    0.36      13.3  T
   9   -202.1436382 -0.346187E-07  0.417E-04    0.36      23.5  T
     SCC iter.                  ...        0 min,  0.755 sec
     gradient                   ...        0 min,  0.086 sec
 * total energy  :  -198.9492597 Eh     change       -0.4214455E-03 Eh
   gradient norm :     0.0091649 Eh/α   predicted    -0.3174678E-03 ( -24.67%)
   displ. norm   :     0.4759177 α      lambda       -0.7509926E-03
   maximum displ.:     0.2685939 α      in ANC's #7, #10, #4, ...

........................................................................
.............................. CYCLE   36 ..............................
........................................................................
   1   -202.1479993 -0.202148E+03  0.147E-01    0.36       0.0  T
   2   -202.1476928  0.306499E-03  0.844E-02    0.35       1.0  T
   3   -202.1327392  0.149536E-01  0.245E-01    0.41       1.0  T
   4   -202.1479972 -0.152580E-01  0.209E-02    0.35       1.0  T
   5   -202.1480066 -0.933957E-05  0.159E-02    0.36       1.0  T
   6   -202.1480478 -0.412633E-04  0.762E-03    0.35       1.3  T
   7   -202.1480506 -0.277887E-05  0.514E-03    0.35       1.9  T
   8   -202.1480567 -0.611329E-05  0.120E-03    0.35       8.2  T
   9   -202.1480569 -0.214686E-06  0.559E-04    0.35      17.5  T
  10   -202.1480570 -0.316619E-07  0.280E-04    0.35      35.1  T
     SCC iter.                  ...        0 min,  1.037 sec
     gradient                   ...        0 min,  0.079 sec
 * total energy  :  -198.9496204 Eh     change       -0.3607047E-03 Eh
   gradient norm :     0.0164922 Eh/α   predicted    -0.4605472E-03 (  27.68%)
   displ. norm   :     0.4793820 α      lambda       -0.5521485E-03
   maximum displ.:     0.2610531 α      in ANC's #7, #10, #4, ...

........................................................................
.............................. CYCLE   37 ..............................
........................................................................
   1   -202.1441789 -0.202144E+03  0.145E-01    0.35       0.0  T
   2   -202.1437792  0.399700E-03  0.866E-02    0.35       1.0  T
   3   -202.1269319  0.168474E-01  0.260E-01    0.41       1.0  T
   4   -202.1441689 -0.172371E-01  0.218E-02    0.35       1.0  T
   5   -202.1441795 -0.106051E-04  0.166E-02    0.35       1.0  T
   6   -202.1442234 -0.438826E-04  0.818E-03    0.35       1.2  T
   7   -202.1442262 -0.283643E-05  0.533E-03    0.35       1.8  T
   8   -202.1442335 -0.727170E-05  0.993E-04    0.35       9.9  T
   9   -202.1442336 -0.614948E-07  0.651E-04    0.35      15.1  T
  10   -202.1442336 -0.508165E-07  0.303E-04    0.35      32.4  T
     SCC iter.                  ...        0 min,  0.845 sec
     gradient                   ...        0 min,  0.078 sec
 * total energy  :  -198.9500553 Eh     change       -0.4349508E-03 Eh
   gradient norm :     0.0103954 Eh/α   predicted    -0.3395230E-03 ( -21.94%)
   displ. norm   :     0.5570526 α      lambda       -0.5850368E-03
   maximum displ.:     0.3143973 α      in ANC's #7, #10, #4, ...

........................................................................
.............................. CYCLE   38 ..............................
........................................................................
   1   -202.1422379 -0.202142E+03  0.139E-01    0.35       0.0  T
   2   -202.1412626  0.975218E-03  0.972E-02    0.34       1.0  T
   3   -202.1238798  0.173828E-01  0.269E-01    0.41       1.0  T
   4   -202.1422104 -0.183305E-01  0.262E-02    0.35       1.0  T
   5   -202.1422367 -0.263269E-04  0.175E-02    0.35       1.0  T
   6   -202.1422944 -0.576764E-04  0.757E-03    0.35       1.3  T
   7   -202.1422894  0.494862E-05  0.693E-03    0.35       1.4  T
   8   -202.1423019 -0.124954E-04  0.136E-03    0.35       7.2  T
   9   -202.1423021 -0.225312E-06  0.744E-04    0.35      13.2  T
  10   -202.1423022 -0.723855E-07  0.326E-04    0.35      30.1  T
     SCC iter.                  ...        0 min,  1.034 sec
     gradient                   ...        0 min,  0.077 sec
 * total energy  :  -198.9505250 Eh     change       -0.4696929E-03 Eh
   gradient norm :     0.0102390 Eh/α   predicted    -0.3832906E-03 ( -18.40%)
   displ. norm   :     0.6274026 α      lambda       -0.6369542E-03
   maximum displ.:     0.3464719 α      in ANC's #7, #10, #4, ...

........................................................................
.............................. CYCLE   39 ..............................
........................................................................
   1   -202.1435517 -0.202144E+03  0.174E-01    0.35       0.0  T
   2   -202.1425169  0.103482E-02  0.111E-01    0.34       1.0  T
   3   -202.1171822  0.253346E-01  0.322E-01    0.43       1.0  T
   4   -202.1435326 -0.263504E-01  0.301E-02    0.35       1.0  T
   5   -202.1435530 -0.203940E-04  0.189E-02    0.35       1.0  T
   6   -202.1435859 -0.328670E-04  0.135E-02    0.35       1.0  T
   7   -202.1436067 -0.208889E-04  0.854E-03    0.35       1.1  T
   8   -202.1436251 -0.183564E-04  0.174E-03    0.35       5.6  T
   9   -202.1436255 -0.421144E-06  0.937E-04    0.35      10.5  T
  10   -202.1436257 -0.140667E-06  0.384E-04    0.35      25.6  T
     SCC iter.                  ...        0 min,  0.842 sec
     gradient                   ...        0 min,  0.077 sec
 * total energy  :  -198.9510298 Eh     change       -0.5048119E-03 Eh
   gradient norm :     0.0117008 Eh/α   predicted    -0.4438427E-03 ( -12.08%)
   displ. norm   :     0.6363478 α      lambda       -0.6391719E-03
   maximum displ.:     0.3521740 α      in ANC's #7, #10, #4, ...

........................................................................
.............................. CYCLE   40 ..............................
........................................................................
   1   -202.1415889 -0.202142E+03  0.152E-01    0.35       0.0  T
   2   -202.1412478  0.341063E-03  0.904E-02    0.34       1.0  T
   3   -202.1233008  0.179470E-01  0.267E-01    0.41       1.0  T
   4   -202.1415962 -0.182955E-01  0.182E-02    0.35       1.0  T
   5   -202.1415928  0.340878E-05  0.137E-02    0.35       1.0  T
   6   -202.1416067 -0.138831E-04  0.962E-03    0.35       1.0  T
   7   -202.1416202 -0.134380E-04  0.498E-03    0.35       2.0  T
   8   -202.1416262 -0.603760E-05  0.115E-03    0.35       8.5  T
   9   -202.1416263 -0.111874E-06  0.764E-04    0.35      12.8  T
  10   -202.1416264 -0.849179E-07  0.333E-04    0.35      29.5  T
     SCC iter.                  ...        0 min,  0.824 sec
     gradient                   ...        0 min,  0.086 sec
 * total energy  :  -198.9515418 Eh     change       -0.5119774E-03 Eh
   gradient norm :     0.0080827 Eh/α   predicted    -0.4490027E-03 ( -12.30%)
   displ. norm   :     0.6496750 α      lambda       -0.5656492E-03
   maximum displ.:     0.3729655 α      in ANC's #7, #10, #4, ...

........................................................................
.............................. CYCLE   41 ..............................
........................................................................
   1   -202.1435771 -0.202144E+03  0.150E-01    0.35       0.0  T
   2   -202.1435598  0.172975E-04  0.827E-02    0.35       1.0  T
   3   -202.1391919  0.436794E-02  0.129E-01    0.34       1.0  T
   4   -202.1434741 -0.428222E-02  0.265E-02    0.35       1.0  T
   5   -202.1435846 -0.110527E-03  0.120E-02    0.35       1.0  T
   6   -202.1435943 -0.971064E-05  0.626E-03    0.35       1.6  T
   7   -202.1436007 -0.633946E-05  0.165E-03    0.35       5.9  T
   8   -202.1436010 -0.292461E-06  0.931E-04    0.35      10.5  T
   9   -202.1436010 -0.305776E-07  0.630E-04    0.35      15.6  T
     SCC iter.                  ...        0 min,  0.746 sec
     gradient                   ...        0 min,  0.083 sec
 * total energy  :  -198.9520032 Eh     change       -0.4614335E-03 Eh
   gradient norm :     0.0088198 Eh/α   predicted    -0.4021984E-03 ( -12.84%)
   displ. norm   :     0.6783870 α      lambda       -0.5645070E-03
   maximum displ.:     0.3923949 α      in ANC's #7, #10, #4, ...

........................................................................
.............................. CYCLE   42 ..............................
........................................................................
   1   -202.1418889 -0.202142E+03  0.193E-01    0.35       0.0  T
   2   -202.1410080  0.880951E-03  0.116E-01    0.36       1.0  T
   3   -202.0962748  0.447331E-01  0.420E-01    0.36       1.0  T
   4   -202.1419026 -0.456277E-01  0.276E-02    0.36       1.0  T
   5   -202.1419416 -0.389779E-04  0.167E-02    0.35       1.0  T
   6   -202.1419643 -0.227452E-04  0.904E-03    0.35       1.1  T
   7   -202.1419710 -0.672739E-05  0.520E-03    0.35       1.9  T
   8   -202.1419747 -0.366320E-05  0.172E-03    0.35       5.7  T
   9   -202.1419751 -0.399133E-06  0.865E-04    0.35      11.3  T
  10   -202.1419752 -0.625620E-07  0.449E-04    0.35      21.8  T
     SCC iter.                  ...        0 min,  0.853 sec
     gradient                   ...        0 min,  0.078 sec
 * total energy  :  -198.9524060 Eh     change       -0.4027725E-03 Eh
   gradient norm :     0.0098912 Eh/α   predicted    -0.4121519E-03 (   2.33%)
   displ. norm   :     0.6207801 α      lambda       -0.5686328E-03
   maximum displ.:     0.3718476 α      in ANC's #7, #4, #10, ...
 * RMSD in coord.:     0.9032859 α      energy gain  -0.1275138E-01 Eh

generating ANC from model Hessian ...
Using Lindh-Hessian (1995)
 Shifting diagonal of input Hessian by   5.012574069803617E-003
 Lowest  eigenvalues of input Hessian
    0.005000    0.005012   -0.000000   -0.000000   -0.000000    0.000000
    0.000000    0.000000    0.005042    0.005046    0.005098    0.005109
    0.005170    0.005209    0.005339    0.005539    0.005637    0.005656
 Highest eigenvalues
    2.274295    2.275308    2.594895    2.598658    2.645214    2.648936
 

........................................................................
.............................. CYCLE   43 ..............................
........................................................................
   1   -202.1507452 -0.202151E+03  0.136E-01    0.36       0.0  T
   2   -202.1494163  0.132889E-02  0.104E-01    0.37       1.0  T
   3   -202.1282158  0.212005E-01  0.298E-01    0.35       1.0  T
   4   -202.1507808 -0.225650E-01  0.245E-02    0.36       1.0  T
   5   -202.1508143 -0.335311E-04  0.125E-02    0.36       1.0  T
   6   -202.1508324 -0.180447E-04  0.684E-03    0.36       1.4  T
   7   -202.1508345 -0.214055E-05  0.446E-03    0.36       2.2  T
   8   -202.1508372 -0.265643E-05  0.177E-03    0.36       5.5  T
   9   -202.1508376 -0.460092E-06  0.786E-04    0.36      12.5  T
  10   -202.1508376 -0.308250E-07  0.481E-04    0.36      20.4  T
     SCC iter.                  ...        0 min,  1.042 sec
     gradient                   ...        0 min,  0.076 sec
 * total energy  :  -198.9527869 Eh     change       -0.3808728E-03 Eh
   gradient norm :     0.0105750 Eh/α   predicted     0.0000000E+00 (-100.00%)
   displ. norm   :     0.1507802 α      lambda       -0.3304931E-03
   maximum displ.:     0.0891365 α      in ANC's #7, #4, #8, ...

........................................................................
.............................. CYCLE   44 ..............................
........................................................................
   1   -202.1488159 -0.202149E+03  0.612E-02    0.36       0.0  T
   2   -202.1487932  0.226404E-04  0.347E-02    0.36       1.0  T
   3   -202.1462055  0.258773E-02  0.101E-01    0.35       1.0  T
   4   -202.1488122 -0.260673E-02  0.886E-03    0.36       1.1  T
   5   -202.1488230 -0.107489E-04  0.333E-03    0.36       2.9  T
   6   -202.1488234 -0.417236E-06  0.175E-03    0.36       5.6  T
   7   -202.1488236 -0.196351E-06  0.825E-04    0.36      11.9  T
     SCC iter.                  ...        0 min,  0.589 sec
     gradient                   ...        0 min,  0.077 sec
 * total energy  :  -198.9529943 Eh     change       -0.2073964E-03 Eh
   gradient norm :     0.0049342 Eh/α   predicted    -0.1690636E-03 ( -18.48%)
   displ. norm   :     0.1467309 α      lambda       -0.2291411E-03
   maximum displ.:     0.0724788 α      in ANC's #7, #4, #30, ...

........................................................................
.............................. CYCLE   45 ..............................
........................................................................
   1   -202.1474274 -0.202147E+03  0.675E-02    0.36       0.0  T
   2   -202.1474163  0.110577E-04  0.378E-02    0.36       1.0  T
   3   -202.1457186  0.169767E-02  0.810E-02    0.35       1.0  T
   4   -202.1473751 -0.165645E-02  0.171E-02    0.36       1.0  T
   5   -202.1474347 -0.596271E-04  0.460E-03    0.36       2.1  T
   6   -202.1474372 -0.250421E-05  0.217E-03    0.36       4.5  T
   7   -202.1474375 -0.336197E-06  0.943E-04    0.36      10.4  T
     SCC iter.                  ...        0 min,  0.595 sec
     gradient                   ...        0 min,  0.077 sec
 * total energy  :  -198.9530364 Eh     change       -0.4214063E-04 Eh
   gradient norm :     0.0063653 Eh/α   predicted    -0.1170409E-03 ( 177.74%)
   displ. norm   :     0.1486180 α      lambda       -0.2709744E-03
   maximum displ.:     0.0765599 α      in ANC's #7, #4, #29, ...

........................................................................
.............................. CYCLE   46 ..............................
........................................................................
   1   -202.1470497 -0.202147E+03  0.717E-02    0.36       0.0  T
   2   -202.1469587  0.910394E-04  0.438E-02    0.37       1.0  T
   3   -202.1408003  0.615840E-02  0.155E-01    0.35       1.0  T
   4   -202.1470538 -0.625353E-02  0.879E-03    0.36       1.1  T
   5   -202.1470610 -0.720185E-05  0.359E-03    0.36       2.7  T
   6   -202.1470621 -0.108646E-05  0.211E-03    0.36       4.6  T
   7   -202.1470626 -0.459503E-06  0.110E-03    0.36       8.9  T
     SCC iter.                  ...        0 min,  0.781 sec
     gradient                   ...        0 min,  0.078 sec
 * total energy  :  -198.9531341 Eh     change       -0.9770813E-04 Eh
   gradient norm :     0.0068368 Eh/α   predicted    -0.1384787E-03 (  41.73%)
   displ. norm   :     0.1436218 α      lambda       -0.2736659E-03
   maximum displ.:     0.0737216 α      in ANC's #7, #4, #45, ...

........................................................................
.............................. CYCLE   47 ..............................
........................................................................
   1   -202.1480056 -0.202148E+03  0.674E-02    0.36       0.0  T
   2   -202.1478872  0.118399E-03  0.434E-02    0.37       1.0  T
   3   -202.1424615  0.542570E-02  0.148E-01    0.35       1.0  T
   4   -202.1479977 -0.553623E-02  0.131E-02    0.36       1.0  T
   5   -202.1480203 -0.225587E-04  0.289E-03    0.36       3.4  T
   6   -202.1480202  0.881623E-07  0.223E-03    0.36       4.4  T
   7   -202.1480209 -0.741494E-06  0.992E-04    0.36       9.9  T
     SCC iter.                  ...        0 min,  0.589 sec
     gradient                   ...        0 min,  0.084 sec
 * total energy  :  -198.9532686 Eh     change       -0.1344462E-03 Eh
   gradient norm :     0.0050517 Eh/α   predicted    -0.1396556E-03 (   3.87%)
   displ. norm   :     0.1690246 α      lambda       -0.1591060E-03
   maximum displ.:     0.0968966 α      in ANC's #7, #4, #8, ...

........................................................................
.............................. CYCLE   48 ..............................
........................................................................
   1   -202.1487843 -0.202149E+03  0.454E-02    0.36       0.0  T
   2   -202.1486385  0.145726E-03  0.346E-02    0.37       1.0  T
   3   -202.1465014  0.213709E-02  0.953E-02    0.36       1.0  T
   4   -202.1487903 -0.228884E-02  0.599E-03    0.36       1.6  T
   5   -202.1487932 -0.289252E-05  0.288E-03    0.36       3.4  T
   6   -202.1487935 -0.274854E-06  0.158E-03    0.36       6.2  T
     SCC iter.                  ...        0 min,  0.508 sec
     gradient                   ...        0 min,  0.246 sec
 * total energy  :  -198.9534001 Eh     change       -0.1315360E-03 Eh
   gradient norm :     0.0036941 Eh/α   predicted    -0.8182778E-04 ( -37.79%)
   displ. norm   :     0.3929234 α      lambda       -0.2814043E-03
   maximum displ.:     0.2234505 α      in ANC's #7, #4, #8, ...

........................................................................
.............................. CYCLE   49 ..............................
........................................................................
   1   -202.1491151 -0.202149E+03  0.973E-02    0.36       0.0  T
   2   -202.1480884  0.102666E-02  0.829E-02    0.37       1.0  T
   3   -202.1404987  0.758973E-02  0.187E-01    0.36       1.0  T
   4   -202.1491546 -0.865585E-02  0.145E-02    0.37       1.0  T
   5   -202.1491659 -0.113735E-04  0.850E-03    0.37       1.2  T
   6   -202.1491736 -0.765310E-05  0.495E-03    0.37       2.0  T
   7   -202.1491761 -0.249659E-05  0.270E-03    0.37       3.6  T
   8   -202.1491772 -0.110179E-05  0.925E-04    0.37      10.6  T
   9   -202.1491773 -0.730087E-07  0.573E-04    0.37      17.1  T
  10   -202.1491773 -0.134956E-07  0.363E-04    0.37      27.0  T
     SCC iter.                  ...        0 min,  0.839 sec
     gradient                   ...        0 min,  0.080 sec
 * total energy  :  -198.9536209 Eh     change       -0.2208261E-03 Eh
   gradient norm :     0.0046233 Eh/α   predicted    -0.1624266E-03 ( -26.45%)
   displ. norm   :     0.5132533 α      lambda       -0.3131950E-03
   maximum displ.:     0.2931185 α      in ANC's #7, #4, #8, ...

........................................................................
.............................. CYCLE   50 ..............................
........................................................................
   1   -202.1481551 -0.202148E+03  0.125E-01    0.37       0.0  T
   2   -202.1468625  0.129264E-02  0.993E-02    0.38       1.0  T
   3   -202.1327813  0.140812E-01  0.249E-01    0.36       1.0  T
   4   -202.1482035 -0.154222E-01  0.198E-02    0.37       1.0  T
   5   -202.1482263 -0.228188E-04  0.103E-02    0.37       1.0  T
   6   -202.1482361 -0.977692E-05  0.589E-03    0.37       1.7  T
   7   -202.1482368 -0.737338E-06  0.412E-03    0.37       2.4  T
   8   -202.1482402 -0.341211E-05  0.140E-03    0.37       7.0  T
   9   -202.1482404 -0.159674E-06  0.812E-04    0.37      12.1  T
  10   -202.1482404 -0.305526E-07  0.505E-04    0.37      19.4  T
     SCC iter.                  ...        0 min,  1.032 sec
     gradient                   ...        0 min,  0.076 sec
 * total energy  :  -198.9538622 Eh     change       -0.2412934E-03 Eh
   gradient norm :     0.0057313 Eh/α   predicted    -0.1978510E-03 ( -18.00%)
   displ. norm   :     0.5105589 α      lambda       -0.3044714E-03
   maximum displ.:     0.2951846 α      in ANC's #7, #4, #8, ...

........................................................................
.............................. CYCLE   51 ..............................
........................................................................
   1   -202.1477304 -0.202148E+03  0.120E-01    0.37       0.0  T
   2   -202.1468280  0.902392E-03  0.888E-02    0.38       1.0  T
   3   -202.1322614  0.145666E-01  0.249E-01    0.36       1.0  T
   4   -202.1477732 -0.155118E-01  0.156E-02    0.37       1.0  T
   5   -202.1477858 -0.125342E-04  0.813E-03    0.37       1.2  T
   6   -202.1477911 -0.533075E-05  0.414E-03    0.37       2.4  T
   7   -202.1477921 -0.981702E-06  0.233E-03    0.37       4.2  T
   8   -202.1477929 -0.780039E-06  0.841E-04    0.37      11.7  T
     SCC iter.                  ...        0 min,  0.677 sec
     gradient                   ...        0 min,  0.076 sec
 * total energy  :  -198.9541227 Eh     change       -0.2604879E-03 Eh
   gradient norm :     0.0052962 Eh/α   predicted    -0.1919196E-03 ( -26.32%)
   displ. norm   :     0.5584841 α      lambda       -0.3600482E-03
   maximum displ.:     0.3283848 α      in ANC's #7, #4, #8, ...

........................................................................
.............................. CYCLE   52 ..............................
........................................................................
   1   -202.1486937 -0.202149E+03  0.125E-01    0.37       0.0  T
   2   -202.1473866  0.130709E-02  0.995E-02    0.38       1.0  T
   3   -202.1339468  0.134398E-01  0.245E-01    0.37       1.0  T
   4   -202.1487543 -0.148075E-01  0.174E-02    0.37       1.0  T
   5   -202.1487664 -0.121774E-04  0.983E-03    0.37       1.0  T
   6   -202.1487768 -0.103636E-04  0.526E-03    0.37       1.9  T
   7   -202.1487780 -0.120715E-05  0.319E-03    0.37       3.1  T
   8   -202.1487797 -0.172588E-05  0.136E-03    0.37       7.2  T
   9   -202.1487799 -0.162235E-06  0.874E-04    0.37      11.2  T
     SCC iter.                  ...        0 min,  0.759 sec
     gradient                   ...        0 min,  0.265 sec
 * total energy  :  -198.9544116 Eh     change       -0.2888942E-03 Eh
   gradient norm :     0.0055604 Eh/α   predicted    -0.2361770E-03 ( -18.25%)
   displ. norm   :     0.5813075 α      lambda       -0.3448447E-03
   maximum displ.:     0.3461153 α      in ANC's #7, #4, #8, ...

........................................................................
.............................. CYCLE   53 ..............................
........................................................................
   1   -202.1493440 -0.202149E+03  0.122E-01    0.37       0.0  T
   2   -202.1491369  0.207119E-03  0.723E-02    0.38       1.0  T
   3   -202.1354336  0.137033E-01  0.235E-01    0.37       1.0  T
   4   -202.1493542 -0.139206E-01  0.137E-02    0.37       1.0  T
   5   -202.1493640 -0.979140E-05  0.810E-03    0.37       1.2  T
   6   -202.1493691 -0.506217E-05  0.374E-03    0.37       2.6  T
   7   -202.1493707 -0.161937E-05  0.169E-03    0.37       5.8  T
   8   -202.1493709 -0.222689E-06  0.887E-04    0.37      11.1  T
     SCC iter.                  ...        0 min,  0.672 sec
     gradient                   ...        0 min,  0.083 sec
 * total energy  :  -198.9547123 Eh     change       -0.3006776E-03 Eh
   gradient norm :     0.0054024 Eh/α   predicted    -0.2306889E-03 ( -23.28%)
   displ. norm   :     0.6411476 α      lambda       -0.3646499E-03
   maximum displ.:     0.3839176 α      in ANC's #7, #4, #8, ...

........................................................................
.............................. CYCLE   54 ..............................
........................................................................
   1   -202.1493179 -0.202149E+03  0.131E-01    0.37       0.0  T
   2   -202.1492900  0.278706E-04  0.722E-02    0.37       1.0  T
   3   -202.1450382  0.425182E-02  0.129E-01    0.37       1.0  T
   4   -202.1492929 -0.425477E-02  0.179E-02    0.37       1.0  T
   5   -202.1493295 -0.365582E-04  0.918E-03    0.37       1.1  T
   6   -202.1493345 -0.498333E-05  0.430E-03    0.37       2.3  T
   7   -202.1493372 -0.270781E-05  0.146E-03    0.37       6.7  T
   8   -202.1493374 -0.176131E-06  0.984E-04    0.37      10.0  T
     SCC iter.                  ...        0 min,  0.677 sec
     gradient                   ...        0 min,  0.078 sec
[...]
    25   6 C      3.756    -0.109    22.632     6.783
    26   6 C      3.135     0.016    27.429     8.573
    27   6 C      2.903    -0.011    28.284     8.720
    28   6 C      2.903    -0.028    28.688     8.782
    29   6 C      2.901    -0.027    28.686     8.782
    30   6 C      2.962    -0.038    28.952     8.826
    31   6 C      2.968     0.027    27.395     8.585
    32  16 S      2.398     0.016   140.396    19.943
    33   6 C      2.965     0.023    27.495     8.601
    34   6 C      3.134    -0.001    27.839     8.637
    35   6 C      3.149    -0.003    27.829     8.629
    36   6 C      2.913    -0.055    29.366     8.886
    37   6 C      2.777     0.156    24.608     8.125
    38   9 F      0.787    -0.199    11.225     3.958
    39   6 C      2.777     0.156    24.603     8.124
    40   9 F      0.787    -0.198    11.210     3.955
    41   6 C      2.913    -0.054    29.342     8.882
    42   6 C      2.982    -0.036    28.899     8.818
    43   6 C      2.893    -0.032    28.793     8.798
    44   6 C      2.924    -0.036    28.898     8.816
    45   6 C      2.976     0.034    27.227     8.559
    46   6 C      3.088    -0.037    28.820     8.800
    47   6 C      3.073    -0.039    28.898     8.814
    48   6 C      3.028     0.031    27.282     8.568
    49  16 S      2.367    -0.031   142.323    20.079
    50   6 C      3.035     0.025    27.402     8.586
    51   6 C      3.071    -0.034    28.780     8.796
    52   6 C      3.078    -0.038    28.869     8.809
    53   6 C      2.980     0.047    26.929     8.512
    54  16 S      2.370    -0.017   141.770    20.040
    55   6 C      2.941    -0.039    28.981     8.829
    56   6 C      2.898    -0.014    28.350     8.730
    57   6 C      3.009    -0.036    28.873     8.814
    58   6 C      2.874     0.223    23.322     7.917
    59   8 O      0.856    -0.373    21.158     6.167
    60   6 C      3.034    -0.020    28.482     8.754
    61   6 C      2.913    -0.019    28.481     8.751
    62   6 C      2.987     0.012    27.735     8.639
    63   6 C      2.991     0.019    27.568     8.613
    64   6 C      2.917    -0.054    29.343     8.883
    65   6 C      2.782     0.173    24.266     8.069
    66   6 C      2.913    -0.045    29.113     8.848
    67   6 C      2.923    -0.031    28.763     8.795
    68   9 F      0.787    -0.220    11.445     3.996
    69   6 C      2.915    -0.034    28.848     8.808
    70   6 C      3.032     0.005    27.880     8.661
    71   6 C      3.017     0.030    27.320     8.574
    72   6 C      2.947    -0.007    28.186     8.707
    73   6 C      1.939     0.126    27.985     8.543
    74   7 N      0.911    -0.278    27.168     7.538
    75   6 C      1.937     0.119    28.148     8.568
    76   7 N      0.911    -0.255    26.622     7.462
    77   1 H      0.926     0.067     2.114     2.274
    78   1 H      0.926     0.065     2.141     2.288
    79   1 H      0.926     0.070     2.089     2.260
    80   1 H      0.925     0.064     2.148     2.292
    81   1 H      0.926     0.057     2.232     2.337
    82   1 H      0.925     0.050     2.321     2.382
    83   1 H      0.925     0.057     2.240     2.340
    84   1 H      0.925     0.062     2.176     2.307
    85   1 H      0.926     0.065     2.143     2.289
    86   1 H      0.925     0.042     2.422     2.434
    87   1 H      0.926     0.052     2.300     2.372
    88   1 H      0.925     0.053     2.288     2.365
    89   1 H      0.926     0.075     2.027     2.226
    90   1 H      0.926     0.074     2.046     2.237
    91   1 H      0.926     0.073     2.054     2.241
    92   1 H      0.926     0.048     2.342     2.393
    93   1 H      0.925     0.055     2.260     2.351
    94   1 H      0.926     0.051     2.306     2.375
    95   1 H      0.926     0.050     2.323     2.383
    96   1 H      0.926     0.050     2.325     2.385
    97   1 H      0.926     0.047     2.359     2.402
    98   1 H      0.925     0.057     2.234     2.337
    99   1 H      0.925     0.075     2.035     2.231
   100   1 H      0.926     0.061     2.189     2.314
   101   1 H      0.926     0.067     2.123     2.279
   102   1 H      0.926     0.063     2.164     2.300
   103   1 H      0.926     0.054     2.273     2.358
   104   1 H      0.926     0.056     2.246     2.344

 Mol. C6AA /au·bohr⁶  :     225793.103297
 Mol. C8AA /au·bohr⁸  :    6624228.949834
 Mol. α(0) /au        :        766.599722


Wiberg/Mayer (AO) data.
largest (>0.10) Wiberg bond orders for each atom
          total WBO             WBO to atom ...
     1  C   3.972        C    2 1.482    C   19 1.128    C    7 1.096
     2  C   3.941        C    1 1.482    C    3 1.099    C    5 1.098
     3  C   3.946        N    4 2.767    C    2 1.099
     4  N   2.969        C    3 2.767
     5  C   3.946        N    6 2.764    C    2 1.098
     6  N   2.970        C    5 2.764
     7  C   3.976        C   12 1.426    C    8 1.240    C    1 1.096
     8  C   3.977        C    9 1.473    C    7 1.240    C   17 1.020
     9  C   3.969        C    8 1.473    C   10 1.314    H   77 0.962
    10  C   3.973        C    9 1.314    C   11 1.263    C   15 1.207
    11  C   3.948        C   12 1.378    C   10 1.263    S   13 1.123
    12  C   3.972        C    7 1.426    C   11 1.378    H   78 0.959
    13  S   2.571        C   14 1.136    C   11 1.123
    14  C   3.900        C   15 1.607    S   13 1.136    Br  16 1.026
    15  C   3.972        C   14 1.607    C   10 1.207    H   79 0.959
    16  Br  1.168        C   14 1.026
    17  C   3.928        O   18 1.758    C   19 1.026    C    8 1.020
    18  O   2.054        C   17 1.758
    19  C   3.968        C   20 1.555    C    1 1.128    C   17 1.026
    20  C   3.955        C   19 1.555    C   21 1.231    H   80 0.947
    21  C   3.912        C   26 1.367    C   20 1.231    S   22 1.116
    22  S   2.603        C   23 1.194    C   21 1.116
    23  C   3.927        C   24 1.585    S   22 1.194    H   81 0.967
    24  C   3.968        C   23 1.585    C   26 1.212    C   25 1.026
    25  C   3.994        C   24 1.026    H   82 0.984    H   83 0.969    H   84 0.968
    26  C   3.960        C   21 1.367    C   24 1.212    C   27 1.161
    27  C   3.892        C   28 1.618    C   26 1.161    H   85 0.954
    28  C   3.981        C   27 1.618    C   29 1.247    H   86 0.959
    29  C   3.917        C   30 1.565    C   28 1.247    H   87 0.958
    30  C   3.947        C   29 1.565    C   31 1.259    H   88 0.957
    31  C   3.865        C   35 1.263    C   30 1.259    S   32 1.167
    32  S   2.586        C   31 1.167    C   33 1.120
    33  C   3.909        C   42 1.355    C   34 1.238    S   32 1.120
    34  C   3.947        C   41 1.303    C   33 1.238    C   35 1.219
    35  C   3.962        C   36 1.288    C   31 1.263    C   34 1.219
    36  C   3.968        C   37 1.487    C   35 1.288    H   89 0.958    C   41 0.103
    37  C   3.874        C   36 1.487    C   39 1.249    F   38 0.977
    38  F   1.111        C   37 0.977
    39  C   3.865        C   41 1.478    C   37 1.249    F   40 0.979
    40  F   1.110        C   39 0.979
    41  C   3.977        C   39 1.478    C   34 1.303    H   90 0.955    C   36 0.103
    42  C   3.893        C   43 1.428    C   33 1.355    H   91 0.936
    43  C   3.951        C   42 1.428    C   44 1.388    H   92 0.953
    44  C   3.895        C   43 1.388    C   45 1.383    H   93 0.958
    45  C   3.911        C   44 1.383    C   46 1.281    S   49 1.096
    46  C   3.925        C   47 1.525    C   45 1.281    H   94 0.963
    47  C   3.955        C   46 1.525    C   48 1.294    H   95 0.962
    48  C   3.916        C   50 1.319    C   47 1.294    S   49 1.118
    49  S   2.552        C   48 1.118    C   45 1.096
    50  C   3.904        C   48 1.319    C   51 1.296    S   54 1.118
    51  C   3.964        C   52 1.520    C   50 1.296    H   96 0.962
    52  C   3.923        C   51 1.520    C   53 1.279    H   97 0.960
    53  C   3.939        C   55 1.379    C   52 1.279    S   54 1.105
    54  S   2.524        C   50 1.118    C   53 1.105
    55  C   3.871        C   53 1.379    C   56 1.374    H   98 0.956
    56  C   3.939        C   57 1.423    C   55 1.374    H   99 0.948
    57  C   3.886        C   56 1.423    C   71 1.190    C   58 1.030
    58  C   3.918        O   59 1.760    C   57 1.030    C   60 1.015
    59  O   2.021        C   58 1.760
    60  C   3.972        C   61 1.531    C   70 1.200    C   58 1.015
    61  C   3.976        C   60 1.531    C   62 1.265    H  100 0.963
    62  C   3.979        C   67 1.290    C   61 1.265    C   63 1.244
    63  C   3.984        C   64 1.293    C   69 1.266    C   62 1.244
    64  C   3.976        C   65 1.490    C   63 1.293    H  101 0.963    C   67 0.111
    65  C   3.879        C   64 1.490    C   66 1.295    F   68 0.963
    66  C   3.976        C   67 1.544    C   65 1.295    H  102 0.966
    67  C   3.981        C   66 1.544    C   62 1.290    H  103 0.967    C   64 0.111
    68  F   1.092        C   65 0.963
    69  C   3.968        C   70 1.514    C   63 1.266    H  104 0.959
    70  C   3.983        C   69 1.514    C   60 1.200    C   71 1.075
    71  C   3.965        C   72 1.423    C   57 1.190    C   70 1.075
    72  C   3.930        C   71 1.423    C   73 1.116    C   75 1.110
    73  C   3.942        N   74 2.734    C   72 1.116
    74  N   2.954        C   73 2.734
    75  C   3.945        N   76 2.748    C   72 1.110
    76  N   2.958        C   75 2.748
    77  H   0.995        C    9 0.962
    78  H   0.995        C   12 0.959
    79  H   0.995        C   15 0.959
    80  H   0.994        C   20 0.947
    81  H   0.995        C   23 0.967
    82  H   0.997        C   25 0.984
    83  H   0.996        C   25 0.969
    84  H   0.995        C   25 0.968
    85  H   0.995        C   27 0.954
    86  H   0.998        C   28 0.959
    87  H   0.997        C   29 0.958
    88  H   0.995        C   30 0.957
    89  H   0.994        C   36 0.958
    90  H   0.994        C   41 0.955
    91  H   0.994        C   42 0.936
    92  H   0.994        C   43 0.953
    93  H   0.995        C   44 0.958
    94  H   0.997        C   46 0.963
    95  H   0.997        C   47 0.962
    96  H   0.997        C   51 0.962
    97  H   0.997        C   52 0.960
    98  H   0.994        C   55 0.956
    99  H   0.988        C   56 0.948
   100  H   0.995        C   61 0.963
   101  H   0.995        C   64 0.963
   102  H   0.995        C   66 0.966
   103  H   0.997        C   67 0.967
   104  H   0.996        C   69 0.959

molecular dipole:
                 x           y           z       tot (Debye)
 q only:        2.544      -0.158       0.377
   full:        2.080      -0.030       0.927       5.789
molecular quadrupole (traceless):
                xx          xy          yy          xz          yz          zz
 q only:     -130.305       0.617     109.178      21.867     -53.780      21.128
  q+dip:     -116.570      16.820      96.790       8.415     -65.593      19.780
   full:     -119.348       9.245     104.952       9.296     -67.402      14.396

           -------------------------------------------------
          |                Geometry Summary                 |
           -------------------------------------------------

      molecular mass/u    :     1146.1170000
   center of mass at/Å    :      -11.4523144      -3.2742324       4.1697164
  moments of inertia/u·Å² :        0.1701527E+05   0.4093824E+05   0.5128875E+05
rotational constants/cm⁻¹ :        0.9907357E-03   0.4117820E-03   0.3286809E-03

 * 100 selected distances

     #   Z        #   Z                                     value/Å
     1   6 C      2   6 C                                 1.3703757
     3   6 C      4   7 N                                 1.1479283
     5   6 C      6   7 N                                 1.1482957
     7   6 C      8   6 C                                 1.4179395
     8   6 C      9   6 C                                 1.3743957
     9   6 C     10   6 C                                 1.4004107
    10   6 C     11   6 C                                 1.4159227
     7   6 C     12   6 C                                 1.3815442
    11   6 C     12   6 C                                 1.3889501
    11   6 C     13  16 S                                 1.7350410
    13  16 S     14   6 C                                 1.7388731
    10   6 C     15   6 C                                 1.4214573
    14   6 C     15   6 C                                 1.3542386
    14   6 C     16  35 Br                                1.8729715 (max)
    17   6 C     18   8 O                                 1.2127638
    19   6 C     20   6 C                                 1.3651728
    20   6 C     21   6 C                                 1.4166755
    21   6 C     22  16 S                                 1.7466979
    22  16 S     23   6 C                                 1.7140067
    23   6 C     24   6 C                                 1.3600123
    24   6 C     25   6 C                                 1.4914059
    21   6 C     26   6 C                                 1.3952891
    24   6 C     26   6 C                                 1.4285520
    26   6 C     27   6 C                                 1.4312209
    27   6 C     28   6 C                                 1.3548940
    28   6 C     29   6 C                                 1.4140533
    29   6 C     30   6 C                                 1.3621787
    30   6 C     31   6 C                                 1.4103142
    31   6 C     32  16 S                                 1.7291021
    32  16 S     33   6 C                                 1.7464027
    33   6 C     34   6 C                                 1.4181155
    31   6 C     35   6 C                                 1.4119732
    34   6 C     35   6 C                                 1.4293629
    35   6 C     36   6 C                                 1.4050649
    36   6 C     37   6 C                                 1.3676987
    37   6 C     39   6 C                                 1.4072725
    34   6 C     41   6 C                                 1.4022534
    39   6 C     41   6 C                                 1.3696695
    33   6 C     42   6 C                                 1.3924740
    42   6 C     43   6 C                                 1.3815485
    43   6 C     44   6 C                                 1.3931570
    44   6 C     45   6 C                                 1.3884961
    45   6 C     46   6 C                                 1.4102187
    46   6 C     47   6 C                                 1.3698258
    47   6 C     48   6 C                                 1.4045622
    45   6 C     49  16 S                                 1.7520406
    48   6 C     49  16 S                                 1.7391233
    48   6 C     50   6 C                                 1.3922436
    50   6 C     51   6 C                                 1.4038879
    51   6 C     52   6 C                                 1.3698412
    52   6 C     53   6 C                                 1.4089264
    50   6 C     54  16 S                                 1.7452484
    53   6 C     54  16 S                                 1.7474376
    53   6 C     55   6 C                                 1.3873981
    55   6 C     56   6 C                                 1.3917299
    56   6 C     57   6 C                                 1.3833421
    58   6 C     59   8 O                                 1.2125472
    60   6 C     61   6 C                                 1.3631602
    61   6 C     62   6 C                                 1.4142782
    62   6 C     63   6 C                                 1.4244925
    63   6 C     64   6 C                                 1.4079491
    64   6 C     65   6 C                                 1.3671775
    65   6 C     66   6 C                                 1.4004511
    62   6 C     67   6 C                                 1.4090529
    66   6 C     67   6 C                                 1.3676981
    63   6 C     69   6 C                                 1.4156772
    60   6 C     70   6 C                                 1.4241391
    69   6 C     70   6 C                                 1.3672242
    57   6 C     71   6 C                                 1.4331484
    71   6 C     72   6 C                                 1.3796791
    73   6 C     74   7 N                                 1.1503863
    75   6 C     76   7 N                                 1.1494500
     9   6 C     77   1 H                                 1.0787815
    12   6 C     78   1 H                                 1.0775557
    15   6 C     79   1 H                                 1.0746325
    20   6 C     80   1 H                                 1.0854794
    23   6 C     81   1 H                                 1.0728270 (min)
    25   6 C     82   1 H                                 1.0866936
    25   6 C     83   1 H                                 1.0892488
    25   6 C     84   1 H                                 1.0891061
    27   6 C     85   1 H                                 1.0810085
    28   6 C     86   1 H                                 1.0821837
    29   6 C     87   1 H                                 1.0800108
    30   6 C     88   1 H                                 1.0839568
    36   6 C     89   1 H                                 1.0765867
    41   6 C     90   1 H                                 1.0753394
    42   6 C     91   1 H                                 1.0822050
    43   6 C     92   1 H                                 1.0790864
    44   6 C     93   1 H                                 1.0828675
    46   6 C     94   1 H                                 1.0759070
    47   6 C     95   1 H                                 1.0748724
    51   6 C     96   1 H                                 1.0753791
    52   6 C     97   1 H                                 1.0750621
    55   6 C     98   1 H                                 1.0826787
    56   6 C     99   1 H                                 1.0868665
    61   6 C    100   1 H                                 1.0796597
    64   6 C    101   1 H                                 1.0788665
    66   6 C    102   1 H                                 1.0784780
    67   6 C    103   1 H                                 1.0797032
    69   6 C    104   1 H                                 1.0785443

 * 6 distinct bonds (by element types)

   Z      Z             #   av. dist./Å        max./Å        min./Å
   1 H    6 C          28     1.0801281     1.0892488     1.0728270
   6 C    6 C          55     1.3966944     1.4914059     1.3542386
   6 C    7 N           4     1.1490151     1.1503863     1.1479283
   6 C    8 O           2     1.2126555     1.2127638     1.2125472
   6 C   16 S          10     1.7393973     1.7520406     1.7140067
   6 C   35 Br          1     1.8729715     1.8729715     1.8729715


optimized geometry written to: xtbopt.xyz


           -------------------------------------------------
          | TOTAL ENERGY             -198.972498182006 Eh   |
          | GRADIENT NORM               0.000816773993 Eh/α |
          | HOMO-LUMO GAP               0.393930061286 eV   |
           -------------------------------------------------

------------------------------------------------------------------------
 * finished run on 2021/06/07 at 14:10:00.695     
------------------------------------------------------------------------
 total:
 * wall-time:     0 d,  0 h,  3 min, 12.359 sec
 *  cpu-time:     0 d,  0 h, 12 min, 49.228 sec
 * ratio c/w:     3.999 speedup
 SCF:
 * wall-time:     0 d,  0 h,  0 min,  3.032 sec
 *  cpu-time:     0 d,  0 h,  0 min, 12.251 sec
 * ratio c/w:     4.040 speedup
 ANC optimizer:
 * wall-time:     0 d,  0 h,  3 min,  9.064 sec
 *  cpu-time:     0 d,  0 h, 12 min, 36.131 sec
 * ratio c/w:     3.999 speedup

