      -----------------------------------------------------------      
     |                   =====================                   |     
     |                           x T B                           |     
     |                   =====================                   |     
     |                         S. Grimme                         |     
     |          Mulliken Center for Theoretical Chemistry        |     
     |                    University of Bonn                     |     
     |                Version 6.2 RC2 (SAW190805)                |     
      -----------------------------------------------------------      

   This program is distributed in the hope that it will be useful,
   but WITHOUT ANY WARRANTY; without even the implied warranty of
   MERCHANTABILITY or FITNESS FOR A PARTICULAR PURPOSE.
   
   FOR NON-COMMERCIAL, ACADEMIA USE ONLY.
   
   Cite this work as:
   * S. Grimme, C. Bannwarth, P. Shushkov, J. Chem. Theory Comput., 2017,
     13, 1989-2009. DOI: 10.1021/acs.jctc.7b00118
   * C. Bannwarth, S. Ehlert and S. Grimme., J. Chem. Theory Comput., 2019,
     15, 1652-1671. DOI: 10.1021/acs.jctc.8b01176
   * P. Pracht, E. Caldeweyher, S. Ehlert, S. Grimme, ChemRxiv, 2019, preprint.
     DOI: 10.26434/chemrxiv.8326202.v1
   
   for DFT-D4:
   * E. Caldeweyher, C. Bannwarth and S. Grimme, J. Chem. Phys., 2017,
     147, 034112. DOI: 10.1063/1.4993215
   * E. Caldeweyher, S. Ehlert, A. Hansen, H. Neugebauer, S. Spicher,
     C. Bannwarth and S. Grimme, J. Chem. Phys., 2019, 150, 154122.
     DOI: 10.1063/1.5090222
   
   for sTDA-xTB:
   * S. Grimme and C. Bannwarth, J. Chem. Phys., 2016, 145, 054103.
     DOI: 10.1063/1.4959605
   
   in the mass-spec context:
   * V. Asgeirsson, C. Bauer and S. Grimme, Chem. Sci., 2017, 8, 4879.
     DOI: 10.1039/c7sc00601b
   
   for metadynamics refer to:
   * S. Grimme, J. Chem. Theory Comput., 2019, 155, 2847-2862
     DOI: 10.1021/acs.jctc.9b00143
   
   with help from (in alphabetical order)
   C. Bannwarth, F. Bohle, G. Brandenburg, E. Caldeweyher, M. Checinski,
   S. Dohm, S. Ehlert, S. Ehrlich, F. März, H. Neugebauer, J. Pisarek,
   P. Pracht, P. Shushkov, and S. Spicher.
   
 * started run on 2021/06/04 at 17:33:37.037     

           -------------------------------------------------
          |                Calculation Setup                |
           -------------------------------------------------

          program call               : /ihome/ghutchison/geoffh/xtb/xtb /ihome/ghutchison/blp62/GA/running_GA/sequence/generations/27/275_117_178_117_47_13530.xyz -opt
          hostname                   : smp-n178
          coordinate file            : /ihome/ghutchison/blp62/GA/running_GA/sequence/generations/27/275_117_178_117_47_13530.xyz
          omp threads                :                    12
          number of atoms            :                    89
          number of electrons        :                   306
          charge                     :                     0
          spin                       :                   0.0
          first test random number   :      0.94200688976356


########################################################################
# WARNING! Please study the warnings concerning your input carefully
#  - XTBPATH is not set, using XTBHOME instead
#  - the use of '-opt' is discouraged, please use '--opt' next time
########################################################################

           ------------------------------------------------- 
          |                 G F N 2 - x T B                 |
          | Geometry, Frequencies, Noncovalent interactions |
          |            JCTC 2019 parametrisation            |
           ------------------------------------------------- 
             KAB for C  - Si     :                1.0500
             KAB for H  - Pd     :                0.9500
             k(s)              :                1.8500
             k(p)              :                2.2300
             k(d)              :                2.2300
             k(f)              :                2.0000
             kEN (H0ij)        :               -2.0000
             D4 a1             :                0.5200
             D4 a2             :                5.0000
             D4 s6             :                1.0000
             D4 s8             :                2.7000
             D4 s9             :                5.0000
             alphaj            :                2.0000

  Z AO/shell   Hii/eV     exponent
  1     Wed Apr 25 08:07:45 CEST 2018   EN: 2.200 GM2: 0.406  GM3: 0.0800  RAES: 1.40
     1s    -10.707211    1.230000
  6     Wed Apr 25 08:07:45 CEST 2018   EN: 2.550 GM2: 0.538  GM3: 0.1500  RAES: 3.00
     2s    -13.970922    2.096432
     2p    -10.063292    1.800000
  7     Wed Apr 25 08:07:45 CEST 2018   EN: 3.040 GM2: 0.461  GM3:-0.0640  RAES: 1.90
     2s    -16.686243    2.339881
     2p    -12.523956    2.014332
  8     Wed Apr 25 08:07:45 CEST 2018   EN: 3.440 GM2: 0.452  GM3:-0.0517  RAES: 1.80
     2s    -20.229985    2.439742
     2p    -15.503117    2.137023
 16     Tue Apr 24 11:44:34 CEST 2018   EN: 2.580 GM2: 0.340  GM3:-0.0502  RAES: 3.10
     3s    -20.029654    1.981333
     3p    -11.377694    2.025643
     3d     -0.420282    1.702555
 35     Tue Apr 24 12:21:41 CEST 2018   EN: 2.960 GM2: 0.261  GM3: 0.1300  RAES: 4.00
     4s    -23.583718    2.077587
     4p    -12.588824    2.263120
     4d      0.047980    1.845038

           ------------------------------------------------- 
          |        Self-Consistent Charge Iterations        |
           ------------------------------------------------- 

          ...................................................
          :                      SETUP                      :
          :.................................................:
          :  # basis functions                 302          :
          :  # atomic orbitals                 298          :
          :  # shells                          156          :
          :  # electrons                       306          :
          :  max. iterations                   250          :
          :  Hamiltonian                  GFN2-xTB          :
          :  restarted?                      false          :
          :  GBSA solvation                  false          :
          :  PC potential                    false          :
          :  electronic temp.          300.0000000     K    :
          :  accuracy                    1.0000000          :
          :  -> integral cutoff          0.2500000E+02      :
          :  -> integral neglect         0.1000000E-07      :
          :  -> SCF convergence          0.1000000E-05 Eh   :
          :  -> wf. convergence          0.1000000E-03 e    :
          :  Broyden damping             0.4000000          :
          ...................................................

 iter      E             dE          RMSdq      gap      omega  full diag
   1   -172.7533677 -0.172753E+03  0.530E+00    1.15       0.0  T
   2   -172.9490248 -0.195657E+00  0.333E+00    0.97       1.0  T
   3   -172.8480433  0.100982E+00  0.213E+00    0.14       1.0  T
   4   -173.0614340 -0.213391E+00  0.896E-01    0.53       1.0  T
   5   -173.1130565 -0.516225E-01  0.271E-01    0.14       1.0  T
   6   -173.1157021 -0.264559E-02  0.179E-01    0.41       1.0  T
   7   -173.1178910 -0.218890E-02  0.795E-02    0.22       1.0  T
   8   -173.1179948 -0.103761E-03  0.557E-02    0.18       1.0  T
   9   -173.1181059 -0.111119E-03  0.425E-02    0.22       1.0  T
  10   -173.1181422 -0.363111E-04  0.332E-02    0.18       1.0  T
  11   -173.1181934 -0.512046E-04  0.237E-02    0.21       1.0  T
  12   -173.1181773  0.160599E-04  0.208E-02    0.18       1.0  T
  13   -173.1182217 -0.443999E-04  0.984E-03    0.20       1.1  T
  14   -173.1182253 -0.359847E-05  0.567E-03    0.19       1.9  T
  15   -173.1182286 -0.329046E-05  0.199E-03    0.20       5.3  T
  16   -173.1182287 -0.115415E-06  0.117E-03    0.20       9.0  T
  17   -173.1182288 -0.763596E-07  0.602E-04    0.20      17.6  T
  18   -173.1182288 -0.116561E-07  0.345E-04    0.20      30.7  T

   *** convergence criteria satisfied after 18 iterations ***

         #    Occupation            Energy/Eh            Energy/eV
      -------------------------------------------------------------
         1        2.0000           -0.8685108             -23.6334
       ...           ...                  ...                  ...
       147        2.0000           -0.4114752             -11.1968
       148        2.0000           -0.4089069             -11.1269
       149        2.0000           -0.4070381             -11.0761
       150        2.0000           -0.3986895             -10.8489
       151        2.0000           -0.3957208             -10.7681
       152        2.0000           -0.3723481             -10.1321
       153        1.9572           -0.3539921              -9.6326 (HOMO)
       154        0.0428           -0.3467282              -9.4350 (LUMO)
       155                         -0.3312181              -9.0129
       156                         -0.3144642              -8.5570
       157                         -0.3132194              -8.5231
       158                         -0.2970609              -8.0834
       ...                                ...                  ...
       298                          1.0779949              29.3337
      -------------------------------------------------------------
                  HL-Gap            0.0072639 Eh            0.1977 eV
             Fermi-level           -0.3503602 Eh           -9.5338 eV

 SCC (total)                   0 d,  0 h,  0 min,  0.452 sec
 SCC setup                      ...        0 min,  0.002 sec (  0.403%)
 Dispersion                     ...        0 min,  0.003 sec (  0.728%)
 integral evaluation            ...        0 min,  0.028 sec (  6.186%)
 zeroth order Hamiltonian       ...        0 min,  0.001 sec (  0.183%)
 iterations                     ...        0 min,  0.399 sec ( 88.271%)
 molecular gradient             ...        0 min,  0.017 sec (  3.793%)
 printout                       ...        0 min,  0.002 sec (  0.406%)

         :::::::::::::::::::::::::::::::::::::::::::::::::::::
         ::                     SUMMARY                     ::
         :::::::::::::::::::::::::::::::::::::::::::::::::::::
         :: total energy            -170.601827865640 Eh    ::
         :: gradient norm              0.174314832316 Eh/a0 ::
         :: HOMO-LUMO gap              0.197660911433 eV    ::
         ::.................................................::
         :: SCC energy              -173.118228835605 Eh    ::
         :: -> isotropic ES            0.202335294276 Eh    ::
         :: -> anisotropic ES          0.007164847672 Eh    ::
         :: -> anisotropic XC          0.080851368593 Eh    ::
         :: -> dispersion             -0.117988496290 Eh    ::
         :: repulsion energy           2.517851060995 Eh    ::
         :: add. restraining           0.000000000000 Eh    ::
         :::::::::::::::::::::::::::::::::::::::::::::::::::::

      ----------------------------------------------------------- 
     |                   =====================                   |
     |                        A N C O P T                        |
     |                   =====================                   |
     |               Approximate Normal Coordinate               |
     |                Rational Function Optimizer                |
      ----------------------------------------------------------- 

          ...................................................
          :                      SETUP                      :
          :.................................................:
          :   optimization level            normal          :
          :   max. optcycles                   267          :
          :   ANC micro-cycles                  20          :
          :   degrees of freedom               261          :
          :.................................................:
          :   RF solver                   davidson          :
          :   input Hessian                  false          :
          :   write xtbopt.log                true          :
          :   linear?                        false          :
          :   energy convergence         0.5000000E-05 Eh   :
          :   grad. convergence          0.1000000E-02 Eh/α :
          :   maximium RF displ.         2.0000000          :
          :   Hlow (freq-cutoff)         0.5000000E-02      :
          :   Hmax (freq-cutoff)         5.0000000          :
          :   S6 in model hess.         20.0000000          :
          ...................................................

generating ANC from model Hessian ...
Using Lindh-Hessian (1995)
 Shifting diagonal of input Hessian by   4.983004898018960E-003
 Lowest  eigenvalues of input Hessian
   -0.000000   -0.000000   -0.000000   -0.000000   -0.000000   -0.000000
    0.005000    0.005013    0.005032    0.005056    0.005114    0.005135
    0.005186    0.005491    0.005575    0.005725    0.005764    0.005963
 Highest eigenvalues
    2.420776    2.427871    2.510536    2.534728    2.534808    2.572838
 

........................................................................
.............................. CYCLE    1 ..............................
........................................................................
   1   -173.1182288 -0.173118E+03  0.232E-04    0.20       0.0  T
   2   -173.1182288  0.644118E-08  0.268E-04    0.20      39.5  T
   3   -173.1182288 -0.741110E-08  0.159E-04    0.20      66.8  T
     SCC iter.                  ...        0 min,  0.076 sec
     gradient                   ...        0 min,  0.025 sec
 * total energy  :  -170.6018277 Eh     change        0.1836208E-06 Eh
   gradient norm :     0.1743177 Eh/α   predicted     0.0000000E+00 (-100.00%)
   displ. norm   :     0.4270366 α      lambda       -0.3491550E-01
   maximum displ.:     0.1122147 α      in ANC's #55, #58, #76, ...

........................................................................
.............................. CYCLE    2 ..............................
........................................................................
   1   -173.1619707 -0.173162E+03  0.244E-01    0.16       0.0  T
   2   -173.1621247 -0.154001E-03  0.146E-01    0.28       1.0  T
   3   -173.1419989  0.201258E-01  0.308E-01    0.07       1.0  T
   4   -173.1618431 -0.198442E-01  0.892E-02    0.39       1.0  T
   5   -173.1623767 -0.533628E-03  0.687E-02    0.33       1.0  T
   6   -173.1624433 -0.665192E-04  0.545E-02    0.31       1.0  T
   7   -173.1625905 -0.147274E-03  0.461E-02    0.28       1.0  T
   8   -173.1627803 -0.189756E-03  0.315E-02    0.24       1.0  T
   9   -173.1629388 -0.158510E-03  0.135E-02    0.21       1.0  T
  10   -173.1629742 -0.354148E-04  0.258E-03    0.19       4.1  T
  11   -173.1629746 -0.380415E-06  0.110E-03    0.19       9.6  T
  12   -173.1629746 -0.409998E-07  0.598E-04    0.19      17.7  T
     SCC iter.                  ...        0 min,  0.257 sec
     gradient                   ...        0 min,  0.022 sec
 * total energy  :  -170.6273424 Eh     change       -0.2551476E-01 Eh
   gradient norm :     0.0817161 Eh/α   predicted    -0.2064150E-01 ( -19.10%)
   displ. norm   :     0.4968410 α      lambda       -0.1722922E-01
   maximum displ.:     0.1436410 α      in ANC's #55, #38, #58, ...

........................................................................
.............................. CYCLE    3 ..............................
........................................................................
   1   -173.1682640 -0.173168E+03  0.269E-01    0.12       0.0  T
   2   -173.1684432 -0.179184E-03  0.191E-01    0.55       1.0  T
   3   -173.1709276 -0.248436E-02  0.121E-01    0.20       1.0  T
   4   -173.1687592  0.216843E-02  0.132E-01    0.12       1.0  T
   5   -173.1708638 -0.210463E-02  0.663E-02    0.26       1.0  T
   6   -173.1715954 -0.731616E-03  0.295E-02    0.20       1.0  T
   7   -173.1716027 -0.725102E-05  0.207E-02    0.16       1.0  T
   8   -173.1716818 -0.791762E-04  0.618E-03    0.18       1.7  T
   9   -173.1716857 -0.389133E-05  0.238E-03    0.18       4.5  T
  10   -173.1716863 -0.544703E-06  0.122E-03    0.18       8.7  T
     SCC iter.                  ...        0 min,  0.409 sec
     gradient                   ...        0 min,  0.019 sec
 * total energy  :  -170.6386777 Eh     change       -0.1133527E-01 Eh
   gradient norm :     0.0216474 Eh/α   predicted    -0.1074113E-01 (  -5.24%)
   displ. norm   :     0.5362375 α      lambda       -0.5770926E-02
   maximum displ.:     0.1860009 α      in ANC's #24, #38, #27, ...

........................................................................
.............................. CYCLE    4 ..............................
........................................................................
   1   -173.1690748 -0.173169E+03  0.220E-01    0.14       0.0  T
   2   -173.1682872  0.787589E-03  0.139E-01    0.32       1.0  T
   3   -173.0271366  0.141151E+00  0.748E-01    0.00       1.0  T
   4   -173.1677715 -0.140635E+00  0.112E-01    0.41       1.0  T
   5   -173.1682747 -0.503253E-03  0.946E-02    0.39       1.0  T
   6   -173.1684969 -0.222119E-03  0.806E-02    0.38       1.0  T
   7   -173.1686457 -0.148828E-03  0.739E-02    0.34       1.0  T
   8   -173.1687471 -0.101433E-03  0.677E-02    0.31       1.0  T
   9   -173.1689567 -0.209582E-03  0.578E-02    0.27       1.0  T
  10   -173.1692628 -0.306092E-03  0.423E-02    0.23       1.0  T
  11   -173.1695741 -0.311347E-03  0.189E-02    0.19       1.0  T
  12   -173.1696483 -0.741617E-04  0.641E-03    0.18       1.7  T
  13   -173.1696438  0.446884E-05  0.724E-03    0.18       1.5  T
  14   -173.1696539 -0.100478E-04  0.337E-03    0.17       3.1  T
  15   -173.1696562 -0.233779E-05  0.104E-03    0.17      10.1  T
  16   -173.1696528  0.336313E-05  0.387E-03    0.18       2.7  T
     SCC iter.                  ...        0 min,  0.335 sec
     gradient                   ...        0 min,  0.021 sec
 * total energy  :  -170.6431352 Eh     change       -0.4457505E-02 Eh
   gradient norm :     0.0201115 Eh/α   predicted    -0.3715224E-02 ( -16.65%)
   displ. norm   :     0.6338136 α      lambda       -0.4474824E-02
   maximum displ.:     0.2288244 α      in ANC's #27, #24, #38, ...

........................................................................
.............................. CYCLE    5 ..............................
........................................................................
   1   -173.1630478 -0.173163E+03  0.261E-01    0.14       0.0  T
   2   -173.1621527  0.895139E-03  0.156E-01    0.29       1.0  T
   3   -172.7385599  0.423593E+00  0.128E+00    0.09       1.0  T
   4   -173.1612834 -0.422723E+00  0.126E-01    0.37       1.0  T
   5   -173.1619920 -0.708612E-03  0.955E-02    0.36       1.0  T
   6   -173.1621772 -0.185236E-03  0.818E-02    0.36       1.0  T
   7   -173.1623623 -0.185026E-03  0.760E-02    0.33       1.0  T
   8   -173.1624383 -0.760413E-04  0.708E-02    0.30       1.0  T
   9   -173.1625961 -0.157810E-03  0.640E-02    0.28       1.0  T
  10   -173.1628394 -0.243253E-03  0.533E-02    0.24       1.0  T
  11   -173.1630173 -0.177887E-03  0.441E-02    0.22       1.0  T
  12   -173.1633390 -0.321753E-03  0.227E-02    0.19       1.0  T
  13   -173.1634245 -0.855100E-04  0.116E-02    0.18       1.0  T
  14   -173.1634431 -0.185914E-04  0.748E-03    0.17       1.4  T
  15   -173.1634541 -0.110336E-04  0.297E-03    0.17       3.6  T
  16   -173.1634548 -0.683811E-06  0.239E-03    0.17       4.4  T
  17   -173.1634558 -0.959992E-06  0.131E-03    0.17       8.1  T
     SCC iter.                  ...        0 min,  0.421 sec
     gradient                   ...        0 min,  0.015 sec
 * total energy  :  -170.6465136 Eh     change       -0.3378422E-02 Eh
   gradient norm :     0.0220906 Eh/α   predicted    -0.3136225E-02 (  -7.17%)
   displ. norm   :     0.6495033 α      lambda       -0.3737028E-02
   maximum displ.:     0.2458033 α      in ANC's #24, #14, #25, ...

........................................................................
.............................. CYCLE    6 ..............................
........................................................................
   1   -173.1670277 -0.173167E+03  0.289E-01    0.15       0.0  T
   2   -173.1666464  0.381293E-03  0.164E-01    0.22       1.0  T
   3   -172.7127871  0.453859E+00  0.132E+00    0.11       1.0  T
   4   -173.1655494 -0.452762E+00  0.964E-02    0.29       1.0  T
   5   -173.1661353 -0.585905E-03  0.791E-02    0.27       1.0  T
   6   -173.1663920 -0.256607E-03  0.635E-02    0.26       1.0  T
   7   -173.1665257 -0.133741E-03  0.559E-02    0.24       1.0  T
   8   -173.1666936 -0.167924E-03  0.484E-02    0.23       1.0  T
   9   -173.1668308 -0.137222E-03  0.408E-02    0.21       1.0  T
  10   -173.1670298 -0.198969E-03  0.287E-02    0.19       1.0  T
  11   -173.1671607 -0.130904E-03  0.157E-02    0.18       1.0  T
  12   -173.1672120 -0.512742E-04  0.574E-03    0.17       1.8  T
  13   -173.1672178 -0.584940E-05  0.255E-03    0.17       4.2  T
  14   -173.1672185 -0.642936E-06  0.196E-03    0.17       5.4  T
     SCC iter.                  ...        0 min,  0.317 sec
     gradient                   ...        0 min,  0.015 sec
 * total energy  :  -170.6487177 Eh     change       -0.2204055E-02 Eh
   gradient norm :     0.0227244 Eh/α   predicted    -0.2656757E-02 (  20.54%)
   displ. norm   :     0.4997053 α      lambda       -0.2550751E-02
   maximum displ.:     0.1942575 α      in ANC's #14, #24, #27, ...

........................................................................
.............................. CYCLE    7 ..............................
........................................................................
   1   -173.1727345 -0.173173E+03  0.222E-01    0.16       0.0  T
   2   -173.1726658  0.686712E-04  0.121E-01    0.18       1.0  T
   3   -173.0619221  0.110744E+00  0.642E-01    0.01       1.0  T
   4   -173.1725212 -0.110599E+00  0.514E-02    0.19       1.0  T
   5   -173.1725706 -0.493556E-04  0.326E-02    0.20       1.0  T
   6   -173.1726970 -0.126410E-03  0.243E-02    0.18       1.0  T
   7   -173.1727217 -0.247702E-04  0.197E-02    0.18       1.0  T
   8   -173.1727550 -0.333008E-04  0.154E-02    0.18       1.0  T
   9   -173.1727828 -0.277284E-04  0.111E-02    0.17       1.0  T
  10   -173.1728052 -0.224341E-04  0.537E-03    0.17       2.0  T
  11   -173.1728110 -0.582853E-05  0.197E-03    0.17       5.4  T
  12   -173.1728119 -0.829158E-06  0.671E-04    0.17      15.8  T
     SCC iter.                  ...        0 min,  0.245 sec
     gradient                   ...        0 min,  0.015 sec
 * total energy  :  -170.6505735 Eh     change       -0.1855855E-02 Eh
   gradient norm :     0.0156057 Eh/α   predicted    -0.1593860E-02 ( -14.12%)
   displ. norm   :     0.4876625 α      lambda       -0.1640138E-02
   maximum displ.:     0.2136607 α      in ANC's #14, #23, #24, ...

........................................................................
.............................. CYCLE    8 ..............................
........................................................................
   1   -173.1796669 -0.173180E+03  0.190E-01    0.16       0.0  T
   2   -173.1796554  0.115056E-04  0.101E-01    0.17       1.0  T
   3   -173.1609224  0.187330E-01  0.263E-01    0.07       1.0  T
   4   -173.1794167 -0.184943E-01  0.456E-02    0.19       1.0  T
   5   -173.1795648 -0.148053E-03  0.291E-02    0.18       1.0  T
   6   -173.1796393 -0.744672E-04  0.193E-02    0.18       1.0  T
   7   -173.1796951 -0.557941E-04  0.878E-03    0.17       1.2  T
   8   -173.1797025 -0.746036E-05  0.612E-03    0.17       1.7  T
   9   -173.1797100 -0.753364E-05  0.301E-03    0.17       3.5  T
  10   -173.1797119 -0.187360E-05  0.703E-04    0.16      15.1  T
  11   -173.1797120 -0.521988E-07  0.427E-04    0.16      24.8  T
     SCC iter.                  ...        0 min,  0.427 sec
     gradient                   ...        0 min,  0.019 sec
 * total energy  :  -170.6518036 Eh     change       -0.1230075E-02 Eh
   gradient norm :     0.0148552 Eh/α   predicted    -0.1015096E-02 ( -17.48%)
   displ. norm   :     0.5370666 α      lambda       -0.1412839E-02
   maximum displ.:     0.2457571 α      in ANC's #14, #23, #8, ...

........................................................................
.............................. CYCLE    9 ..............................
........................................................................
   1   -173.1843279 -0.173184E+03  0.216E-01    0.16       0.0  T
   2   -173.1842166  0.111313E-03  0.116E-01    0.19       1.0  T
   3   -173.0058521  0.178365E+00  0.818E-01    0.02       1.0  T
   4   -173.1840390 -0.178187E+00  0.482E-02    0.20       1.0  T
   5   -173.1840004  0.385866E-04  0.428E-02    0.20       1.0  T
   6   -173.1841642 -0.163746E-03  0.333E-02    0.19       1.0  T
   7   -173.1842688 -0.104629E-03  0.234E-02    0.18       1.0  T
   8   -173.1843013 -0.325286E-04  0.195E-02    0.18       1.0  T
   9   -173.1843413 -0.399810E-04  0.149E-02    0.18       1.0  T
  10   -173.1843709 -0.295580E-04  0.978E-03    0.17       1.1  T
  11   -173.1843907 -0.198255E-04  0.378E-03    0.17       2.8  T
  12   -173.1843933 -0.263652E-05  0.174E-03    0.16       6.1  T
  13   -173.1843940 -0.686493E-06  0.256E-04    0.16      41.4  T
     SCC iter.                  ...        0 min,  0.252 sec
     gradient                   ...        0 min,  0.015 sec
 * total energy  :  -170.6527267 Eh     change       -0.9230360E-03 Eh
   gradient norm :     0.0165736 Eh/α   predicted    -0.9101868E-03 (  -1.39%)
   displ. norm   :     0.5298139 α      lambda       -0.1162405E-02
   maximum displ.:     0.2430594 α      in ANC's #14, #23, #8, ...

........................................................................
.............................. CYCLE   10 ..............................
........................................................................
   1   -173.1880830 -0.173188E+03  0.220E-01    0.16       0.0  T
   2   -173.1880110  0.719796E-04  0.118E-01    0.18       1.0  T
   3   -173.0757356  0.112275E+00  0.654E-01    0.01       1.0  T
   4   -173.1873709 -0.111635E+00  0.653E-02    0.22       1.0  T
   5   -173.1877743 -0.403369E-03  0.427E-02    0.20       1.0  T
   6   -173.1879044 -0.130105E-03  0.378E-02    0.19       1.0  T
   7   -173.1880115 -0.107075E-03  0.248E-02    0.18       1.0  T
   8   -173.1880829 -0.714357E-04  0.180E-02    0.18       1.0  T
   9   -173.1881181 -0.351767E-04  0.131E-02    0.17       1.0  T
  10   -173.1881503 -0.322087E-04  0.646E-03    0.17       1.6  T
  11   -173.1881597 -0.942700E-05  0.128E-03    0.16       8.3  T
  12   -173.1881600 -0.292560E-06  0.515E-04    0.16      20.6  T
  13   -173.1881601 -0.227386E-07  0.301E-04    0.16      35.2  T
     SCC iter.                  ...        0 min,  0.265 sec
     gradient                   ...        0 min,  0.022 sec
 * total energy  :  -170.6533487 Eh     change       -0.6220757E-03 Eh
   gradient norm :     0.0149973 Eh/α   predicted    -0.7443498E-03 (  19.66%)
   displ. norm   :     0.3470066 α      lambda       -0.6214124E-03
   maximum displ.:     0.1733146 α      in ANC's #14, #8, #10, ...

........................................................................
.............................. CYCLE   11 ..............................
........................................................................
   1   -173.1863803 -0.173186E+03  0.140E-01    0.15       0.0  T
   2   -173.1861817  0.198585E-03  0.784E-02    0.19       1.0  T
   3   -173.0111691  0.175013E+00  0.813E-01    0.02       1.0  T
   4   -173.1860362 -0.174867E+00  0.447E-02    0.20       1.0  T
   5   -173.1860734 -0.372321E-04  0.397E-02    0.20       1.0  T
   6   -173.1861569 -0.834501E-04  0.333E-02    0.19       1.0  T
   7   -173.1862879 -0.131056E-03  0.243E-02    0.18       1.0  T
   8   -173.1863330 -0.450241E-04  0.191E-02    0.18       1.0  T
   9   -173.1863762 -0.432275E-04  0.141E-02    0.17       1.0  T
  10   -173.1864075 -0.313531E-04  0.799E-03    0.17       1.3  T
  11   -173.1864221 -0.145310E-04  0.208E-03    0.16       5.1  T
  12   -173.1864230 -0.945055E-06  0.434E-04    0.16      24.4  T
  13   -173.1864230  0.358017E-07  0.521E-04    0.16      20.4  T
     SCC iter.                  ...        0 min,  0.276 sec
     gradient                   ...        0 min,  0.015 sec
 * total energy  :  -170.6538099 Eh     change       -0.4611250E-03 Eh
   gradient norm :     0.0088226 Eh/α   predicted    -0.3481197E-03 ( -24.51%)
   displ. norm   :     0.4478716 α      lambda       -0.7046019E-03
   maximum displ.:     0.2103470 α      in ANC's #14, #8, #10, ...

........................................................................
.............................. CYCLE   12 ..............................
........................................................................
   1   -173.1855466 -0.173186E+03  0.171E-01    0.15       0.0  T
   2   -173.1850158  0.530803E-03  0.102E-01    0.21       1.0  T
   3   -172.8297900  0.355226E+00  0.116E+00    0.07       1.0  T
   4   -173.1846823 -0.354892E+00  0.719E-02    0.24       1.0  T
   5   -173.1847514 -0.690335E-04  0.656E-02    0.23       1.0  T
   6   -173.1848710 -0.119673E-03  0.564E-02    0.23       1.0  T
   7   -173.1851383 -0.267231E-03  0.473E-02    0.21       1.0  T
   8   -173.1852508 -0.112520E-03  0.402E-02    0.20       1.0  T
   9   -173.1853999 -0.149095E-03  0.320E-02    0.19       1.0  T
  10   -173.1855413 -0.141404E-03  0.204E-02    0.18       1.0  T
  11   -173.1856267 -0.854668E-04  0.753E-03    0.16       1.4  T
  12   -173.1856382 -0.114976E-04  0.278E-03    0.16       3.8  T
  13   -173.1856398 -0.159510E-05  0.888E-04    0.16      11.9  T
  14   -173.1856400 -0.143490E-06  0.330E-04    0.16      32.1  T
     SCC iter.                  ...        0 min,  0.304 sec
     gradient                   ...        0 min,  0.015 sec
 * total energy  :  -170.6542047 Eh     change       -0.3947978E-03 Eh
   gradient norm :     0.0124044 Eh/α   predicted    -0.4229684E-03 (   7.14%)
   displ. norm   :     0.3897823 α      lambda       -0.5246250E-03
   maximum displ.:     0.1756755 α      in ANC's #14, #8, #10, ...

........................................................................
.............................. CYCLE   13 ..............................
........................................................................
   1   -173.1834028 -0.173183E+03  0.143E-01    0.15       0.0  T
   2   -173.1830730  0.329791E-03  0.837E-02    0.19       1.0  T
   3   -172.9290361  0.254037E+00  0.981E-01    0.04       1.0  T
   4   -173.1828556 -0.253819E+00  0.543E-02    0.21       1.0  T
   5   -173.1828864 -0.308257E-04  0.488E-02    0.21       1.0  T
   6   -173.1830959 -0.209464E-03  0.391E-02    0.20       1.0  T
   7   -173.1831916 -0.957400E-04  0.338E-02    0.19       1.0  T
   8   -173.1832659 -0.743035E-04  0.276E-02    0.18       1.0  T
   9   -173.1833466 -0.807320E-04  0.212E-02    0.18       1.0  T
  10   -173.1834171 -0.704327E-04  0.123E-02    0.17       1.0  T
  11   -173.1834507 -0.336341E-04  0.368E-03    0.16       2.9  T
  12   -173.1834536 -0.292988E-05  0.114E-03    0.16       9.3  T
  13   -173.1834539 -0.253809E-06  0.373E-04    0.16      28.4  T
     SCC iter.                  ...        0 min,  0.250 sec
     gradient                   ...        0 min,  0.015 sec
 * total energy  :  -170.6544728 Eh     change       -0.2681103E-03 Eh
   gradient norm :     0.0129376 Eh/α   predicted    -0.3021666E-03 (  12.70%)
   displ. norm   :     0.2770580 α      lambda       -0.3710945E-03
   maximum displ.:     0.1097712 α      in ANC's #14, #10, #8, ...

........................................................................
.............................. CYCLE   14 ..............................
........................................................................
   1   -173.1883404 -0.173188E+03  0.971E-02    0.16       0.0  T
   2   -173.1883473 -0.691356E-05  0.516E-02    0.16       1.0  T
   3   -173.1883233  0.239967E-04  0.180E-02    0.16       1.0  T
   4   -173.1883305 -0.717084E-05  0.108E-02    0.15       1.0  T
   5   -173.1882743  0.562044E-04  0.178E-02    0.17       1.0  T
   6   -173.1883458 -0.715311E-04  0.670E-03    0.16       1.6  T
   7   -173.1883516 -0.584918E-05  0.159E-03    0.16       6.7  T
   8   -173.1883518 -0.175367E-06  0.869E-04    0.16      12.2  T
   9   -173.1883518 -0.238425E-07  0.613E-04    0.16      17.3  T
     SCC iter.                  ...        0 min,  0.177 sec
     gradient                   ...        0 min,  0.019 sec
 * total energy  :  -170.6546814 Eh     change       -0.2086525E-03 Eh
   gradient norm :     0.0114088 Eh/α   predicted    -0.1997958E-03 (  -4.24%)
   displ. norm   :     0.3517988 α      lambda       -0.4574203E-03
   maximum displ.:     0.1461074 α      in ANC's #14, #8, #10, ...

........................................................................
.............................. CYCLE   15 ..............................
........................................................................
   1   -173.1869177 -0.173187E+03  0.126E-01    0.16       0.0  T
   2   -173.1869014  0.163454E-04  0.675E-02    0.17       1.0  T
   3   -173.1741607  0.127407E-01  0.224E-01    0.08       1.0  T
   4   -173.1866343 -0.124736E-01  0.377E-02    0.19       1.0  T
   5   -173.1868774 -0.243094E-03  0.206E-02    0.17       1.0  T
   6   -173.1868958 -0.183853E-04  0.152E-02    0.17       1.0  T
   7   -173.1869397 -0.439355E-04  0.457E-03    0.16       2.3  T
   8   -173.1869429 -0.316324E-05  0.200E-03    0.16       5.3  T
   9   -173.1869434 -0.506088E-06  0.108E-03    0.16       9.8  T
  10   -173.1869435 -0.984066E-07  0.568E-04    0.16      18.7  T
     SCC iter.                  ...        0 min,  0.334 sec
     gradient                   ...        0 min,  0.023 sec
 * total energy  :  -170.6548502 Eh     change       -0.1687357E-03 Eh
   gradient norm :     0.0121180 Eh/α   predicted    -0.2570203E-03 (  52.32%)
   displ. norm   :     0.2561785 α      lambda       -0.4250426E-03
   maximum displ.:     0.0968100 α      in ANC's #10, #14, #8, ...

........................................................................
.............................. CYCLE   16 ..............................
........................................................................
   1   -173.1890357 -0.173189E+03  0.854E-02    0.15       0.0  T
   2   -173.1888509  0.184845E-03  0.526E-02    0.18       1.0  T
   3   -173.1275945  0.612564E-01  0.483E-01    0.03       1.0  T
   4   -173.1887838 -0.611893E-01  0.367E-02    0.19       1.0  T
   5   -173.1888260 -0.422263E-04  0.314E-02    0.18       1.0  T
   6   -173.1889194 -0.934198E-04  0.238E-02    0.18       1.0  T
   7   -173.1889980 -0.785727E-04  0.163E-02    0.17       1.0  T
   8   -173.1890348 -0.367895E-04  0.980E-03    0.16       1.1  T
   9   -173.1890506 -0.158544E-04  0.568E-03    0.16       1.9  T
  10   -173.1890570 -0.635692E-05  0.230E-03    0.16       4.6  T
  11   -173.1890582 -0.118613E-05  0.350E-04    0.16      30.3  T
  12   -173.1890581  0.220025E-07  0.407E-04    0.16      26.0  T
     SCC iter.                  ...        0 min,  0.251 sec
     gradient                   ...        0 min,  0.021 sec
 * total energy  :  -170.6550444 Eh     change       -0.1942915E-03 Eh
   gradient norm :     0.0118661 Eh/α   predicted    -0.2264718E-03 (  16.56%)
   displ. norm   :     0.2629413 α      lambda       -0.3314184E-03
   maximum displ.:     0.1033583 α      in ANC's #14, #9, #10, ...

........................................................................
.............................. CYCLE   17 ..............................
........................................................................
   1   -173.1840109 -0.173184E+03  0.979E-02    0.15       0.0  T
   2   -173.1833487  0.662216E-03  0.739E-02    0.21       1.0  T
   3   -173.1173976  0.659510E-01  0.503E-01    0.03       1.0  T
   4   -173.1832945 -0.658968E-01  0.644E-02    0.22       1.0  T
   5   -173.1833080 -0.135674E-04  0.570E-02    0.22       1.0  T
   6   -173.1835183 -0.210260E-03  0.500E-02    0.21       1.0  T
   7   -173.1836967 -0.178364E-03  0.404E-02    0.19       1.0  T
   8   -173.1839059 -0.209208E-03  0.274E-02    0.18       1.0  T
   9   -173.1840276 -0.121765E-03  0.156E-02    0.17       1.0  T
  10   -173.1840801 -0.524514E-04  0.514E-03    0.16       2.1  T
  11   -173.1840862 -0.607500E-05  0.617E-04    0.16      17.2  T
  12   -173.1840862 -0.282447E-07  0.383E-04    0.16      27.7  T
  13   -173.1840862  0.149871E-07  0.352E-04    0.16      30.2  T
     SCC iter.                  ...        0 min,  0.258 sec
     gradient                   ...        0 min,  0.017 sec
 * total energy  :  -170.6552119 Eh     change       -0.1674366E-03 Eh
   gradient norm :     0.0097343 Eh/α   predicted    -0.1771677E-03 (   5.81%)
   displ. norm   :     0.3290318 α      lambda       -0.3953723E-03
   maximum displ.:     0.1211891 α      in ANC's #9, #8, #4, ...

........................................................................
.............................. CYCLE   18 ..............................
........................................................................
   1   -173.1901394 -0.173190E+03  0.110E-01    0.15       0.0  T
   2   -173.1899977  0.141698E-03  0.638E-02    0.18       1.0  T
   3   -173.0891429  0.100855E+00  0.619E-01    0.01       1.0  T
   4   -173.1899311 -0.100788E+00  0.364E-02    0.18       1.0  T
   5   -173.1899726 -0.414780E-04  0.287E-02    0.18       1.0  T
   6   -173.1900529 -0.803330E-04  0.237E-02    0.17       1.0  T
   7   -173.1901021 -0.492075E-04  0.165E-02    0.17       1.0  T
   8   -173.1901427 -0.406045E-04  0.105E-02    0.16       1.0  T
   9   -173.1901558 -0.130532E-04  0.740E-03    0.16       1.4  T
  10   -173.1901661 -0.102684E-04  0.342E-03    0.16       3.1  T
  11   -173.1901688 -0.275789E-05  0.440E-04    0.16      24.1  T
  12   -173.1901686  0.225752E-06  0.994E-04    0.16      10.7  T
     SCC iter.                  ...        0 min,  0.234 sec
     gradient                   ...        0 min,  0.015 sec
 * total energy  :  -170.6553697 Eh     change       -0.1577850E-03 Eh
   gradient norm :     0.0125922 Eh/α   predicted    -0.2190896E-03 (  38.85%)
   displ. norm   :     0.3219700 α      lambda       -0.3461987E-03
   maximum displ.:     0.1321789 α      in ANC's #14, #9, #8, ...

........................................................................
.............................. CYCLE   19 ..............................
........................................................................
   1   -173.1854241 -0.173185E+03  0.111E-01    0.15       0.0  T
   2   -173.1851485  0.275568E-03  0.673E-02    0.19       1.0  T
   3   -173.0406934  0.144455E+00  0.742E-01    0.01       1.0  T
   4   -173.1849825 -0.144289E+00  0.473E-02    0.20       1.0  T
   5   -173.1850622 -0.797381E-04  0.407E-02    0.19       1.0  T
   6   -173.1852140 -0.151774E-03  0.330E-02    0.18       1.0  T
   7   -173.1852919 -0.779184E-04  0.261E-02    0.18       1.0  T
   8   -173.1853818 -0.898464E-04  0.178E-02    0.17       1.0  T
   9   -173.1854177 -0.359370E-04  0.128E-02    0.17       1.0  T
  10   -173.1854479 -0.302164E-04  0.643E-03    0.16       1.6  T
  11   -173.1854571 -0.920267E-05  0.126E-03    0.16       8.4  T
  12   -173.1854575 -0.315897E-06  0.523E-04    0.16      20.3  T
  13   -173.1854574  0.100997E-06  0.825E-04    0.16      12.9  T
     SCC iter.                  ...        0 min,  0.323 sec
     gradient                   ...        0 min,  0.022 sec
 * total energy  :  -170.6556329 Eh     change       -0.2632633E-03 Eh
   gradient norm :     0.0092726 Eh/α   predicted    -0.1910469E-03 ( -27.43%)
   displ. norm   :     0.4639041 α      lambda       -0.5004423E-03
   maximum displ.:     0.1926745 α      in ANC's #9, #4, #8, ...

........................................................................
.............................. CYCLE   20 ..............................
........................................................................
   1   -173.1871270 -0.173187E+03  0.140E-01    0.15       0.0  T
   2   -173.1865659  0.561023E-03  0.890E-02    0.21       1.0  T
   3   -172.9169918  0.269574E+00  0.101E+00    0.05       1.0  T
   4   -173.1864202 -0.269428E+00  0.648E-02    0.22       1.0  T
   5   -173.1863864  0.338317E-04  0.582E-02    0.22       1.0  T
   6   -173.1866365 -0.250098E-03  0.500E-02    0.21       1.0  T
   7   -173.1867546 -0.118148E-03  0.432E-02    0.20       1.0  T
   8   -173.1869178 -0.163227E-03  0.344E-02    0.19       1.0  T
   9   -173.1870350 -0.117159E-03  0.262E-02    0.18       1.0  T
  10   -173.1871533 -0.118286E-03  0.137E-02    0.17       1.0  T
  11   -173.1871946 -0.413512E-04  0.386E-03    0.16       2.7  T
  12   -173.1871979 -0.329338E-05  0.663E-04    0.16      16.0  T
  13   -173.1871980 -0.553576E-07  0.347E-04    0.16      30.5  T
  14   -173.1871980 -0.320534E-08  0.288E-04    0.16      36.8  T
     SCC iter.                  ...        0 min,  0.270 sec
     gradient                   ...        0 min,  0.018 sec
 * total energy  :  -170.6559420 Eh     change       -0.3091221E-03 Eh
   gradient norm :     0.0103853 Eh/α   predicted    -0.3040755E-03 (  -1.63%)
   displ. norm   :     0.5859225 α      lambda       -0.4154248E-03
   maximum displ.:     0.2225897 α      in ANC's #9, #14, #4, ...
 * RMSD in coord.:     0.6887529 α      energy gain  -0.5411418E-01 Eh

generating ANC from model Hessian ...
Using Lindh-Hessian (1995)
 Shifting diagonal of input Hessian by   5.002618232204895E-003
 Lowest  eigenvalues of input Hessian
    0.005000   -0.000000   -0.000000   -0.000000    0.000000    0.000000
    0.000000    0.005028    0.005048    0.005061    0.005129    0.005147
    0.005181    0.005506    0.005551    0.005641    0.005727    0.005920
 Highest eigenvalues
    2.395195    2.406845    2.484927    2.500585    2.605522    2.641966
 

........................................................................
.............................. CYCLE   21 ..............................
........................................................................
   1   -173.1793595 -0.173179E+03  0.182E-01    0.14       0.0  T
   2   -173.1784034  0.956081E-03  0.116E-01    0.24       1.0  T
   3   -172.7919033  0.386500E+00  0.122E+00    0.09       1.0  T
   4   -173.1783495 -0.386446E+00  0.836E-02    0.26       1.0  T
   5   -173.1782584  0.910960E-04  0.750E-02    0.27       1.0  T
   6   -173.1785235 -0.265170E-03  0.680E-02    0.24       1.0  T
   7   -173.1786931 -0.169540E-03  0.602E-02    0.23       1.0  T
   8   -173.1788623 -0.169232E-03  0.540E-02    0.21       1.0  T
   9   -173.1790553 -0.193022E-03  0.450E-02    0.20       1.0  T
  10   -173.1793167 -0.261336E-03  0.299E-02    0.18       1.0  T
  11   -173.1795091 -0.192409E-03  0.885E-03    0.16       1.2  T
  12   -173.1795261 -0.170068E-04  0.264E-03    0.16       4.0  T
  13   -173.1795269 -0.843249E-06  0.149E-03    0.16       7.1  T
  14   -173.1795273 -0.417523E-06  0.762E-04    0.16      13.9  T
  15   -173.1795274 -0.733556E-07  0.435E-04    0.16      24.4  T
     SCC iter.                  ...        0 min,  0.447 sec
     gradient                   ...        0 min,  0.024 sec
 * total energy  :  -170.6562401 Eh     change       -0.2980019E-03 Eh
   gradient norm :     0.0113129 Eh/α   predicted     0.0000000E+00 (-100.00%)
   displ. norm   :     0.1294687 α      lambda       -0.3436969E-03
   maximum displ.:     0.0434480 α      in ANC's #13, #17, #19, ...

........................................................................
.............................. CYCLE   22 ..............................
........................................................................
   1   -173.1863694 -0.173186E+03  0.526E-02    0.16       0.0  T
   2   -173.1863409  0.285563E-04  0.306E-02    0.15       1.0  T
   3   -173.1854810  0.859894E-03  0.621E-02    0.22       1.0  T
   4   -173.1863680 -0.887024E-03  0.870E-03    0.16       1.2  T
   5   -173.1863724 -0.442976E-05  0.465E-03    0.16       2.3  T
   6   -173.1863711  0.130046E-05  0.527E-03    0.16       2.0  T
   7   -173.1863716 -0.443615E-06  0.375E-03    0.15       2.8  T
   8   -173.1863750 -0.340345E-05  0.936E-04    0.16      11.3  T
   9   -173.1863751 -0.159693E-06  0.475E-04    0.16      22.3  T
  10   -173.1863752 -0.115982E-07  0.342E-04    0.16      31.0  T
     SCC iter.                  ...        0 min,  0.191 sec
     gradient                   ...        0 min,  0.022 sec
 * total energy  :  -170.6564879 Eh     change       -0.2478420E-03 Eh
   gradient norm :     0.0041372 Eh/α   predicted    -0.1748363E-03 ( -29.46%)
   displ. norm   :     0.1776965 α      lambda       -0.2610617E-03
   maximum displ.:     0.0694626 α      in ANC's #27, #13, #18, ...

........................................................................
.............................. CYCLE   23 ..............................
........................................................................
   1   -173.1911348 -0.173191E+03  0.834E-02    0.16       0.0  T
   2   -173.1911186  0.161865E-04  0.459E-02    0.17       1.0  T
   3   -173.1828658  0.825283E-02  0.178E-01    0.09       1.0  T
   4   -173.1911021 -0.823630E-02  0.163E-02    0.17       1.0  T
   5   -173.1911358 -0.337148E-04  0.772E-03    0.16       1.4  T
   6   -173.1911457 -0.991580E-05  0.248E-03    0.16       4.3  T
   7   -173.1911460 -0.238947E-06  0.175E-03    0.16       6.1  T
   8   -173.1911463 -0.308029E-06  0.118E-03    0.16       9.0  T
     SCC iter.                  ...        0 min,  0.156 sec
     gradient                   ...        0 min,  0.015 sec
 * total energy  :  -170.6565926 Eh     change       -0.1047069E-03 Eh
   gradient norm :     0.0066734 Eh/α   predicted    -0.1346529E-03 (  28.60%)
   displ. norm   :     0.3295507 α      lambda       -0.4696397E-03
   maximum displ.:     0.1283351 α      in ANC's #19, #27, #13, ...

........................................................................
.............................. CYCLE   24 ..............................
........................................................................
   1   -173.1949810 -0.173195E+03  0.137E-01    0.15       0.0  T
   2   -173.1947967  0.184286E-03  0.789E-02    0.18       1.0  T
   3   -173.0172312  0.177565E+00  0.818E-01    0.02       1.0  T
   4   -173.1948463 -0.177615E+00  0.379E-02    0.18       1.0  T
   5   -173.1947918  0.545078E-04  0.305E-02    0.19       1.0  T
   6   -173.1949321 -0.140350E-03  0.199E-02    0.18       1.0  T
   7   -173.1949730 -0.409149E-04  0.149E-02    0.17       1.0  T
   8   -173.1949904 -0.173980E-04  0.112E-02    0.17       1.0  T
   9   -173.1950065 -0.160936E-04  0.802E-03    0.17       1.3  T
  10   -173.1950151 -0.852730E-05  0.515E-03    0.16       2.1  T
  11   -173.1950206 -0.553171E-05  0.210E-03    0.16       5.0  T
  12   -173.1950215 -0.868206E-06  0.771E-04    0.16      13.7  T
  13   -173.1950216 -0.135113E-06  0.148E-04    0.16      71.4  T
     SCC iter.                  ...        0 min,  0.264 sec
     gradient                   ...        0 min,  0.015 sec
 * total energy  :  -170.6567367 Eh     change       -0.1440568E-03 Eh
   gradient norm :     0.0122902 Eh/α   predicted    -0.2603221E-03 (  80.71%)
   displ. norm   :     0.2661852 α      lambda       -0.5261331E-03
   maximum displ.:     0.1008015 α      in ANC's #27, #13, #18, ...

........................................................................
.............................. CYCLE   25 ..............................
........................................................................
   1   -173.1924585 -0.173192E+03  0.113E-01    0.15       0.0  T
   2   -173.1919644  0.494145E-03  0.779E-02    0.21       1.0  T
   3   -173.0688027  0.123162E+00  0.683E-01    0.00       1.0  T
   4   -173.1919349 -0.123132E+00  0.583E-02    0.22       1.0  T
   5   -173.1918988  0.361300E-04  0.515E-02    0.22       1.0  T
   6   -173.1920950 -0.196155E-03  0.430E-02    0.21       1.0  T
   7   -173.1922257 -0.130773E-03  0.363E-02    0.20       1.0  T
   8   -173.1923287 -0.102969E-03  0.289E-02    0.19       1.0  T
   9   -173.1924381 -0.109445E-03  0.197E-02    0.18       1.0  T
  10   -173.1925039 -0.657343E-04  0.105E-02    0.17       1.0  T
  11   -173.1925284 -0.245215E-04  0.292E-03    0.16       3.6  T
  12   -173.1925301 -0.174116E-05  0.976E-04    0.16      10.9  T
  13   -173.1925303 -0.175297E-06  0.385E-04    0.16      27.5  T
     SCC iter.                  ...        0 min,  0.246 sec
     gradient                   ...        0 min,  0.015 sec
 * total energy  :  -170.6569247 Eh     change       -0.1880193E-03 Eh
   gradient norm :     0.0111750 Eh/α   predicted    -0.2817062E-03 (  49.83%)
   displ. norm   :     0.2235820 α      lambda       -0.5422036E-03
   maximum displ.:     0.0893164 α      in ANC's #13, #18, #27, ...

........................................................................
.............................. CYCLE   26 ..............................
........................................................................
   1   -173.1877767 -0.173188E+03  0.865E-02    0.15       0.0  T
   2   -173.1873609  0.415776E-03  0.637E-02    0.20       1.0  T
   3   -173.1507815  0.365795E-01  0.374E-01    0.05       1.0  T
   4   -173.1873445 -0.365631E-01  0.492E-02    0.21       1.0  T
   5   -173.1874014 -0.569247E-04  0.420E-02    0.21       1.0  T
   6   -173.1875638 -0.162369E-03  0.340E-02    0.19       1.0  T
   7   -173.1876709 -0.107108E-03  0.257E-02    0.18       1.0  T
   8   -173.1877728 -0.101906E-03  0.156E-02    0.17       1.0  T
   9   -173.1878170 -0.441298E-04  0.756E-03    0.17       1.4  T
  10   -173.1878294 -0.124432E-04  0.247E-03    0.16       4.3  T
  11   -173.1878306 -0.123439E-05  0.662E-04    0.16      16.0  T
  12   -173.1878306  0.893507E-08  0.561E-04    0.16      18.9  T
     SCC iter.                  ...        0 min,  0.237 sec
     gradient                   ...        0 min,  0.019 sec
 * total energy  :  -170.6573010 Eh     change       -0.3762864E-03 Eh
   gradient norm :     0.0072066 Eh/α   predicted    -0.2846551E-03 ( -24.35%)
   displ. norm   :     0.4301800 α      lambda       -0.5237967E-03
   maximum displ.:     0.1731878 α      in ANC's #13, #18, #27, ...

........................................................................
.............................. CYCLE   27 ..............................
........................................................................
   1   -173.1820005 -0.173182E+03  0.148E-01    0.15       0.0  T
   2   -173.1811725  0.827984E-03  0.102E-01    0.24       1.0  T
   3   -173.0201746  0.160998E+00  0.778E-01    0.01       1.0  T
   4   -173.1811770 -0.161002E+00  0.799E-02    0.27       1.0  T
   5   -173.1811233  0.537261E-04  0.684E-02    0.27       1.0  T
   6   -173.1812633 -0.140007E-03  0.658E-02    0.25       1.0  T
   7   -173.1814490 -0.185785E-03  0.569E-02    0.24       1.0  T
   8   -173.1816343 -0.185234E-03  0.486E-02    0.22       1.0  T
   9   -173.1818557 -0.221375E-03  0.372E-02    0.20       1.0  T
  10   -173.1820492 -0.193530E-03  0.235E-02    0.18       1.0  T
  11   -173.1821757 -0.126524E-03  0.499E-03    0.17       2.1  T
  12   -173.1821812 -0.549315E-05  0.803E-04    0.16      13.2  T
  13   -173.1821809  0.318311E-06  0.124E-03    0.16       8.6  T
  14   -173.1821805  0.345582E-06  0.175E-03    0.16       6.1  T
     SCC iter.                  ...        0 min,  0.467 sec
     gradient                   ...        0 min,  0.015 sec
 * total energy  :  -170.6576799 Eh     change       -0.3789461E-03 Eh
   gradient norm :     0.0095073 Eh/α   predicted    -0.3103636E-03 ( -18.10%)
   displ. norm   :     0.4706308 α      lambda       -0.4580964E-03
   maximum displ.:     0.2022009 α      in ANC's #13, #19, #18, ...

........................................................................
.............................. CYCLE   28 ..............................
........................................................................
   1   -173.1799781 -0.173180E+03  0.150E-01    0.15       0.0  T
   2   -173.1793510  0.627100E-03  0.978E-02    0.23       1.0  T
   3   -172.9878417  0.191509E+00  0.844E-01    0.02       1.0  T
   4   -173.1793165 -0.191475E+00  0.724E-02    0.25       1.0  T
   5   -173.1792817  0.348193E-04  0.599E-02    0.25       1.0  T
   6   -173.1794314 -0.149637E-03  0.561E-02    0.23       1.0  T
   7   -173.1795733 -0.141946E-03  0.480E-02    0.22       1.0  T
   8   -173.1797281 -0.154802E-03  0.403E-02    0.21       1.0  T
   9   -173.1798844 -0.156269E-03  0.309E-02    0.19       1.0  T
  10   -173.1800117 -0.127372E-03  0.204E-02    0.18       1.0  T
  11   -173.1801022 -0.904861E-04  0.628E-03    0.17       1.7  T
  12   -173.1801116 -0.933456E-05  0.781E-04    0.16      13.6  T
  13   -173.1801116 -0.223953E-07  0.523E-04    0.16      20.3  T
  14   -173.1801115  0.130635E-06  0.836E-04    0.16      12.7  T
     SCC iter.                  ...        0 min,  0.272 sec
     gradient                   ...        0 min,  0.015 sec
 * total energy  :  -170.6580466 Eh     change       -0.3666936E-03 Eh
   gradient norm :     0.0106082 Eh/α   predicted    -0.2797828E-03 ( -23.70%)
   displ. norm   :     0.5103973 α      lambda       -0.5686268E-03
   maximum displ.:     0.2401593 α      in ANC's #13, #19, #18, ...

........................................................................
.............................. CYCLE   29 ..............................
........................................................................
   1   -173.1833242 -0.173183E+03  0.159E-01    0.16       0.0  T
   2   -173.1829938  0.330345E-03  0.946E-02    0.21       1.0  T
   3   -172.9798726  0.203121E+00  0.861E-01    0.03       1.0  T
   4   -173.1828938 -0.203021E+00  0.604E-02    0.22       1.0  T
   5   -173.1828946 -0.774147E-06  0.462E-02    0.22       1.0  T
   6   -173.1830151 -0.120478E-03  0.427E-02    0.21       1.0  T
   7   -173.1831350 -0.119901E-03  0.336E-02    0.20       1.0  T
   8   -173.1832324 -0.973956E-04  0.267E-02    0.19       1.0  T
   9   -173.1833074 -0.749861E-04  0.201E-02    0.18       1.0  T
  10   -173.1833663 -0.588987E-04  0.127E-02    0.18       1.0  T
  11   -173.1834016 -0.353261E-04  0.407E-03    0.17       2.6  T
  12   -173.1834055 -0.390861E-05  0.834E-04    0.17      12.7  T
  13   -173.1834056 -0.841715E-07  0.418E-04    0.16      25.4  T
  14   -173.1834056 -0.169175E-07  0.202E-04    0.16      52.4  T
     SCC iter.                  ...        0 min,  0.295 sec
     gradient                   ...        0 min,  0.016 sec
 * total energy  :  -170.6584945 Eh     change       -0.4478763E-03 Eh
   gradient norm :     0.0083443 Eh/α   predicted    -0.3583792E-03 ( -19.98%)
   displ. norm   :     0.6819961 α      lambda       -0.5988613E-03
   maximum displ.:     0.3213986 α      in ANC's #13, #19, #27, ...

........................................................................
.............................. CYCLE   30 ..............................
........................................................................
   1   -173.1823549 -0.173182E+03  0.196E-01    0.15       0.0  T
   2   -173.1816641  0.690755E-03  0.124E-01    0.25       1.0  T
   3   -172.9001603  0.281504E+00  0.100E+00    0.05       1.0  T
   4   -173.1816194 -0.281459E+00  0.850E-02    0.28       1.0  T
   5   -173.1815817  0.376837E-04  0.671E-02    0.29       1.0  T
   6   -173.1817473 -0.165671E-03  0.615E-02    0.27       1.0  T
   7   -173.1818568 -0.109497E-03  0.571E-02    0.25       1.0  T
   8   -173.1819553 -0.984609E-04  0.514E-02    0.24       1.0  T
   9   -173.1821184 -0.163122E-03  0.441E-02    0.22       1.0  T
  10   -173.1823230 -0.204535E-03  0.324E-02    0.20       1.0  T
  11   -173.1825245 -0.201536E-03  0.147E-02    0.18       1.0  T
  12   -173.1825742 -0.496940E-04  0.349E-03    0.17       3.0  T
  13   -173.1825752 -0.100924E-05  0.258E-03    0.17       4.1  T
  14   -173.1825745  0.683588E-06  0.312E-03    0.17       3.4  T
  15   -173.1825763 -0.178774E-05  0.154E-03    0.17       6.9  T
     SCC iter.                  ...        0 min,  0.291 sec
     gradient                   ...        0 min,  0.015 sec
 * total energy  :  -170.6588622 Eh     change       -0.3677457E-03 Eh
   gradient norm :     0.0113334 Eh/α   predicted    -0.4387025E-03 (  19.30%)
   displ. norm   :     0.4317335 α      lambda       -0.8124621E-03
   maximum displ.:     0.2388465 α      in ANC's #13, #8, #15, ...

........................................................................
.............................. CYCLE   31 ..............................
........................................................................
   1   -173.1965073 -0.173197E+03  0.136E-01    0.17       0.0  T
   2   -173.1964972  0.100023E-04  0.759E-02    0.16       1.0  T
   3   -173.1957706  0.726622E-03  0.576E-02    0.24       1.0  T
   4   -173.1964797 -0.709083E-03  0.190E-02    0.16       1.0  T
   5   -173.1964987 -0.190256E-04  0.133E-02    0.18       1.0  T
   6   -173.1965078 -0.908484E-05  0.122E-02    0.16       1.0  T
   7   -173.1965266 -0.187446E-04  0.605E-03    0.16       1.8  T
   8   -173.1965351 -0.851961E-05  0.174E-03    0.17       6.1  T
   9   -173.1965353 -0.174149E-06  0.109E-03    0.17       9.7  T
  10   -173.1965353 -0.387355E-07  0.742E-04    0.17      14.3  T
     SCC iter.                  ...        0 min,  0.178 sec
     gradient                   ...        0 min,  0.014 sec
 * total energy  :  -170.6591464 Eh     change       -0.2841885E-03 Eh
   gradient norm :     0.0122811 Eh/α   predicted    -0.4819492E-03 (  69.59%)
   displ. norm   :     0.4220776 α      lambda       -0.4477295E-03
   maximum displ.:     0.2199904 α      in ANC's #13, #19, #27, ...

........................................................................
.............................. CYCLE   32 ..............................
........................................................................
   1   -173.1888880 -0.173189E+03  0.130E-01    0.15       0.0  T
   2   -173.1883138  0.574129E-03  0.894E-02    0.24       1.0  T
   3   -173.1133652  0.749487E-01  0.513E-01    0.02       1.0  T
   4   -173.1882520 -0.748868E-01  0.684E-02    0.27       1.0  T
   5   -173.1882505  0.144386E-05  0.572E-02    0.26       1.0  T
   6   -173.1883751 -0.124568E-03  0.541E-02    0.25       1.0  T
   7   -173.1885376 -0.162502E-03  0.453E-02    0.23       1.0  T
   8   -173.1886932 -0.155533E-03  0.370E-02    0.21       1.0  T
   9   -173.1888758 -0.182651E-03  0.250E-02    0.19       1.0  T
  10   -173.1890009 -0.125104E-03  0.111E-02    0.18       1.0  T
  11   -173.1890305 -0.296220E-04  0.200E-03    0.17       5.3  T
  12   -173.1890313 -0.780088E-06  0.869E-04    0.17      12.2  T
  13   -173.1890311  0.212920E-06  0.116E-03    0.17       9.1  T
     SCC iter.                  ...        0 min,  0.185 sec
     gradient                   ...        0 min,  0.014 sec
 * total energy  :  -170.6594590 Eh     change       -0.3126142E-03 Eh
   gradient norm :     0.0073899 Eh/α   predicted    -0.2637472E-03 ( -15.63%)
   displ. norm   :     0.4220361 α      lambda        0.2261579E-04
   maximum displ.:     0.2199907 α      in ANC's #13, #19, #27, ...

........................................................................
.............................. CYCLE   33 ..............................
........................................................................
   1   -173.1791352 -0.173179E+03  0.130E-01    0.15       0.0  T
   2   -173.1785418  0.593457E-03  0.899E-02    0.24       1.0  T
   3   -173.1060601  0.724816E-01  0.501E-01    0.02       1.0  T
   4   -173.1784866 -0.724265E-01  0.691E-02    0.27       1.0  T
   5   -173.1784844  0.221071E-05  0.576E-02    0.27       1.0  T
   6   -173.1786108 -0.126405E-03  0.546E-02    0.25       1.0  T
   7   -173.1787773 -0.166484E-03  0.458E-02    0.23       1.0  T
   8   -173.1789333 -0.156004E-03  0.375E-02    0.21       1.0  T
   9   -173.1791255 -0.192186E-03  0.252E-02    0.19       1.0  T
  10   -173.1792564 -0.130930E-03  0.108E-02    0.18       1.0  T
  11   -173.1792839 -0.274474E-04  0.287E-03    0.16       3.7  T
  12   -173.1792858 -0.191607E-05  0.974E-04    0.17      10.9  T
  13   -173.1792855  0.348699E-06  0.140E-03    0.17       7.6  T
     SCC iter.                  ...        0 min,  0.184 sec
     gradient                   ...        0 min,  0.014 sec
 * total energy  :  -170.6593885 Eh     change        0.7055807E-04 Eh
   gradient norm :     0.0169006 Eh/α   predicted     0.1332110E-04 ( -81.12%)
   displ. norm   :     0.1540274 α      lambda       -0.4687682E-03
   maximum displ.:     0.0714665 α      in ANC's #18, #27, #17, ...

........................................................................
.............................. CYCLE   34 ..............................
........................................................................
   1   -173.1892956 -0.173189E+03  0.594E-02    0.18       0.0  T
   2   -173.1883286  0.967072E-03  0.695E-02    0.13       1.0  T
   3   -173.1888120 -0.483422E-03  0.515E-02    0.22       1.0  T
   4   -173.1891472 -0.335195E-03  0.288E-02    0.20       1.0  T
   5   -173.1892658 -0.118589E-03  0.192E-02    0.18       1.0  T
   6   -173.1893249 -0.591478E-04  0.937E-03    0.18       1.1  T
   7   -173.1893455 -0.205502E-04  0.286E-03    0.16       3.7  T
   8   -173.1893464 -0.870968E-06  0.203E-03    0.17       5.2  T
   9   -173.1893471 -0.760504E-06  0.781E-04    0.17      13.6  T
     SCC iter.                  ...        0 min,  0.128 sec
     gradient                   ...        0 min,  0.014 sec
 * total energy  :  -170.6596949 Eh     change       -0.3064539E-03 Eh
   gradient norm :     0.0057852 Eh/α   predicted    -0.2399487E-03 ( -21.70%)
   displ. norm   :     0.2844175 α      lambda       -0.3326545E-03
   maximum displ.:     0.1507393 α      in ANC's #13, #9, #14, ...

........................................................................
.............................. CYCLE   35 ..............................
........................................................................
   1   -173.1918929 -0.173192E+03  0.905E-02    0.17       0.0  T
   2   -173.1918942 -0.126332E-05  0.502E-02    0.17       1.0  T
   3   -173.1911071  0.787124E-03  0.567E-02    0.13       1.0  T
   4   -173.1917504 -0.643367E-03  0.249E-02    0.19       1.0  T
   5   -173.1918989 -0.148495E-03  0.707E-03    0.17       1.5  T
   6   -173.1919018 -0.290680E-05  0.519E-03    0.17       2.0  T
   7   -173.1919041 -0.222074E-05  0.265E-03    0.17       4.0  T
   8   -173.1919045 -0.491150E-06  0.124E-03    0.17       8.6  T
     SCC iter.                  ...        0 min,  0.113 sec
     gradient                   ...        0 min,  0.014 sec
 * total energy  :  -170.6599145 Eh     change       -0.2195441E-03 Eh
   gradient norm :     0.0066055 Eh/α   predicted    -0.1797825E-03 ( -18.11%)
   displ. norm   :     0.4820097 α      lambda       -0.3495803E-03
   maximum displ.:     0.2689201 α      in ANC's #13, #9, #6, ...

........................................................................
.............................. CYCLE   36 ..............................
........................................................................
   1   -173.1943657 -0.173194E+03  0.144E-01    0.17       0.0  T
   2   -173.1943783 -0.125742E-04  0.804E-02    0.17       1.0  T
   3   -173.1941969  0.181389E-03  0.346E-02    0.15       1.0  T
   4   -173.1942379 -0.410481E-04  0.250E-02    0.19       1.0  T
   5   -173.1943494 -0.111476E-03  0.140E-02    0.16       1.0  T
   6   -173.1943726 -0.231869E-04  0.106E-02    0.17       1.0  T
   7   -173.1943882 -0.156031E-04  0.229E-03    0.17       4.6  T
   8   -173.1943887 -0.558549E-06  0.922E-04    0.17      11.5  T
   9   -173.1943888 -0.185887E-07  0.565E-04    0.17      18.8  T
     SCC iter.                  ...        0 min,  0.134 sec
     gradient                   ...        0 min,  0.018 sec
 * total energy  :  -170.6601900 Eh     change       -0.2755692E-03 Eh
   gradient norm :     0.0080271 Eh/α   predicted    -0.2154069E-03 ( -21.83%)
   displ. norm   :     0.6318376 α      lambda       -0.4044176E-03
   maximum displ.:     0.3626176 α      in ANC's #13, #6, #9, ...

........................................................................
.............................. CYCLE   37 ..............................
........................................................................
   1   -173.1911452 -0.173191E+03  0.186E-01    0.16       0.0  T
   2   -173.1908741  0.271141E-03  0.108E-01    0.21       1.0  T
   3   -172.9762157  0.214658E+00  0.852E-01    0.04       1.0  T
   4   -173.1905587 -0.214343E+00  0.611E-02    0.24       1.0  T
   5   -173.1906104 -0.516869E-04  0.507E-02    0.24       1.0  T
   6   -173.1907179 -0.107538E-03  0.475E-02    0.23       1.0  T
   7   -173.1908503 -0.132349E-03  0.384E-02    0.22       1.0  T
   8   -173.1909685 -0.118179E-03  0.316E-02    0.21       1.0  T
   9   -173.1910549 -0.863889E-04  0.255E-02    0.20       1.0  T
  10   -173.1911654 -0.110572E-03  0.151E-02    0.18       1.0  T
  11   -173.1912210 -0.555727E-04  0.400E-03    0.17       2.7  T
  12   -173.1912247 -0.365761E-05  0.160E-03    0.17       6.6  T
  13   -173.1912249 -0.262793E-06  0.995E-04    0.17      10.7  T
  14   -173.1912250 -0.846959E-07  0.859E-04    0.17      12.3  T
     SCC iter.                  ...        0 min,  0.195 sec
     gradient                   ...        0 min,  0.014 sec
 * total energy  :  -170.6605075 Eh     change       -0.3174501E-03 Eh
   gradient norm :     0.0080100 Eh/α   predicted    -0.2829346E-03 ( -10.87%)
   displ. norm   :     0.5391103 α      lambda       -0.3304958E-03
   maximum displ.:     0.3027446 α      in ANC's #13, #6, #9, ...

........................................................................
.............................. CYCLE   38 ..............................
........................................................................
   1   -173.1869402 -0.173187E+03  0.156E-01    0.16       0.0  T
   2   -173.1868397  0.100479E-03  0.891E-02    0.19       1.0  T
   3   -173.1156939  0.711458E-01  0.488E-01    0.02       1.0  T
   4   -173.1866523 -0.709585E-01  0.435E-02    0.21       1.0  T
   5   -173.1867287 -0.764229E-04  0.326E-02    0.20       1.0  T
   6   -173.1868001 -0.713202E-04  0.292E-02    0.19       1.0  T
   7   -173.1868813 -0.811983E-04  0.193E-02    0.19       1.0  T
   8   -173.1869332 -0.519796E-04  0.137E-02    0.18       1.0  T
   9   -173.1869612 -0.279155E-04  0.883E-03    0.18       1.2  T
  10   -173.1869792 -0.180392E-04  0.347E-03    0.17       3.1  T
  11   -173.1869822 -0.296138E-05  0.581E-04    0.17      18.2  T
  12   -173.1869821  0.398712E-07  0.562E-04    0.17      18.9  T
     SCC iter.                  ...        0 min,  0.167 sec
     gradient                   ...        0 min,  0.014 sec
 * total energy  :  -170.6607233 Eh     change       -0.2158254E-03 Eh
   gradient norm :     0.0094513 Eh/α   predicted    -0.2132770E-03 (  -1.18%)
   displ. norm   :     0.4402964 α      lambda       -0.2786812E-03
   maximum displ.:     0.2322348 α      in ANC's #13, #6, #9, ...

........................................................................
.............................. CYCLE   39 ..............................
........................................................................
   1   -173.1890879 -0.173189E+03  0.121E-01    0.16       0.0  T
   2   -173.1890343  0.535478E-04  0.680E-02    0.18       1.0  T
   3   -173.1643700  0.246643E-01  0.288E-01    0.06       1.0  T
   4   -173.1889231 -0.245531E-01  0.299E-02    0.20       1.0  T
   5   -173.1889953 -0.722328E-04  0.224E-02    0.19       1.0  T
   6   -173.1890511 -0.557535E-04  0.174E-02    0.18       1.0  T
   7   -173.1890853 -0.341834E-04  0.102E-02    0.18       1.0  T
   8   -173.1891069 -0.216057E-04  0.508E-03    0.17       2.1  T
   9   -173.1891110 -0.410592E-05  0.292E-03    0.17       3.6  T
  10   -173.1891132 -0.218972E-05  0.672E-04    0.17      15.8  T
  11   -173.1891132  0.981970E-09  0.532E-04    0.17      19.9  T
     SCC iter.                  ...        0 min,  0.154 sec
     gradient                   ...        0 min,  0.014 sec
 * total energy  :  -170.6609121 Eh     change       -0.1888359E-03 Eh
   gradient norm :     0.0062908 Eh/α   predicted    -0.1663538E-03 ( -11.91%)
   displ. norm   :     0.3759689 α      lambda       -0.2049270E-03
   maximum displ.:     0.1783246 α      in ANC's #13, #6, #9, ...

........................................................................
.............................. CYCLE   40 ..............................
........................................................................
   1   -173.1921473 -0.173192E+03  0.964E-02    0.17       0.0  T
   2   -173.1921407  0.664298E-05  0.541E-02    0.17       1.0  T
   3   -173.1897675  0.237314E-02  0.915E-02    0.11       1.0  T
   4   -173.1920800 -0.231253E-02  0.192E-02    0.18       1.0  T
   5   -173.1921471 -0.670770E-04  0.852E-03    0.17       1.2  T
   6   -173.1921563 -0.921595E-05  0.322E-03    0.17       3.3  T
   7   -173.1921580 -0.168090E-05  0.107E-03    0.17       9.9  T
   8   -173.1921580  0.146521E-07  0.917E-04    0.17      11.6  T
     SCC iter.                  ...        0 min,  0.113 sec
     gradient                   ...        0 min,  0.014 sec
 * total energy  :  -170.6610598 Eh     change       -0.1476308E-03 Eh
   gradient norm :     0.0063476 Eh/α   predicted    -0.1169479E-03 ( -20.78%)
   displ. norm   :     0.4025012 α      lambda       -0.2058965E-03
   maximum displ.:     0.1925456 α      in ANC's #13, #6, #1, ...

........................................................................
.............................. CYCLE   41 ..............................
........................................................................
   1   -173.1934363 -0.173193E+03  0.962E-02    0.17       0.0  T
   2   -173.1934270  0.928743E-05  0.546E-02    0.17       1.0  T
   3   -173.1905164  0.291063E-02  0.102E-01    0.11       1.0  T
   4   -173.1933504 -0.283405E-02  0.209E-02    0.19       1.0  T
   5   -173.1934326 -0.821816E-04  0.103E-02    0.17       1.0  T
   6   -173.1934324  0.182527E-06  0.859E-03    0.17       1.2  T
   7   -173.1934467 -0.143185E-04  0.213E-03    0.17       5.0  T
   8   -173.1934472 -0.418117E-06  0.967E-04    0.17      11.0  T
   9   -173.1934472 -0.521627E-07  0.668E-04    0.17      15.9  T
     SCC iter.                  ...        0 min,  0.128 sec
     gradient                   ...        0 min,  0.019 sec
 * total energy  :  -170.6612055 Eh     change       -0.1457661E-03 Eh
   gradient norm :     0.0054261 Eh/α   predicted    -0.1196314E-03 ( -17.93%)
   displ. norm   :     0.4528673 α      lambda       -0.1970548E-03
   maximum displ.:     0.2221698 α      in ANC's #6, #13, #1, ...

........................................................................
.............................. CYCLE   42 ..............................
........................................................................
   1   -173.1943540 -0.173194E+03  0.112E-01    0.16       0.0  T
   2   -173.1942810  0.730738E-04  0.652E-02    0.18       1.0  T
   3   -173.1618313  0.324496E-01  0.328E-01    0.05       1.0  T
   4   -173.1942083 -0.323770E-01  0.304E-02    0.19       1.0  T
   5   -173.1942567 -0.483310E-04  0.215E-02    0.19       1.0  T
   6   -173.1943337 -0.770719E-04  0.127E-02    0.18       1.0  T
   7   -173.1943593 -0.255327E-04  0.825E-03    0.17       1.3  T
   8   -173.1943670 -0.772820E-05  0.562E-03    0.17       1.9  T
   9   -173.1943739 -0.692777E-05  0.262E-03    0.17       4.0  T
  10   -173.1943756 -0.165677E-05  0.509E-04    0.17      20.8  T
  11   -173.1943756 -0.348917E-07  0.250E-04    0.17      42.4  T
     SCC iter.                  ...        0 min,  0.208 sec
     gradient                   ...        0 min,  0.015 sec
 * total energy  :  -170.6613586 Eh     change       -0.1530784E-03 Eh
   gradient norm :     0.0063640 Eh/α   predicted    -0.1187348E-03 ( -22.44%)
   displ. norm   :     0.4786854 α      lambda       -0.2254568E-03
   maximum displ.:     0.2438148 α      in ANC's #6, #13, #1, ...
 * RMSD in coord.:     0.7452228 α      energy gain  -0.5416574E-02 Eh

generating ANC from model Hessian ...
Using Lindh-Hessian (1995)
 Shifting diagonal of input Hessian by   4.986284551780576E-003
 Lowest  eigenvalues of input Hessian
   -0.000000   -0.000000   -0.000000    0.000000    0.000000    0.000000
    0.005000    0.005013    0.005046    0.005055    0.005117    0.005143
    0.005207    0.005420    0.005568    0.005723    0.005797    0.005891
 Highest eigenvalues
    2.396163    2.411871    2.483582    2.505088    2.597592    2.648334
 

........................................................................
.............................. CYCLE   43 ..............................
........................................................................
   1   -173.1938171 -0.173194E+03  0.122E-01    0.16       0.0  T
   2   -173.1937104  0.106695E-03  0.703E-02    0.19       1.0  T
   3   -173.1416176  0.520928E-01  0.414E-01    0.03       1.0  T
   4   -173.1936252 -0.520076E-01  0.350E-02    0.20       1.0  T
   5   -173.1936605 -0.353029E-04  0.262E-02    0.20       1.0  T
   6   -173.1937623 -0.101745E-03  0.192E-02    0.18       1.0  T
   7   -173.1937958 -0.334919E-04  0.134E-02    0.18       1.0  T
   8   -173.1938231 -0.273617E-04  0.887E-03    0.18       1.2  T
   9   -173.1938375 -0.143386E-04  0.510E-03    0.17       2.1  T
  10   -173.1938440 -0.649473E-05  0.123E-03    0.17       8.6  T
  11   -173.1938443 -0.370839E-06  0.258E-04    0.17      41.1  T
  12   -173.1938443  0.109642E-08  0.211E-04    0.17      50.2  T
     SCC iter.                  ...        0 min,  0.208 sec
     gradient                   ...        0 min,  0.024 sec
 * total energy  :  -170.6615334 Eh     change       -0.1748116E-03 Eh
   gradient norm :     0.0065657 Eh/α   predicted     0.0000000E+00 (-100.00%)
   displ. norm   :     0.1064687 α      lambda       -0.1185427E-03
   maximum displ.:     0.0555003 α      in ANC's #6, #4, #5, ...

........................................................................
.............................. CYCLE   44 ..............................
........................................................................
   1   -173.1935440 -0.173194E+03  0.391E-02    0.17       0.0  T
   2   -173.1935454 -0.138782E-05  0.201E-02    0.17       1.0  T
   3   -173.1935409  0.451505E-05  0.718E-03    0.17       1.5  T
   4   -173.1935414 -0.457011E-06  0.549E-03    0.16       1.9  T
   5   -173.1935430 -0.160773E-05  0.404E-03    0.17       2.6  T
   6   -173.1935443 -0.134058E-05  0.287E-03    0.16       3.7  T
   7   -173.1935460 -0.166926E-05  0.116E-03    0.17       9.2  T
     SCC iter.                  ...        0 min,  0.105 sec
     gradient                   ...        0 min,  0.014 sec
 * total energy  :  -170.6616266 Eh     change       -0.9318280E-04 Eh
   gradient norm :     0.0030164 Eh/α   predicted    -0.5996253E-04 ( -35.65%)
   displ. norm   :     0.1060007 α      lambda       -0.8661657E-04
   maximum displ.:     0.0514078 α      in ANC's #6, #4, #5, ...

........................................................................
.............................. CYCLE   45 ..............................
........................................................................
   1   -173.1929777 -0.173193E+03  0.403E-02    0.17       0.0  T
   2   -173.1929794 -0.176038E-05  0.212E-02    0.17       1.0  T
   3   -173.1929650  0.144359E-04  0.977E-03    0.17       1.1  T
   4   -173.1929640  0.955039E-06  0.865E-03    0.16       1.2  T
   5   -173.1929773 -0.132054E-04  0.387E-03    0.17       2.7  T
   6   -173.1929787 -0.145403E-05  0.304E-03    0.16       3.5  T
   7   -173.1929803 -0.164133E-05  0.893E-04    0.17      11.9  T
   8   -173.1929804 -0.628845E-07  0.550E-04    0.17      19.3  T
   9   -173.1929804 -0.147742E-08  0.415E-04    0.17      25.6  T
     SCC iter.                  ...        0 min,  0.131 sec
     gradient                   ...        0 min,  0.014 sec
 * total energy  :  -170.6616769 Eh     change       -0.5028796E-04 Eh
   gradient norm :     0.0029331 Eh/α   predicted    -0.4379550E-04 ( -12.91%)
   displ. norm   :     0.2338864 α      lambda       -0.1581186E-03
   maximum displ.:     0.1086247 α      in ANC's #6, #4, #5, ...

........................................................................
.............................. CYCLE   46 ..............................
........................................................................
   1   -173.1916152 -0.173192E+03  0.787E-02    0.17       0.0  T
   2   -173.1916207 -0.543409E-05  0.413E-02    0.16       1.0  T
   3   -173.1915500  0.706359E-04  0.210E-02    0.18       1.0  T
   4   -173.1915791 -0.290940E-04  0.148E-02    0.16       1.0  T
   5   -173.1916067 -0.276144E-04  0.899E-03    0.17       1.2  T
   6   -173.1916187 -0.119218E-04  0.557E-03    0.16       1.9  T
   7   -173.1916242 -0.552556E-05  0.157E-03    0.17       6.7  T
   8   -173.1916245 -0.289771E-06  0.838E-04    0.17      12.6  T
   9   -173.1916245 -0.797885E-08  0.629E-04    0.17      16.9  T
     SCC iter.                  ...        0 min,  0.134 sec
     gradient                   ...        0 min,  0.014 sec
 * total energy  :  -170.6617267 Eh     change       -0.4983423E-04 Eh
   gradient norm :     0.0067891 Eh/α   predicted    -0.8339720E-04 (  67.35%)
   displ. norm   :     0.1951723 α      lambda       -0.1763342E-03
   maximum displ.:     0.0944278 α      in ANC's #6, #4, #5, ...

........................................................................
.............................. CYCLE   47 ..............................
........................................................................
   1   -173.1911694 -0.173191E+03  0.773E-02    0.17       0.0  T
   2   -173.1911700 -0.537373E-06  0.415E-02    0.16       1.0  T
   3   -173.1908954  0.274570E-03  0.342E-02    0.20       1.0  T
   4   -173.1911757 -0.280260E-03  0.551E-03    0.16       1.9  T
   5   -173.1911772 -0.150371E-05  0.357E-03    0.17       3.0  T
   6   -173.1911780 -0.856663E-06  0.161E-03    0.16       6.6  T
   7   -173.1911784 -0.357579E-06  0.111E-03    0.17       9.5  T
     SCC iter.                  ...        0 min,  0.318 sec
     gradient                   ...        0 min,  0.020 sec
 * total energy  :  -170.6617681 Eh     change       -0.4134834E-04 Eh
   gradient norm :     0.0081584 Eh/α   predicted    -0.9152701E-04 ( 121.36%)
   displ. norm   :     0.0705284 α      lambda       -0.1530113E-03
   maximum displ.:     0.0310449 α      in ANC's #6, #4, #5, ...

........................................................................
.............................. CYCLE   48 ..............................
........................................................................
[...]
       152        2.0000           -0.3754726             -10.2171
       153        1.9193           -0.3523341              -9.5875 (HOMO)
       154        0.0807           -0.3463117              -9.4236 (LUMO)
       155                         -0.3292020              -8.9580
       156                         -0.3222638              -8.7692
       157                         -0.3182757              -8.6607
       158                         -0.2948561              -8.0234
       159                         -0.2904375              -7.9032
       160                         -0.2772986              -7.5457
       161                         -0.2762828              -7.5180
       162                         -0.2567247              -6.9858
       163                         -0.2539406              -6.9101
       164                         -0.2479103              -6.7460
       ...                                ...                  ...
       298                          1.1577777              31.5047
      -------------------------------------------------------------
                  HL-Gap            0.0060224 Eh            0.1639 eV
             Fermi-level           -0.3493229 Eh           -9.5056 eV

     #   Z        covCN         q      C6AA      α(0)
     1   6 C      3.018     0.027    27.390     8.585
     2   6 C      2.947     0.010    27.782     8.645
     3   6 C      1.942     0.124    28.047     8.552
     4   7 N      0.911    -0.228    25.982     7.372
     5   6 C      1.940     0.118    28.172     8.571
     6   7 N      0.911    -0.216    25.712     7.334
     7   6 C      3.032     0.006    27.851     8.656
     8   6 C      3.040    -0.023    28.544     8.763
     9   6 C      2.910    -0.019    28.485     8.752
    10   6 C      3.147     0.007    27.589     8.593
    11   6 C      3.008     0.030    27.310     8.572
    12   6 C      2.934    -0.035    28.874     8.812
    13  16 S      2.395     0.020   140.255    19.932
    14   6 C      2.934     0.090    26.000     8.362
    15   6 C      3.101    -0.057    29.279     8.867
    16  35 Br     1.140    -0.109   188.055    22.111
    17   6 C      2.861     0.230    23.175     7.891
    18   8 O      0.856    -0.366    21.012     6.146
    19   6 C      3.001    -0.020    28.497     8.757
    20   6 C      2.895    -0.024    28.602     8.769
    21   6 C      3.027     0.139    24.936     8.191
    22   8 O      1.733    -0.156    16.642     5.508
    23   6 C      3.129    -0.053    29.104     8.833
    24   6 C      2.805     0.292    22.061     7.695
    25   8 O      0.857    -0.360    20.903     6.130
    26   7 N      2.773    -0.184    24.984     7.424
    27   6 C      2.806     0.291    22.065     7.696
    28   8 O      0.857    -0.369    21.079     6.156
    29   6 C      3.122    -0.062    29.350     8.872
    30   6 C      3.042     0.148    24.756     8.161
    31   6 C      2.896    -0.050    29.229     8.864
    32   6 C      2.906    -0.015    28.384     8.736
    33   6 C      2.903    -0.050    29.240     8.866
    34   6 C      2.944     0.017    27.633     8.622
    35   6 C      3.757    -0.121    22.878     6.820
    36   6 C      3.746    -0.013    20.877     6.518
    37   7 N      2.687    -0.120    23.608     7.216
    38   6 C      2.837     0.025    27.430     8.583
    39   6 C      2.894    -0.096    30.417     9.042
    40   6 C      3.024     0.145    24.824     8.173
    41   8 O      1.729    -0.203    17.372     5.628
    42   6 C      3.123    -0.081    29.838     8.945
    43   6 C      2.812     0.284    22.197     7.719
    44   8 O      0.857    -0.417    22.028     6.293
    45   7 N      2.778    -0.189    25.094     7.440
    46   6 C      2.809     0.286    22.160     7.713
    47   8 O      0.857    -0.391    21.510     6.218
    48   6 C      3.126    -0.064    29.391     8.877
    49   6 C      3.014     0.134    25.056     8.211
    50   6 C      2.899    -0.049    29.220     8.863
    51   6 C      2.901    -0.021    28.527     8.757
    52   6 C      2.935    -0.044    29.090     8.846
    53   6 C      2.981     0.040    27.100     8.539
    54   6 C      3.066    -0.040    28.933     8.820
    55   6 C      3.059    -0.038    28.892     8.815
    56   6 C      3.020     0.026    27.409     8.588
    57  16 S      2.306    -0.057   143.400    20.155
    58   6 C      3.019     0.029    27.338     8.577
    59   6 C      3.051    -0.034    28.796     8.801
    60   6 C      3.048    -0.040    28.950     8.825
    61   6 C      2.969     0.052    26.831     8.497
    62  16 S      2.292    -0.071   144.024    20.199
    63   6 C      2.879    -0.100    30.506     9.055
    64   1 H      0.926     0.065     2.137     2.286
    65   1 H      0.926     0.067     2.115     2.274
    66   1 H      0.926     0.068     2.105     2.269
    67   1 H      0.925     0.087     1.904     2.158
    68   1 H      0.860     0.203     1.090     1.635
    69   1 H      0.926     0.070     2.085     2.258
    70   1 H      0.926     0.089     1.891     2.151
    71   1 H      0.925     0.050     2.317     2.380
    72   1 H      0.925     0.073     2.051     2.239
    73   1 H      0.925     0.059     2.207     2.323
    74   1 H      0.924     0.063     2.168     2.302
    75   1 H      0.923     0.060     2.194     2.316
    76   1 H      0.924     0.075     2.036     2.231
    77   1 H      0.860     0.178     1.228     1.736
    78   1 H      0.925     0.092     1.862     2.134
    79   1 H      0.926     0.053     2.287     2.365
    80   1 H      0.860     0.194     1.139     1.672
    81   1 H      0.926     0.067     2.118     2.276
    82   1 H      0.925     0.060     2.195     2.317
    83   1 H      0.925     0.052     2.293     2.368
    84   1 H      0.926     0.046     2.366     2.405
    85   1 H      0.926     0.043     2.412     2.429
    86   1 H      0.926     0.044     2.396     2.420
    87   1 H      0.926     0.048     2.346     2.395
    88   1 H      0.926     0.055     2.260     2.351
    89   1 H      0.926     0.055     2.257     2.349

 Mol. C6AA /au·bohr⁶  :     149919.607616
 Mol. C8AA /au·bohr⁸  :    4246205.741269
 Mol. α(0) /au        :        618.564857


Wiberg/Mayer (AO) data.
largest (>0.10) Wiberg bond orders for each atom
          total WBO             WBO to atom ...
     1  C   3.961        C    2 1.490    C   19 1.124    C    7 1.095
     2  C   3.924        C    1 1.490    C    3 1.096    C    5 1.093
     3  C   3.945        N    4 2.766    C    2 1.096
     4  N   2.968        C    3 2.766
     5  C   3.947        N    6 2.767    C    2 1.093
     6  N   2.971        C    5 2.767
     7  C   3.976        C   12 1.423    C    8 1.245    C    1 1.095
     8  C   3.976        C    9 1.470    C    7 1.245    C   17 1.023
     9  C   3.971        C    8 1.470    C   10 1.317    H   64 0.963
    10  C   3.973        C    9 1.317    C   11 1.264    C   15 1.205
    11  C   3.950        C   12 1.379    C   10 1.264    S   13 1.121
    12  C   3.968        C    7 1.423    C   11 1.379    H   65 0.958
    13  S   2.562        C   14 1.134    C   11 1.121
    14  C   3.900        C   15 1.608    S   13 1.134    Br  16 1.030
    15  C   3.974        C   14 1.608    C   10 1.205    H   66 0.959
    16  Br  1.170        C   14 1.030
    17  C   3.924        O   18 1.770    C    8 1.023    C   19 1.022
    18  O   2.049        C   17 1.770
    19  C   3.946        C   20 1.558    C    1 1.124    C   17 1.022
    20  C   3.935        C   19 1.558    C   21 1.221    H   67 0.944
    21  C   3.910        C   23 1.374    C   20 1.221    O   22 1.097
    22  O   2.456        C   30 1.123    C   21 1.097
    23  C   3.945        C   21 1.374    C   29 1.286    C   24 1.012
    24  C   3.941        O   25 1.753    N   26 1.113    C   23 1.012
    25  O   2.073        C   24 1.753    N   26 0.138
    26  N   3.492        C   24 1.113    C   27 1.107    H   68 0.927    O   25 0.138    O   28 0.134
    27  C   3.940        O   28 1.745    N   26 1.107    C   29 1.021
    28  O   2.062        C   27 1.745    N   26 0.134
    29  C   3.944        C   30 1.374    C   23 1.286    C   27 1.021
    30  C   3.903        C   29 1.374    C   31 1.182    O   22 1.123
    31  C   3.980        C   32 1.650    C   30 1.182    H   69 0.960    C   34 0.108
    32  C   3.952        C   31 1.650    C   33 1.191    H   70 0.949
    33  C   3.986        C   34 1.716    C   32 1.191    H   71 0.958
    34  C   3.927        C   33 1.716    C   35 1.042    C   36 1.010    C   31 0.108
    35  C   3.991        C   34 1.042    H   72 0.975    H   73 0.964    H   74 0.958
    36  C   3.971        C   34 1.010    N   37 0.993    H   75 0.958    H   76 0.943
    37  N   3.449        C   38 1.293    C   36 0.993    H   77 0.939    C   39 0.113
    38  C   3.936        C   39 1.555    N   37 1.293    H   78 0.944
    39  C   3.950        C   38 1.555    C   40 1.214    H   79 0.961    N   37 0.113
    40  C   3.899        C   42 1.371    C   39 1.214    O   41 1.102
    41  O   2.399        C   40 1.102    C   49 1.065
    42  C   3.947        C   40 1.371    C   48 1.239    C   43 1.056
    43  C   3.936        O   44 1.683    N   45 1.114    C   42 1.056
    44  O   2.018        C   43 1.683    N   45 0.128
    45  N   3.488        C   43 1.114    C   46 1.103    H   80 0.930    O   47 0.132    O   44 0.128
    46  C   3.930        O   47 1.719    N   45 1.103    C   48 1.038
    47  O   2.029        C   46 1.719    N   45 0.132
    48  C   3.906        C   49 1.387    C   42 1.239    C   46 1.038
    49  C   3.905        C   48 1.387    C   50 1.238    O   41 1.065
    50  C   3.879        C   51 1.535    C   49 1.238    H   81 0.959
    51  C   3.966        C   50 1.535    C   52 1.311    H   82 0.956
    52  C   3.902        C   53 1.457    C   51 1.311    H   83 0.955
    53  C   3.911        C   52 1.457    C   54 1.233    S   57 1.081
    54  C   3.939        C   55 1.590    C   53 1.233    H   84 0.963
    55  C   3.938        C   54 1.590    C   56 1.236    H   85 0.962
    56  C   3.955        C   58 1.414    C   55 1.236    S   57 1.089
    57  S   2.466        C   56 1.089    C   53 1.081
    58  C   3.897        C   56 1.414    C   59 1.208    S   62 1.097
    59  C   3.985        C   60 1.652    C   58 1.208    H   86 0.961
    60  C   3.906        C   59 1.652    C   61 1.155    H   87 0.963
    61  C   3.961        C   63 1.717    C   60 1.155    S   62 1.038
    62  S   2.410        C   58 1.097    C   61 1.038
    63  C   3.850        C   61 1.717    H   89 0.976    H   88 0.969
    64  H   0.995        C    9 0.963
    65  H   0.995        C   12 0.958
    66  H   0.995        C   15 0.959
    67  H   0.991        C   20 0.944
    68  H   0.959        N   26 0.927
    69  H   0.995        C   31 0.960
    70  H   0.992        C   32 0.949
    71  H   0.997        C   33 0.958
    72  H   0.994        C   35 0.975
    73  H   0.993        C   35 0.964
    74  H   0.992        C   35 0.958
    75  H   0.991        C   36 0.958
    76  H   0.989        C   36 0.943
    77  H   0.968        N   37 0.939
    78  H   0.991        C   38 0.944
    79  H   0.997        C   39 0.961
    80  H   0.962        N   45 0.930
    81  H   0.995        C   50 0.959
    82  H   0.996        C   51 0.956
    83  H   0.997        C   52 0.955
    84  H   0.997        C   54 0.963
    85  H   0.998        C   55 0.962
    86  H   0.998        C   59 0.961
    87  H   0.997        C   60 0.963
    88  H   0.996        C   63 0.969
    89  H   0.996        C   63 0.976

molecular dipole:
                 x           y           z       tot (Debye)
 q only:        3.700       3.190      -1.151
   full:        3.366       3.917      -1.459      13.641
molecular quadrupole (traceless):
                xx          xy          yy          xz          yz          zz
 q only:      -89.032      61.932     113.639     -49.785      -5.548     -24.607
  q+dip:     -101.644      64.869     128.466     -43.342     -22.237     -26.823
   full:     -106.562      64.673     127.858     -44.388     -13.672     -21.296

           -------------------------------------------------
          |                Geometry Summary                 |
           -------------------------------------------------

      molecular mass/u    :      948.8357000
   center of mass at/Å    :       -2.6487678       5.8988333      -3.9027884
  moments of inertia/u·Å² :        0.1935637E+05   0.5882435E+05   0.7192623E+05
rotational constants/cm⁻¹ :        0.8709087E-03   0.2865757E-03   0.2343739E-03

 * 84 selected distances

     #   Z        #   Z                                     value/Å
     1   6 C      2   6 C                                 1.3705205
     3   6 C      4   7 N                                 1.1478347
     5   6 C      6   7 N                                 1.1476081
     7   6 C      8   6 C                                 1.4155833
     8   6 C      9   6 C                                 1.3740537
     9   6 C     10   6 C                                 1.3984975
    10   6 C     11   6 C                                 1.4157302
     7   6 C     12   6 C                                 1.3829288
    11   6 C     12   6 C                                 1.3892782
    11   6 C     13  16 S                                 1.7371225
    13  16 S     14   6 C                                 1.7437124
    10   6 C     15   6 C                                 1.4214800
    14   6 C     15   6 C                                 1.3544150
    14   6 C     16  35 Br                                1.8752918 (max)
    17   6 C     18   8 O                                 1.2119520
    19   6 C     20   6 C                                 1.3659864
    20   6 C     21   6 C                                 1.4118522
    21   6 C     22   8 O                                 1.3555419
    21   6 C     23   6 C                                 1.3886321
    24   6 C     25   8 O                                 1.2008470
    24   6 C     26   7 N                                 1.3933233
    26   7 N     27   6 C                                 1.3948694
    27   6 C     28   8 O                                 1.2020934
    23   6 C     29   6 C                                 1.4109618
    22   8 O     30   6 C                                 1.3495912
    29   6 C     30   6 C                                 1.3873085
    30   6 C     31   6 C                                 1.4212496
    31   6 C     32   6 C                                 1.3531120
    32   6 C     33   6 C                                 1.4263791
    33   6 C     34   6 C                                 1.3467952
    36   6 C     37   7 N                                 1.4448860
    37   7 N     38   6 C                                 1.3417046
    38   6 C     39   6 C                                 1.3595217
    39   6 C     40   6 C                                 1.4143384
    40   6 C     41   8 O                                 1.3589209
    40   6 C     42   6 C                                 1.3868734
    43   6 C     44   8 O                                 1.2117769
    43   6 C     45   7 N                                 1.3916875
    45   7 N     46   6 C                                 1.3965919
    46   6 C     47   8 O                                 1.2061318
    42   6 C     48   6 C                                 1.4178879
    41   8 O     49   6 C                                 1.3720835
    48   6 C     49   6 C                                 1.3838191
    49   6 C     50   6 C                                 1.4074263
    50   6 C     51   6 C                                 1.3661647
    51   6 C     52   6 C                                 1.4008619
    52   6 C     53   6 C                                 1.3729253
    53   6 C     54   6 C                                 1.4176949
    54   6 C     55   6 C                                 1.3593280
    55   6 C     56   6 C                                 1.4167525
    53   6 C     57  16 S                                 1.7563515
    56   6 C     57  16 S                                 1.7531145
    56   6 C     58   6 C                                 1.3756871
    58   6 C     59   6 C                                 1.4229941
    59   6 C     60   6 C                                 1.3513711
    60   6 C     61   6 C                                 1.4347346
    58   6 C     62  16 S                                 1.7514449
    61   6 C     63   6 C                                 1.3400360
     9   6 C     64   1 H                                 1.0788089
    12   6 C     65   1 H                                 1.0769583
    15   6 C     66   1 H                                 1.0745719
    20   6 C     67   1 H                                 1.0826953
    26   7 N     68   1 H                                 1.0102229
    31   6 C     69   1 H                                 1.0797849
    32   6 C     70   1 H                                 1.0803627
    33   6 C     71   1 H                                 1.0835992
    35   6 C     72   1 H                                 1.0843222
    35   6 C     73   1 H                                 1.0898471
    35   6 C     74   1 H                                 1.0907218
    36   6 C     75   1 H                                 1.0983022
    36   6 C     76   1 H                                 1.0976403
    37   7 N     77   1 H                                 1.0070858 (min)
    38   6 C     78   1 H                                 1.0821439
    39   6 C     79   1 H                                 1.0779017
    45   7 N     80   1 H                                 1.0096207
    50   6 C     81   1 H                                 1.0806701
    51   6 C     82   1 H                                 1.0823798
    52   6 C     83   1 H                                 1.0823171
    54   6 C     84   1 H                                 1.0758514
    55   6 C     85   1 H                                 1.0751336
    59   6 C     86   1 H                                 1.0755301
    60   6 C     87   1 H                                 1.0755000
    63   6 C     88   1 H                                 1.0756592
    63   6 C     89   1 H                                 1.0744639

 * 7 distinct bonds (by element types)

   Z      Z             #   av. dist./Å        max./Å        min./Å
   1 H    6 C          23     1.0815289     1.0983022     1.0744639
   6 C    6 C          35     1.3903766     1.4347346     1.3400360
   1 H    7 N           3     1.0089765     1.0102229     1.0070858
   6 C    7 N           8     1.3323132     1.4448860     1.1476081
   6 C    8 O           9     1.2743265     1.3720835     1.2008470
   6 C   16 S           5     1.7483491     1.7563515     1.7371225
   6 C   35 Br          1     1.8752918     1.8752918     1.8752918


optimized geometry written to: xtbopt.xyz


           -------------------------------------------------
          | TOTAL ENERGY             -170.667209294312 Eh   |
          | GRADIENT NORM               0.000645943718 Eh/α |
          | HOMO-LUMO GAP               0.163877543624 eV   |
           -------------------------------------------------

------------------------------------------------------------------------
 * finished run on 2021/06/04 at 17:34:32.028     
------------------------------------------------------------------------
 total:
 * wall-time:     0 d,  0 h,  0 min, 54.990 sec
 *  cpu-time:     0 d,  0 h,  8 min, 59.006 sec
 * ratio c/w:     9.802 speedup
 SCF:
 * wall-time:     0 d,  0 h,  0 min,  0.453 sec
 *  cpu-time:     0 d,  0 h,  0 min,  4.518 sec
 * ratio c/w:     9.975 speedup
 ANC optimizer:
 * wall-time:     0 d,  0 h,  0 min, 54.423 sec
 *  cpu-time:     0 d,  0 h,  8 min, 53.650 sec
 * ratio c/w:     9.806 speedup

