      -----------------------------------------------------------      
     |                   =====================                   |     
     |                           x T B                           |     
     |                   =====================                   |     
     |                         S. Grimme                         |     
     |          Mulliken Center for Theoretical Chemistry        |     
     |                    University of Bonn                     |     
     |                Version 6.2 RC2 (SAW190805)                |     
      -----------------------------------------------------------      

   This program is distributed in the hope that it will be useful,
   but WITHOUT ANY WARRANTY; without even the implied warranty of
   MERCHANTABILITY or FITNESS FOR A PARTICULAR PURPOSE.
   
   FOR NON-COMMERCIAL, ACADEMIA USE ONLY.
   
   Cite this work as:
   * S. Grimme, C. Bannwarth, P. Shushkov, J. Chem. Theory Comput., 2017,
     13, 1989-2009. DOI: 10.1021/acs.jctc.7b00118
   * C. Bannwarth, S. Ehlert and S. Grimme., J. Chem. Theory Comput., 2019,
     15, 1652-1671. DOI: 10.1021/acs.jctc.8b01176
   * P. Pracht, E. Caldeweyher, S. Ehlert, S. Grimme, ChemRxiv, 2019, preprint.
     DOI: 10.26434/chemrxiv.8326202.v1
   
   for DFT-D4:
   * E. Caldeweyher, C. Bannwarth and S. Grimme, J. Chem. Phys., 2017,
     147, 034112. DOI: 10.1063/1.4993215
   * E. Caldeweyher, S. Ehlert, A. Hansen, H. Neugebauer, S. Spicher,
     C. Bannwarth and S. Grimme, J. Chem. Phys., 2019, 150, 154122.
     DOI: 10.1063/1.5090222
   
   for sTDA-xTB:
   * S. Grimme and C. Bannwarth, J. Chem. Phys., 2016, 145, 054103.
     DOI: 10.1063/1.4959605
   
   in the mass-spec context:
   * V. Asgeirsson, C. Bauer and S. Grimme, Chem. Sci., 2017, 8, 4879.
     DOI: 10.1039/c7sc00601b
   
   for metadynamics refer to:
   * S. Grimme, J. Chem. Theory Comput., 2019, 155, 2847-2862
     DOI: 10.1021/acs.jctc.9b00143
   
   with help from (in alphabetical order)
   C. Bannwarth, F. Bohle, G. Brandenburg, E. Caldeweyher, M. Checinski,
   S. Dohm, S. Ehlert, S. Ehrlich, F. März, H. Neugebauer, J. Pisarek,
   P. Pracht, P. Shushkov, and S. Spicher.
   
 * started run on 2021/06/04 at 20:31:41.376     

           -------------------------------------------------
          |                Calculation Setup                |
           -------------------------------------------------

          program call               : /ihome/ghutchison/geoffh/xtb/xtb /ihome/ghutchison/blp62/GA/running_GA/sequence/generations/32/275_161_29_47_275_13507.xyz -opt
          hostname                   : smp-n19
          coordinate file            : /ihome/ghutchison/blp62/GA/running_GA/sequence/generations/32/275_161_29_47_275_13507.xyz
          omp threads                :                    12
          number of atoms            :                   105
          number of electrons        :                   362
          charge                     :                     0
          spin                       :                   0.0
          first test random number   :      0.54369028155397


########################################################################
# WARNING! Please study the warnings concerning your input carefully
#  - XTBPATH is not set, using XTBHOME instead
#  - the use of '-opt' is discouraged, please use '--opt' next time
########################################################################

           ------------------------------------------------- 
          |                 G F N 2 - x T B                 |
          | Geometry, Frequencies, Noncovalent interactions |
          |            JCTC 2019 parametrisation            |
           ------------------------------------------------- 
             KAB for C  - Si     :                1.0500
             KAB for H  - Pd     :                0.9500
             k(s)              :                1.8500
             k(p)              :                2.2300
             k(d)              :                2.2300
             k(f)              :                2.0000
             kEN (H0ij)        :               -2.0000
             D4 a1             :                0.5200
             D4 a2             :                5.0000
             D4 s6             :                1.0000
             D4 s8             :                2.7000
             D4 s9             :                5.0000
             alphaj            :                2.0000

  Z AO/shell   Hii/eV     exponent
  1     Wed Apr 25 08:07:45 CEST 2018   EN: 2.200 GM2: 0.406  GM3: 0.0800  RAES: 1.40
     1s    -10.707211    1.230000
  6     Wed Apr 25 08:07:45 CEST 2018   EN: 2.550 GM2: 0.538  GM3: 0.1500  RAES: 3.00
     2s    -13.970922    2.096432
     2p    -10.063292    1.800000
  7     Wed Apr 25 08:07:45 CEST 2018   EN: 3.040 GM2: 0.461  GM3:-0.0640  RAES: 1.90
     2s    -16.686243    2.339881
     2p    -12.523956    2.014332
  8     Wed Apr 25 08:07:45 CEST 2018   EN: 3.440 GM2: 0.452  GM3:-0.0517  RAES: 1.80
     2s    -20.229985    2.439742
     2p    -15.503117    2.137023
 16     Tue Apr 24 11:44:34 CEST 2018   EN: 2.580 GM2: 0.340  GM3:-0.0502  RAES: 3.10
     3s    -20.029654    1.981333
     3p    -11.377694    2.025643
     3d     -0.420282    1.702555
 35     Tue Apr 24 12:21:41 CEST 2018   EN: 2.960 GM2: 0.261  GM3: 0.1300  RAES: 4.00
     4s    -23.583718    2.077587
     4p    -12.588824    2.263120
     4d      0.047980    1.845038

           ------------------------------------------------- 
          |        Self-Consistent Charge Iterations        |
           ------------------------------------------------- 

          ...................................................
          :                      SETUP                      :
          :.................................................:
          :  # basis functions                 381          :
          :  # atomic orbitals                 373          :
          :  # shells                          189          :
          :  # electrons                       362          :
          :  max. iterations                   250          :
          :  Hamiltonian                  GFN2-xTB          :
          :  restarted?                      false          :
          :  GBSA solvation                  false          :
          :  PC potential                    false          :
          :  electronic temp.          300.0000000     K    :
          :  accuracy                    1.0000000          :
          :  -> integral cutoff          0.2500000E+02      :
          :  -> integral neglect         0.1000000E-07      :
          :  -> SCF convergence          0.1000000E-05 Eh   :
          :  -> wf. convergence          0.1000000E-03 e    :
          :  Broyden damping             0.4000000          :
          ...................................................

 iter      E             dE          RMSdq      gap      omega  full diag
   1   -199.7433549 -0.199743E+03  0.535E+00    1.20       0.0  T
   2   -199.7976478 -0.542929E-01  0.346E+00    1.10       1.0  T
   3   -199.5275569  0.270091E+00  0.242E+00    0.66       1.0  T
   4   -199.9961258 -0.468569E+00  0.665E-01    0.69       1.0  T
   5   -200.0225218 -0.263960E-01  0.265E-01    0.58       1.0  T
   6   -200.0233325 -0.810650E-03  0.160E-01    0.60       1.0  T
   7   -200.0246789 -0.134640E-02  0.772E-02    0.60       1.0  T
   8   -200.0247524 -0.735475E-04  0.605E-02    0.61       1.0  T
   9   -200.0247901 -0.376241E-04  0.505E-02    0.61       1.0  T
  10   -200.0248776 -0.875317E-04  0.327E-02    0.61       1.0  T
  11   -200.0249172 -0.395967E-04  0.185E-02    0.61       1.0  T
  12   -200.0249270 -0.984589E-05  0.105E-02    0.61       1.0  T
  13   -200.0249325 -0.545747E-05  0.500E-03    0.61       2.0  T
  14   -200.0249336 -0.112870E-05  0.226E-03    0.61       4.3  T
  15   -200.0249338 -0.180164E-06  0.131E-03    0.61       7.5  T
  16   -200.0249339 -0.750260E-07  0.754E-04    0.61      12.9  T
  17   -200.0249339 -0.720672E-08  0.466E-04    0.61      20.9  T

   *** convergence criteria satisfied after 17 iterations ***

         #    Occupation            Energy/Eh            Energy/eV
      -------------------------------------------------------------
         1        2.0000           -0.8673841             -23.6027
       ...           ...                  ...                  ...
       175        2.0000           -0.4120385             -11.2121
       176        2.0000           -0.4070148             -11.0754
       177        2.0000           -0.4047775             -11.0146
       178        2.0000           -0.3846216             -10.4661
       179        2.0000           -0.3755008             -10.2179
       180        2.0000           -0.3715233             -10.1097
       181        2.0000           -0.3619078              -9.8480 (HOMO)
       182        0.0000           -0.3394827              -9.2378 (LUMO)
       183                         -0.3335483              -9.0763
       184                         -0.3242368              -8.8229
       185                         -0.3239637              -8.8155
       186                         -0.3157759              -8.5927
       ...                                ...                  ...
       373                          1.0717444              29.1637
      -------------------------------------------------------------
                  HL-Gap            0.0224252 Eh            0.6102 eV
             Fermi-level           -0.3506962 Eh           -9.5429 eV

 SCC (total)                   0 d,  0 h,  0 min,  0.278 sec
 SCC setup                      ...        0 min,  0.002 sec (  0.866%)
 Dispersion                     ...        0 min,  0.005 sec (  1.737%)
 integral evaluation            ...        0 min,  0.030 sec ( 10.619%)
 zeroth order Hamiltonian       ...        0 min,  0.001 sec (  0.522%)
 iterations                     ...        0 min,  0.218 sec ( 78.295%)
 molecular gradient             ...        0 min,  0.021 sec (  7.571%)
 printout                       ...        0 min,  0.001 sec (  0.356%)

         :::::::::::::::::::::::::::::::::::::::::::::::::::::
         ::                     SUMMARY                     ::
         :::::::::::::::::::::::::::::::::::::::::::::::::::::
         :: total energy            -197.029201798923 Eh    ::
         :: gradient norm              0.212159322681 Eh/a0 ::
         :: HOMO-LUMO gap              0.610220140618 eV    ::
         ::.................................................::
         :: SCC energy              -200.024933888849 Eh    ::
         :: -> isotropic ES            0.111827821764 Eh    ::
         :: -> anisotropic ES          0.018155071561 Eh    ::
         :: -> anisotropic XC          0.154255560867 Eh    ::
         :: -> dispersion             -0.171383017362 Eh    ::
         :: repulsion energy           2.991696014884 Eh    ::
         :: add. restraining           0.000000000000 Eh    ::
         :::::::::::::::::::::::::::::::::::::::::::::::::::::

      ----------------------------------------------------------- 
     |                   =====================                   |
     |                        A N C O P T                        |
     |                   =====================                   |
     |               Approximate Normal Coordinate               |
     |                Rational Function Optimizer                |
      ----------------------------------------------------------- 

          ...................................................
          :                      SETUP                      :
          :.................................................:
          :   optimization level            normal          :
          :   max. optcycles                   315          :
          :   ANC micro-cycles                  20          :
          :   degrees of freedom               309          :
          :.................................................:
          :   RF solver                   davidson          :
          :   input Hessian                  false          :
          :   write xtbopt.log                true          :
          :   linear?                        false          :
          :   energy convergence         0.5000000E-05 Eh   :
          :   grad. convergence          0.1000000E-02 Eh/α :
          :   maximium RF displ.         2.0000000          :
          :   Hlow (freq-cutoff)         0.5000000E-02      :
          :   Hmax (freq-cutoff)         5.0000000          :
          :   S6 in model hess.         20.0000000          :
          ...................................................

generating ANC from model Hessian ...
Using Lindh-Hessian (1995)
 Shifting diagonal of input Hessian by   4.990553172992066E-003
 Lowest  eigenvalues of input Hessian
   -0.000000   -0.000000   -0.000000   -0.000000    0.000000    0.000000
    0.005000    0.005011    0.005027    0.005062    0.005100    0.005126
    0.005137    0.005212    0.005282    0.005335    0.005487    0.005693
 Highest eigenvalues
    2.247805    2.261101    2.487991    2.507084    2.554428    2.572204
 

........................................................................
.............................. CYCLE    1 ..............................
........................................................................
   1   -200.0249339 -0.200025E+03  0.259E-04    0.61       0.0  T
   2   -200.0249339  0.122640E-09  0.220E-04    0.61      44.3  T
   3   -200.0249339 -0.162282E-08  0.169E-04    0.61      57.7  T
     SCC iter.                  ...        0 min,  0.041 sec
     gradient                   ...        0 min,  0.020 sec
 * total energy  :  -197.0292017 Eh     change        0.5273139E-07 Eh
   gradient norm :     0.2121617 Eh/α   predicted     0.0000000E+00 (-100.00%)
   displ. norm   :     0.4452706 α      lambda       -0.4764855E-01
   maximum displ.:     0.0776093 α      in ANC's #78, #83, #67, ...

........................................................................
.............................. CYCLE    2 ..............................
........................................................................
   1   -200.1460618 -0.200146E+03  0.321E-01    0.43       0.0  T
   2   -200.1465509 -0.489087E-03  0.172E-01    0.51       1.0  T
   3   -200.1459904  0.560415E-03  0.102E-01    0.48       1.0  T
   4   -200.1468247 -0.834241E-03  0.374E-02    0.49       1.0  T
   5   -200.1468665 -0.418233E-04  0.259E-02    0.49       1.0  T
   6   -200.1469161 -0.495928E-04  0.141E-02    0.49       1.0  T
   7   -200.1469376 -0.214968E-04  0.320E-03    0.49       3.1  T
   8   -200.1469384 -0.806337E-06  0.141E-03    0.49       6.9  T
   9   -200.1469385 -0.861584E-07  0.799E-04    0.49      12.2  T
     SCC iter.                  ...        0 min,  0.114 sec
     gradient                   ...        0 min,  0.019 sec
 * total energy  :  -197.0631821 Eh     change       -0.3398033E-01 Eh
   gradient norm :     0.0944754 Eh/α   predicted    -0.2854811E-01 ( -15.99%)
   displ. norm   :     0.5400759 α      lambda       -0.2162947E-01
   maximum displ.:     0.1288934 α      in ANC's #36, #37, #31, ...

........................................................................
.............................. CYCLE    3 ..............................
........................................................................
   1   -200.1954053 -0.200195E+03  0.315E-01    0.28       0.0  T
   2   -200.1956243 -0.218997E-03  0.175E-01    0.43       1.0  T
   3   -200.1914176  0.420672E-02  0.177E-01    0.29       1.0  T
   4   -200.1950947 -0.367716E-02  0.921E-02    0.39       1.0  T
   5   -200.1963980 -0.130330E-02  0.240E-02    0.38       1.0  T
   6   -200.1964287 -0.306116E-04  0.106E-02    0.37       1.0  T
   7   -200.1964324 -0.377798E-05  0.478E-03    0.36       2.0  T
   8   -200.1964346 -0.218335E-05  0.210E-03    0.36       4.6  T
     SCC iter.                  ...        0 min,  0.099 sec
     gradient                   ...        0 min,  0.019 sec
 * total energy  :  -197.0775256 Eh     change       -0.1434357E-01 Eh
   gradient norm :     0.0315810 Eh/α   predicted    -0.1396921E-01 (  -2.61%)
   displ. norm   :     0.6313625 α      lambda       -0.9200230E-02
   maximum displ.:     0.1854175 α      in ANC's #31, #37, #36, ...

........................................................................
.............................. CYCLE    4 ..............................
........................................................................
   1   -200.2147828 -0.200215E+03  0.293E-01    0.34       0.0  T
   2   -200.2148842 -0.101373E-03  0.151E-01    0.38       1.0  T
   3   -200.2118420  0.304223E-02  0.135E-01    0.32       1.0  T
   4   -200.2147618 -0.291981E-02  0.457E-02    0.38       1.0  T
   5   -200.2150633 -0.301566E-03  0.169E-02    0.37       1.0  T
   6   -200.2150750 -0.116824E-04  0.751E-03    0.37       1.3  T
   7   -200.2150789 -0.388878E-05  0.291E-03    0.37       3.3  T
   8   -200.2150792 -0.254545E-06  0.211E-03    0.37       4.6  T
     SCC iter.                  ...        0 min,  0.102 sec
     gradient                   ...        0 min,  0.019 sec
 * total energy  :  -197.0851493 Eh     change       -0.7623610E-02 Eh
   gradient norm :     0.0283886 Eh/α   predicted    -0.6433897E-02 ( -15.61%)
   displ. norm   :     0.7806031 α      lambda       -0.9030842E-02
   maximum displ.:     0.2530003 α      in ANC's #31, #14, #36, ...

........................................................................
.............................. CYCLE    5 ..............................
........................................................................
   1   -200.2181286 -0.200218E+03  0.372E-01    0.39       0.0  T
   2   -200.2181642 -0.355555E-04  0.196E-01    0.42       1.0  T
   3   -200.2099288  0.823543E-02  0.212E-01    0.35       1.0  T
   4   -200.2180110 -0.808224E-02  0.588E-02    0.43       1.0  T
   5   -200.2185571 -0.546056E-03  0.253E-02    0.41       1.0  T
   6   -200.2186127 -0.556740E-04  0.113E-02    0.41       1.0  T
   7   -200.2186214 -0.864701E-05  0.466E-03    0.41       2.1  T
   8   -200.2186225 -0.107208E-05  0.302E-03    0.41       3.2  T
   9   -200.2186227 -0.251187E-06  0.208E-03    0.41       4.7  T
     SCC iter.                  ...        0 min,  0.120 sec
     gradient                   ...        0 min,  0.022 sec
 * total energy  :  -197.0918100 Eh     change       -0.6660753E-02 Eh
   gradient norm :     0.0302767 Eh/α   predicted    -0.7266854E-02 (   9.10%)
   displ. norm   :     0.7495622 α      lambda       -0.7670152E-02
   maximum displ.:     0.2309305 α      in ANC's #14, #27, #31, ...

........................................................................
.............................. CYCLE    6 ..............................
........................................................................
   1   -200.2206634 -0.200221E+03  0.371E-01    0.43       0.0  T
   2   -200.2198577  0.805642E-03  0.208E-01    0.47       1.0  T
   3   -200.1958145  0.240432E-01  0.342E-01    0.34       1.0  T
   4   -200.2204457 -0.246312E-01  0.660E-02    0.50       1.0  T
   5   -200.2212431 -0.797380E-03  0.250E-02    0.45       1.0  T
   6   -200.2212781 -0.350146E-04  0.125E-02    0.45       1.0  T
   7   -200.2212860 -0.790604E-05  0.620E-03    0.45       1.6  T
   8   -200.2212892 -0.319144E-05  0.336E-03    0.45       2.9  T
   9   -200.2212895 -0.242673E-06  0.240E-03    0.45       4.1  T
     SCC iter.                  ...        0 min,  0.113 sec
     gradient                   ...        0 min,  0.019 sec
 * total energy  :  -197.0967088 Eh     change       -0.4898819E-02 Eh
   gradient norm :     0.0315097 Eh/α   predicted    -0.5989792E-02 (  22.27%)
   displ. norm   :     0.6075897 α      lambda       -0.4620094E-02
   maximum displ.:     0.2693928 α      in ANC's #14, #16, #31, ...

........................................................................
.............................. CYCLE    7 ..............................
........................................................................
   1   -200.2296533 -0.200230E+03  0.292E-01    0.39       0.0  T
   2   -200.2282057  0.144767E-02  0.172E-01    0.45       1.0  T
   3   -200.2039786  0.242271E-01  0.334E-01    0.29       1.0  T
   4   -200.2296485 -0.256699E-01  0.504E-02    0.46       1.0  T
   5   -200.2300692 -0.420738E-03  0.200E-02    0.42       1.0  T
   6   -200.2300753 -0.600954E-05  0.113E-02    0.41       1.0  T
   7   -200.2300797 -0.442808E-05  0.608E-03    0.41       1.6  T
   8   -200.2300827 -0.303699E-05  0.308E-03    0.41       3.2  T
   9   -200.2300831 -0.334055E-06  0.216E-03    0.41       4.5  T
     SCC iter.                  ...        0 min,  0.113 sec
     gradient                   ...        0 min,  0.019 sec
 * total energy  :  -197.1003350 Eh     change       -0.3626204E-02 Eh
   gradient norm :     0.0269867 Eh/α   predicted    -0.3162839E-02 ( -12.78%)
   displ. norm   :     0.6677318 α      lambda       -0.4886386E-02
   maximum displ.:     0.3124078 α      in ANC's #14, #16, #31, ...

........................................................................
.............................. CYCLE    8 ..............................
........................................................................
   1   -200.2349372 -0.200235E+03  0.331E-01    0.37       0.0  T
   2   -200.2332677  0.166950E-02  0.193E-01    0.42       1.0  T
   3   -200.2039272  0.293405E-01  0.367E-01    0.26       1.0  T
   4   -200.2348569 -0.309297E-01  0.601E-02    0.44       1.0  T
   5   -200.2354204 -0.563457E-03  0.224E-02    0.39       1.0  T
   6   -200.2354225 -0.212190E-05  0.128E-02    0.38       1.0  T
   7   -200.2354291 -0.664357E-05  0.685E-03    0.39       1.4  T
   8   -200.2354335 -0.436431E-05  0.345E-03    0.39       2.8  T
   9   -200.2354339 -0.444690E-06  0.239E-03    0.38       4.1  T
     SCC iter.                  ...        0 min,  0.111 sec
     gradient                   ...        0 min,  0.019 sec
 * total energy  :  -197.1034019 Eh     change       -0.3066867E-02 Eh
   gradient norm :     0.0266179 Eh/α   predicted    -0.3532535E-02 (  15.18%)
   displ. norm   :     0.6269486 α      lambda       -0.3863439E-02
   maximum displ.:     0.3125793 α      in ANC's #14, #16, #30, ...

........................................................................
.............................. CYCLE    9 ..............................
........................................................................
   1   -200.2450693 -0.200245E+03  0.313E-01    0.39       0.0  T
   2   -200.2445967  0.472546E-03  0.168E-01    0.39       1.0  T
   3   -200.2289055  0.156912E-01  0.275E-01    0.32       1.0  T
   4   -200.2451270 -0.162215E-01  0.403E-02    0.42       1.0  T
   5   -200.2453346 -0.207569E-03  0.202E-02    0.38       1.0  T
   6   -200.2453608 -0.261635E-04  0.898E-03    0.38       1.1  T
   7   -200.2453663 -0.549179E-05  0.443E-03    0.39       2.2  T
   8   -200.2453683 -0.208410E-05  0.251E-03    0.39       3.9  T
     SCC iter.                  ...        0 min,  0.099 sec
     gradient                   ...        0 min,  0.020 sec
 * total energy  :  -197.1057881 Eh     change       -0.2386153E-02 Eh
   gradient norm :     0.0324165 Eh/α   predicted    -0.2691014E-02 (  12.78%)
   displ. norm   :     0.5911722 α      lambda       -0.2658173E-02
   maximum displ.:     0.2935863 α      in ANC's #14, #16, #31, ...

........................................................................
.............................. CYCLE   10 ..............................
........................................................................
   1   -200.2455959 -0.200246E+03  0.281E-01    0.38       0.0  T
   2   -200.2454973  0.986827E-04  0.142E-01    0.37       1.0  T
   3   -200.2391427  0.635459E-02  0.178E-01    0.34       1.0  T
   4   -200.2456226 -0.647992E-02  0.335E-02    0.40       1.0  T
   5   -200.2457478 -0.125174E-03  0.181E-02    0.37       1.0  T
   6   -200.2457702 -0.224289E-04  0.748E-03    0.37       1.3  T
   7   -200.2457751 -0.492998E-05  0.342E-03    0.38       2.9  T
   8   -200.2457757 -0.614402E-06  0.242E-03    0.38       4.0  T
     SCC iter.                  ...        0 min,  0.100 sec
     gradient                   ...        0 min,  0.020 sec
 * total energy  :  -197.1076000 Eh     change       -0.1811977E-02 Eh
   gradient norm :     0.0218748 Eh/α   predicted    -0.1793583E-02 (  -1.02%)
   displ. norm   :     0.6360427 α      lambda       -0.2880176E-02
   maximum displ.:     0.3225079 α      in ANC's #14, #16, #7, ...

........................................................................
.............................. CYCLE   11 ..............................
........................................................................
   1   -200.2420079 -0.200242E+03  0.270E-01    0.36       0.0  T
   2   -200.2419177  0.902702E-04  0.142E-01    0.35       1.0  T
   3   -200.2357024  0.621526E-02  0.172E-01    0.31       1.0  T
   4   -200.2420215 -0.631909E-02  0.336E-02    0.37       1.0  T
   5   -200.2421439 -0.122424E-03  0.169E-02    0.35       1.0  T
   6   -200.2421618 -0.178903E-04  0.739E-03    0.35       1.3  T
   7   -200.2421673 -0.550819E-05  0.336E-03    0.35       2.9  T
   8   -200.2421679 -0.593434E-06  0.231E-03    0.35       4.2  T
     SCC iter.                  ...        0 min,  0.099 sec
     gradient                   ...        0 min,  0.020 sec
 * total energy  :  -197.1093218 Eh     change       -0.1721793E-02 Eh
   gradient norm :     0.0394448 Eh/α   predicted    -0.2022680E-02 (  17.48%)
   displ. norm   :     0.5612849 α      lambda       -0.2614120E-02
   maximum displ.:     0.2871681 α      in ANC's #14, #16, #9, ...

........................................................................
.............................. CYCLE   12 ..............................
........................................................................
   1   -200.2544615 -0.200254E+03  0.204E-01    0.34       0.0  T
   2   -200.2545032 -0.417547E-04  0.104E-01    0.32       1.0  T
   3   -200.2540965  0.406777E-03  0.548E-02    0.36       1.0  T
   4   -200.2543514 -0.254966E-03  0.327E-02    0.32       1.0  T
   5   -200.2545036 -0.152139E-03  0.177E-02    0.33       1.0  T
   6   -200.2545425 -0.389569E-04  0.614E-03    0.33       1.6  T
   7   -200.2545468 -0.432871E-05  0.269E-03    0.33       3.6  T
   8   -200.2545472 -0.315464E-06  0.193E-03    0.33       5.0  T
     SCC iter.                  ...        0 min,  0.098 sec
     gradient                   ...        0 min,  0.020 sec
 * total energy  :  -197.1109759 Eh     change       -0.1654122E-02 Eh
   gradient norm :     0.0225076 Eh/α   predicted    -0.1718844E-02 (   3.91%)
   displ. norm   :     0.6388843 α      lambda       -0.2248004E-02
   maximum displ.:     0.3252113 α      in ANC's #14, #16, #12, ...

........................................................................
.............................. CYCLE   13 ..............................
........................................................................
   1   -200.2382539 -0.200238E+03  0.284E-01    0.35       0.0  T
   2   -200.2383082 -0.542828E-04  0.143E-01    0.32       1.0  T
   3   -200.2358917  0.241655E-02  0.111E-01    0.39       1.0  T
   4   -200.2382125 -0.232083E-02  0.379E-02    0.33       1.0  T
   5   -200.2384051 -0.192568E-03  0.159E-02    0.33       1.0  T
   6   -200.2384160 -0.109732E-04  0.593E-03    0.33       1.6  T
   7   -200.2384189 -0.281607E-05  0.293E-03    0.34       3.3  T
   8   -200.2384192 -0.368696E-06  0.215E-03    0.34       4.5  T
     SCC iter.                  ...        0 min,  0.101 sec
     gradient                   ...        0 min,  0.020 sec
 * total energy  :  -197.1122471 Eh     change       -0.1271117E-02 Eh
   gradient norm :     0.0240810 Eh/α   predicted    -0.1582796E-02 (  24.52%)
   displ. norm   :     0.5492342 α      lambda       -0.1914228E-02
   maximum displ.:     0.2572508 α      in ANC's #14, #16, #7, ...

........................................................................
.............................. CYCLE   14 ..............................
........................................................................
   1   -200.2502843 -0.200250E+03  0.192E-01    0.34       0.0  T
   2   -200.2503219 -0.376179E-04  0.994E-02    0.33       1.0  T
   3   -200.2498196  0.502269E-03  0.566E-02    0.36       1.0  T
   4   -200.2501842 -0.364633E-03  0.308E-02    0.33       1.0  T
   5   -200.2503392 -0.155004E-03  0.125E-02    0.34       1.0  T
   6   -200.2503539 -0.146741E-04  0.474E-03    0.34       2.1  T
   7   -200.2503562 -0.230493E-05  0.224E-03    0.33       4.4  T
   8   -200.2503564 -0.134601E-06  0.170E-03    0.33       5.7  T
     SCC iter.                  ...        0 min,  0.100 sec
     gradient                   ...        0 min,  0.021 sec
 * total energy  :  -197.1131403 Eh     change       -0.8932309E-03 Eh
   gradient norm :     0.0303795 Eh/α   predicted    -0.1245836E-02 (  39.48%)
   displ. norm   :     0.4929974 α      lambda       -0.2130986E-02
   maximum displ.:     0.2056504 α      in ANC's #14, #16, #7, ...

........................................................................
.............................. CYCLE   15 ..............................
........................................................................
   1   -200.2529127 -0.200253E+03  0.164E-01    0.34       0.0  T
   2   -200.2529393 -0.266452E-04  0.874E-02    0.33       1.0  T
   3   -200.2523835  0.555895E-03  0.604E-02    0.35       1.0  T
   4   -200.2528256 -0.442140E-03  0.282E-02    0.32       1.0  T
   5   -200.2529534 -0.127789E-03  0.137E-02    0.33       1.0  T
   6   -200.2529759 -0.225569E-04  0.512E-03    0.33       1.9  T
   7   -200.2529784 -0.248240E-05  0.241E-03    0.33       4.0  T
   8   -200.2529786 -0.176674E-06  0.184E-03    0.33       5.3  T
     SCC iter.                  ...        0 min,  0.100 sec
     gradient                   ...        0 min,  0.020 sec
 * total energy  :  -197.1138532 Eh     change       -0.7128729E-03 Eh
   gradient norm :     0.0260440 Eh/α   predicted    -0.1324458E-02 (  85.79%)
   displ. norm   :     0.3140631 α      lambda       -0.1477754E-02
   maximum displ.:     0.1304227 α      in ANC's #7, #12, #14, ...

........................................................................
.............................. CYCLE   16 ..............................
........................................................................
   1   -200.2563825 -0.200256E+03  0.134E-01    0.34       0.0  T
   2   -200.2563703  0.121831E-04  0.724E-02    0.33       1.0  T
   3   -200.2548594  0.151092E-02  0.876E-02    0.37       1.0  T
   4   -200.2563542 -0.149481E-02  0.245E-02    0.34       1.0  T
   5   -200.2564402 -0.860142E-04  0.756E-03    0.34       1.3  T
   6   -200.2564414 -0.124865E-05  0.399E-03    0.34       2.4  T
   7   -200.2564426 -0.117187E-05  0.212E-03    0.34       4.6  T
     SCC iter.                  ...        0 min,  0.087 sec
     gradient                   ...        0 min,  0.020 sec
 * total energy  :  -197.1146033 Eh     change       -0.7501459E-03 Eh
   gradient norm :     0.0177239 Eh/α   predicted    -0.8117586E-03 (   8.21%)
   displ. norm   :     0.3650686 α      lambda       -0.8295171E-03
   maximum displ.:     0.1667217 α      in ANC's #7, #14, #12, ...

........................................................................
.............................. CYCLE   17 ..............................
........................................................................
   1   -200.2541006 -0.200254E+03  0.127E-01    0.35       0.0  T
   2   -200.2540585  0.420975E-04  0.700E-02    0.34       1.0  T
   3   -200.2520122  0.204634E-02  0.101E-01    0.38       1.0  T
   4   -200.2541177 -0.210548E-02  0.154E-02    0.34       1.0  T
   5   -200.2541406 -0.229717E-04  0.774E-03    0.35       1.3  T
   6   -200.2541447 -0.409375E-05  0.349E-03    0.35       2.8  T
   7   -200.2541457 -0.919321E-06  0.198E-03    0.35       4.9  T
   8   -200.2541458 -0.169267E-06  0.142E-03    0.35       6.9  T
     SCC iter.                  ...        0 min,  0.101 sec
     gradient                   ...        0 min,  0.022 sec
 * total energy  :  -197.1150825 Eh     change       -0.4791803E-03 Eh
   gradient norm :     0.0133774 Eh/α   predicted    -0.4700386E-03 (  -1.91%)
   displ. norm   :     0.3446308 α      lambda       -0.5535290E-03
   maximum displ.:     0.1871822 α      in ANC's #7, #12, #4, ...

........................................................................
.............................. CYCLE   18 ..............................
........................................................................
   1   -200.2574979 -0.200257E+03  0.862E-02    0.36       0.0  T
   2   -200.2574813  0.165576E-04  0.470E-02    0.35       1.0  T
   3   -200.2566593  0.822010E-03  0.653E-02    0.38       1.0  T
   4   -200.2575051 -0.845760E-03  0.104E-02    0.36       1.0  T
   5   -200.2575149 -0.980239E-05  0.550E-03    0.36       1.8  T
   6   -200.2575163 -0.148622E-05  0.215E-03    0.36       4.5  T
   7   -200.2575166 -0.257014E-06  0.120E-03    0.36       8.1  T
     SCC iter.                  ...        0 min,  0.088 sec
     gradient                   ...        0 min,  0.020 sec
 * total energy  :  -197.1155275 Eh     change       -0.4449765E-03 Eh
   gradient norm :     0.0088761 Eh/α   predicted    -0.3096390E-03 ( -30.41%)
   displ. norm   :     0.5055414 α      lambda       -0.7797866E-03
   maximum displ.:     0.2863388 α      in ANC's #7, #4, #12, ...

........................................................................
.............................. CYCLE   19 ..............................
........................................................................
   1   -200.2636081 -0.200264E+03  0.145E-01    0.36       0.0  T
   2   -200.2636399 -0.317178E-04  0.736E-02    0.36       1.0  T
   3   -200.2635990  0.408556E-04  0.234E-02    0.35       1.0  T
   4   -200.2636447 -0.456695E-04  0.111E-02    0.36       1.0  T
   5   -200.2636369  0.777750E-05  0.968E-03    0.36       1.0  T
   6   -200.2636480 -0.111263E-04  0.557E-03    0.36       1.8  T
   7   -200.2636533 -0.530418E-05  0.177E-03    0.36       5.5  T
   8   -200.2636535 -0.144837E-06  0.117E-03    0.36       8.3  T
   9   -200.2636535 -0.246715E-07  0.760E-04    0.36      12.8  T
     SCC iter.                  ...        0 min,  0.111 sec
     gradient                   ...        0 min,  0.020 sec
 * total energy  :  -197.1160676 Eh     change       -0.5401386E-03 Eh
   gradient norm :     0.0112606 Eh/α   predicted    -0.4895396E-03 (  -9.37%)
   displ. norm   :     0.5536819 α      lambda       -0.7239397E-03
   maximum displ.:     0.3139996 α      in ANC's #7, #12, #4, ...

........................................................................
.............................. CYCLE   20 ..............................
........................................................................
   1   -200.2574202 -0.200257E+03  0.139E-01    0.37       0.0  T
   2   -200.2574417 -0.215312E-04  0.730E-02    0.37       1.0  T
   3   -200.2573412  0.100576E-03  0.343E-02    0.37       1.0  T
   4   -200.2574300 -0.887895E-04  0.164E-02    0.37       1.0  T
   5   -200.2574167  0.132652E-04  0.166E-02    0.36       1.0  T
   6   -200.2574605 -0.437682E-04  0.558E-03    0.37       1.7  T
   7   -200.2574617 -0.121750E-05  0.404E-03    0.37       2.4  T
   8   -200.2574619 -0.178430E-06  0.306E-03    0.37       3.2  T
   9   -200.2574621 -0.289840E-06  0.146E-03    0.37       6.7  T
  10   -200.2574622 -0.416570E-07  0.854E-04    0.37      11.4  T
     SCC iter.                  ...        0 min,  0.122 sec
     gradient                   ...        0 min,  0.020 sec
 * total energy  :  -197.1165416 Eh     change       -0.4740110E-03 Eh
   gradient norm :     0.0128042 Eh/α   predicted    -0.4729373E-03 (  -0.23%)
   displ. norm   :     0.4895071 α      lambda       -0.6150805E-03
   maximum displ.:     0.2828978 α      in ANC's #7, #4, #12, ...
 * RMSD in coord.:     0.8085501 α      energy gain  -0.8733982E-01 Eh

generating ANC from model Hessian ...
Using Lindh-Hessian (1995)
 Shifting diagonal of input Hessian by   5.011203982820628E-003
 Lowest  eigenvalues of input Hessian
    0.005000   -0.000000   -0.000000   -0.000000    0.000000    0.000000
    0.000000    0.005035    0.005043    0.005068    0.005129    0.005176
    0.005203    0.005245    0.005407    0.005595    0.005702    0.005798
 Highest eigenvalues
    2.279814    2.292827    2.601412    2.601570    2.652444    2.653173
 

........................................................................
.............................. CYCLE   21 ..............................
........................................................................
   1   -200.2579188 -0.200258E+03  0.142E-01    0.37       0.0  T
   2   -200.2579387 -0.199486E-04  0.724E-02    0.37       1.0  T
   3   -200.2578720  0.666692E-04  0.276E-02    0.37       1.0  T
   4   -200.2579220 -0.500039E-04  0.152E-02    0.38       1.0  T
   5   -200.2579238 -0.174577E-05  0.136E-02    0.37       1.0  T
   6   -200.2579515 -0.276818E-04  0.420E-03    0.37       2.3  T
   7   -200.2579519 -0.438219E-06  0.319E-03    0.37       3.1  T
   8   -200.2579519 -0.213333E-08  0.244E-03    0.37       4.0  T
   9   -200.2579521 -0.204461E-06  0.125E-03    0.37       7.8  T
  10   -200.2579522 -0.720786E-07  0.699E-04    0.37      14.0  T
  11   -200.2579522 -0.289412E-07  0.426E-04    0.37      22.9  T
     SCC iter.                  ...        0 min,  0.137 sec
     gradient                   ...        0 min,  0.022 sec
 * total energy  :  -197.1169770 Eh     change       -0.4353995E-03 Eh
   gradient norm :     0.0115409 Eh/α   predicted     0.0000000E+00 (-100.00%)
   displ. norm   :     0.2206672 α      lambda       -0.5733790E-03
   maximum displ.:     0.1154954 α      in ANC's #7, #6, #16, ...

........................................................................
.............................. CYCLE   22 ..............................
........................................................................
   1   -200.2583960 -0.200258E+03  0.119E-01    0.36       0.0  T
   2   -200.2583837  0.123381E-04  0.616E-02    0.37       1.0  T
   3   -200.2573583  0.102534E-02  0.721E-02    0.34       1.0  T
   4   -200.2584200 -0.106169E-02  0.927E-03    0.36       1.1  T
   5   -200.2584244 -0.436545E-05  0.576E-03    0.36       1.7  T
   6   -200.2584259 -0.144941E-05  0.253E-03    0.36       3.9  T
   7   -200.2584262 -0.306557E-06  0.168E-03    0.36       5.8  T
     SCC iter.                  ...        0 min,  0.087 sec
     gradient                   ...        0 min,  0.020 sec
 * total energy  :  -197.1172881 Eh     change       -0.3110643E-03 Eh
   gradient norm :     0.0074620 Eh/α   predicted    -0.3008750E-03 (  -3.28%)
   displ. norm   :     0.2654792 α      lambda       -0.7146307E-03
   maximum displ.:     0.1113907 α      in ANC's #26, #7, #42, ...

........................................................................
.............................. CYCLE   23 ..............................
........................................................................
   1   -200.2600260 -0.200260E+03  0.156E-01    0.35       0.0  T
   2   -200.2600056  0.204111E-04  0.829E-02    0.36       1.0  T
   3   -200.2581678  0.183785E-02  0.968E-02    0.32       1.0  T
   4   -200.2600581 -0.189033E-02  0.156E-02    0.35       1.0  T
   5   -200.2600805 -0.224137E-04  0.781E-03    0.35       1.2  T
   6   -200.2600828 -0.233290E-05  0.378E-03    0.35       2.6  T
   7   -200.2600840 -0.113445E-05  0.220E-03    0.35       4.4  T
   8   -200.2600841 -0.946006E-07  0.166E-03    0.35       5.9  T
     SCC iter.                  ...        0 min,  0.099 sec
     gradient                   ...        0 min,  0.020 sec
 * total energy  :  -197.1173192 Eh     change       -0.3115322E-04 Eh
   gradient norm :     0.0104569 Eh/α   predicted    -0.3825001E-03 (1127.80%)
   displ. norm   :     0.1401615 α      lambda       -0.6610329E-03
   maximum displ.:     0.0542994 α      in ANC's #7, #6, #51, ...

........................................................................
.............................. CYCLE   24 ..............................
........................................................................
   1   -200.2608672 -0.200261E+03  0.105E-01    0.35       0.0  T
   2   -200.2608765 -0.929320E-05  0.541E-02    0.35       1.0  T
   3   -200.2607605  0.115972E-03  0.263E-02    0.34       1.0  T
   4   -200.2608714 -0.110900E-03  0.943E-03    0.35       1.0  T
   5   -200.2608817 -0.102593E-04  0.532E-03    0.35       1.8  T
   6   -200.2608847 -0.307223E-05  0.190E-03    0.35       5.1  T
   7   -200.2608849 -0.161799E-06  0.128E-03    0.35       7.6  T
   8   -200.2608849 -0.219549E-08  0.934E-04    0.35      10.4  T
     SCC iter.                  ...        0 min,  0.104 sec
     gradient                   ...        0 min,  0.022 sec
 * total energy  :  -197.1176468 Eh     change       -0.3275909E-03 Eh
   gradient norm :     0.0065812 Eh/α   predicted    -0.3370126E-03 (   2.88%)
   displ. norm   :     0.1870255 α      lambda       -0.4668150E-03
   maximum displ.:     0.0842683 α      in ANC's #7, #6, #4, ...

........................................................................
.............................. CYCLE   25 ..............................
........................................................................
   1   -200.2586464 -0.200259E+03  0.119E-01    0.35       0.0  T
   2   -200.2586615 -0.151889E-04  0.611E-02    0.35       1.0  T
   3   -200.2586314  0.301083E-04  0.185E-02    0.36       1.0  T
   4   -200.2586693 -0.379133E-04  0.619E-03    0.35       1.6  T
   5   -200.2586697 -0.350373E-06  0.377E-03    0.35       2.6  T
   6   -200.2586707 -0.101982E-05  0.196E-03    0.35       5.0  T
   7   -200.2586705  0.178617E-06  0.190E-03    0.35       5.1  T
     SCC iter.                  ...        0 min,  0.087 sec
     gradient                   ...        0 min,  0.020 sec
 * total energy  :  -197.1177710 Eh     change       -0.1241985E-03 Eh
   gradient norm :     0.0054198 Eh/α   predicted    -0.2415725E-03 (  94.51%)
   displ. norm   :     0.1838935 α      lambda       -0.3194224E-03
   maximum displ.:     0.0996794 α      in ANC's #7, #6, #4, ...

........................................................................
.............................. CYCLE   26 ..............................
........................................................................
   1   -200.2587639 -0.200259E+03  0.689E-02    0.35       0.0  T
   2   -200.2587477  0.162401E-04  0.365E-02    0.36       1.0  T
   3   -200.2581489  0.598777E-03  0.554E-02    0.34       1.0  T
   4   -200.2587724 -0.623541E-03  0.612E-03    0.35       1.6  T
   5   -200.2587745 -0.203642E-05  0.380E-03    0.35       2.6  T
   6   -200.2587753 -0.894365E-06  0.120E-03    0.35       8.2  T
   7   -200.2587754 -0.816304E-07  0.742E-04    0.35      13.2  T
     SCC iter.                  ...        0 min,  0.087 sec
     gradient                   ...        0 min,  0.020 sec
 * total energy  :  -197.1180170 Eh     change       -0.2460237E-03 Eh
   gradient norm :     0.0035785 Eh/α   predicted    -0.1651145E-03 ( -32.89%)
   displ. norm   :     0.4590267 α      lambda       -0.5649095E-03
   maximum displ.:     0.2388837 α      in ANC's #7, #6, #4, ...

........................................................................
.............................. CYCLE   27 ..............................
........................................................................
   1   -200.2567026 -0.200257E+03  0.159E-01    0.35       0.0  T
   2   -200.2566718  0.308029E-04  0.844E-02    0.35       1.0  T
   3   -200.2546668  0.200494E-02  0.102E-01    0.32       1.0  T
   4   -200.2567363 -0.206951E-02  0.132E-02    0.35       1.0  T
   5   -200.2567466 -0.103328E-04  0.840E-03    0.35       1.2  T
   6   -200.2567517 -0.501979E-05  0.279E-03    0.35       3.5  T
   7   -200.2567520 -0.370569E-06  0.186E-03    0.35       5.2  T
   8   -200.2567521 -0.680967E-07  0.132E-03    0.35       7.4  T
   9   -200.2567522 -0.494964E-07  0.800E-04    0.35      12.2  T
  10   -200.2567522 -0.180546E-07  0.495E-04    0.35      19.7  T
     SCC iter.                  ...        0 min,  0.125 sec
     gradient                   ...        0 min,  0.022 sec
 * total energy  :  -197.1181356 Eh     change       -0.1185970E-03 Eh
   gradient norm :     0.0093716 Eh/α   predicted    -0.3419698E-03 ( 188.35%)
   displ. norm   :     0.3714862 α      lambda       -0.7504662E-03
   maximum displ.:     0.1989533 α      in ANC's #7, #6, #4, ...

........................................................................
.............................. CYCLE   28 ..............................
........................................................................
   1   -200.2576062 -0.200258E+03  0.113E-01    0.35       0.0  T
   2   -200.2576115 -0.533503E-05  0.608E-02    0.35       1.0  T
   3   -200.2572874  0.324141E-03  0.424E-02    0.34       1.0  T
   4   -200.2576074 -0.320007E-03  0.110E-02    0.35       1.0  T
   5   -200.2576227 -0.153229E-04  0.563E-03    0.35       1.7  T
   6   -200.2576258 -0.306988E-05  0.170E-03    0.35       5.7  T
   7   -200.2576260 -0.212033E-06  0.996E-04    0.35       9.8  T
   8   -200.2576260 -0.412215E-07  0.653E-04    0.35      14.9  T
     SCC iter.                  ...        0 min,  0.099 sec
     gradient                   ...        0 min,  0.020 sec
 * total energy  :  -197.1185737 Eh     change       -0.4381007E-03 Eh
   gradient norm :     0.0071174 Eh/α   predicted    -0.4270173E-03 (  -2.53%)
   displ. norm   :     0.4075975 α      lambda       -0.6285862E-03
   maximum displ.:     0.2148446 α      in ANC's #7, #6, #4, ...

........................................................................
.............................. CYCLE   29 ..............................
........................................................................
   1   -200.2580343 -0.200258E+03  0.126E-01    0.35       0.0  T
   2   -200.2580496 -0.152543E-04  0.668E-02    0.35       1.0  T
   3   -200.2579588  0.907484E-04  0.263E-02    0.35       1.0  T
   4   -200.2580306 -0.718195E-04  0.134E-02    0.35       1.0  T
   5   -200.2580490 -0.183567E-04  0.890E-03    0.35       1.1  T
   6   -200.2580606 -0.115922E-04  0.233E-03    0.35       4.2  T
   7   -200.2580610 -0.417015E-06  0.142E-03    0.35       6.9  T
   8   -200.2580610 -0.242659E-07  0.105E-03    0.35       9.3  T
     SCC iter.                  ...        0 min,  0.099 sec
     gradient                   ...        0 min,  0.020 sec
 * total energy  :  -197.1188049 Eh     change       -0.2311390E-03 Eh
   gradient norm :     0.0083743 Eh/α   predicted    -0.3665099E-03 (  58.57%)
   displ. norm   :     0.4090941 α      lambda       -0.5825037E-03
   maximum displ.:     0.2237366 α      in ANC's #7, #6, #4, ...

........................................................................
.............................. CYCLE   30 ..............................
........................................................................
   1   -200.2589386 -0.200259E+03  0.104E-01    0.35       0.0  T
   2   -200.2589416 -0.308056E-05  0.544E-02    0.35       1.0  T
   3   -200.2586467  0.294971E-03  0.401E-02    0.34       1.0  T
   4   -200.2589404 -0.293770E-03  0.104E-02    0.35       1.0  T
   5   -200.2589517 -0.112806E-04  0.590E-03    0.35       1.7  T
   6   -200.2589549 -0.315504E-05  0.164E-03    0.35       6.0  T
   7   -200.2589550 -0.114212E-06  0.110E-03    0.35       8.8  T
   8   -200.2589550 -0.162028E-07  0.795E-04    0.35      12.3  T
     SCC iter.                  ...        0 min,  0.099 sec
     gradient                   ...        0 min,  0.020 sec
 * total energy  :  -197.1192885 Eh     change       -0.4836132E-03 Eh
   gradient norm :     0.0054117 Eh/α   predicted    -0.3399960E-03 ( -29.70%)
   displ. norm   :     0.6496417 α      lambda       -0.6618401E-03
   maximum displ.:     0.3592412 α      in ANC's #7, #6, #4, ...

........................................................................
.............................. CYCLE   31 ..............................
........................................................................
   1   -200.2592083 -0.200259E+03  0.142E-01    0.35       0.0  T
   2   -200.2592255 -0.171534E-04  0.735E-02    0.35       1.0  T
   3   -200.2591916  0.338622E-04  0.192E-02    0.35       1.0  T
   4   -200.2592074 -0.158046E-04  0.136E-02    0.34       1.0  T
   5   -200.2592113 -0.386274E-05  0.118E-02    0.35       1.0  T
   6   -200.2592336 -0.223394E-04  0.242E-03    0.35       4.0  T
   7   -200.2592340 -0.417254E-06  0.157E-03    0.35       6.2  T
   8   -200.2592341 -0.413071E-07  0.111E-03    0.35       8.8  T
     SCC iter.                  ...        0 min,  0.101 sec
     gradient                   ...        0 min,  0.020 sec
 * total energy  :  -197.1198363 Eh     change       -0.5478444E-03 Eh
   gradient norm :     0.0052593 Eh/α   predicted    -0.4705821E-03 ( -14.10%)
   displ. norm   :     0.7533121 α      lambda       -0.5900220E-03
   maximum displ.:     0.4236408 α      in ANC's #7, #6, #4, ...

........................................................................
.............................. CYCLE   32 ..............................
........................................................................
   1   -200.2593195 -0.200259E+03  0.150E-01    0.35       0.0  T
   2   -200.2593379 -0.183490E-04  0.769E-02    0.35       1.0  T
   3   -200.2592904  0.474848E-04  0.223E-02    0.35       1.0  T
   4   -200.2593180 -0.275700E-04  0.148E-02    0.35       1.0  T
   5   -200.2593179  0.725460E-07  0.135E-02    0.35       1.0  T
   6   -200.2593472 -0.293158E-04  0.303E-03    0.35       3.2  T
   7   -200.2593479 -0.676061E-06  0.186E-03    0.35       5.2  T
   8   -200.2593479 -0.467566E-08  0.136E-03    0.35       7.2  T
     SCC iter.                  ...        0 min,  0.101 sec
     gradient                   ...        0 min,  0.020 sec
 * total energy  :  -197.1203822 Eh     change       -0.5458099E-03 Eh
   gradient norm :     0.0052833 Eh/α   predicted    -0.4624235E-03 ( -15.28%)
   displ. norm   :     0.7795820 α      lambda       -0.6292285E-03
   maximum displ.:     0.4403622 α      in ANC's #7, #6, #4, ...

........................................................................
.............................. CYCLE   33 ..............................
........................................................................
   1   -200.2615200 -0.200262E+03  0.146E-01    0.35       0.0  T
   2   -200.2615287 -0.879272E-05  0.750E-02    0.35       1.0  T
   3   -200.2611424  0.386386E-03  0.463E-02    0.37       1.0  T
   4   -200.2615169 -0.374540E-03  0.160E-02    0.35       1.0  T
   5   -200.2615412 -0.243011E-04  0.914E-03    0.36       1.1  T
   6   -200.2615480 -0.676313E-05  0.297E-03    0.36       3.3  T
   7   -200.2615484 -0.473756E-06  0.190E-03    0.36       5.1  T
   8   -200.2615484 -0.765874E-08  0.139E-03    0.36       7.0  T
     SCC iter.                  ...        0 min,  0.101 sec
     gradient                   ...        0 min,  0.021 sec
 * total energy  :  -197.1209704 Eh     change       -0.5882410E-03 Eh
   gradient norm :     0.0042402 Eh/α   predicted    -0.5058212E-03 ( -14.01%)
   displ. norm   :     0.8148044 α      lambda       -0.6450429E-03
   maximum displ.:     0.4630761 α      in ANC's #7, #6, #4, ...

........................................................................
.............................. CYCLE   34 ..............................
........................................................................
   1   -200.2613665 -0.200261E+03  0.151E-01    0.36       0.0  T
   2   -200.2613837 -0.172395E-04  0.778E-02    0.37       1.0  T
   3   -200.2612562  0.127514E-03  0.305E-02    0.37       1.0  T
   4   -200.2613476 -0.914166E-04  0.181E-02    0.36       1.0  T
   5   -200.2613799 -0.322986E-04  0.113E-02    0.37       1.0  T
   6   -200.2613959 -0.159482E-04  0.333E-03    0.37       2.9  T
   7   -200.2613965 -0.654043E-06  0.204E-03    0.37       4.8  T
   8   -200.2613965 -0.625502E-08  0.150E-03    0.37       6.5  T
     SCC iter.                  ...        0 min,  0.100 sec
     gradient                   ...        0 min,  0.020 sec
 * total energy  :  -197.1215681 Eh     change       -0.5976999E-03 Eh
   gradient norm :     0.0035571 Eh/α   predicted    -0.5366475E-03 ( -10.21%)
   displ. norm   :     0.8264386 α      lambda       -0.6140550E-03
   maximum displ.:     0.4728051 α      in ANC's #7, #6, #4, ...

........................................................................
.............................. CYCLE   35 ..............................
........................................................................
   1   -200.2624327 -0.200262E+03  0.153E-01    0.37       0.0  T
   2   -200.2624546 -0.219814E-04  0.784E-02    0.38       1.0  T
   3   -200.2624313  0.233116E-04  0.198E-02    0.37       1.0  T
   4   -200.2624553 -0.239360E-04  0.114E-02    0.38       1.0  T
   5   -200.2624405  0.147629E-04  0.115E-02    0.38       1.0  T
   6   -200.2624617 -0.211933E-04  0.438E-03    0.38       2.2  T
   7   -200.2624642 -0.253150E-05  0.205E-03    0.38       4.8  T
   8   -200.2624643 -0.270293E-07  0.153E-03    0.38       6.4  T
   9   -200.2624643 -0.568585E-07  0.808E-04    0.38      12.1  T
  10   -200.2624643 -0.318946E-07  0.439E-04    0.38      22.3  T
     SCC iter.                  ...        0 min,  0.126 sec
     gradient                   ...        0 min,  0.022 sec
 * total energy  :  -197.1221361 Eh     change       -0.5679964E-03 Eh
   gradient norm :     0.0047182 Eh/α   predicted    -0.5167317E-03 (  -9.03%)
   displ. norm   :     0.8378388 α      lambda       -0.5943102E-03
   maximum displ.:     0.4797479 α      in ANC's #7, #6, #4, ...

........................................................................
.............................. CYCLE   36 ..............................
........................................................................
   1   -200.2626747 -0.200263E+03  0.155E-01    0.38       0.0  T
   2   -200.2626849 -0.102014E-04  0.794E-02    0.40       1.0  T
   3   -200.2621616  0.523299E-03  0.534E-02    0.37       1.0  T
   4   -200.2626769 -0.515312E-03  0.170E-02    0.39       1.0  T
   5   -200.2627048 -0.279384E-04  0.918E-03    0.39       1.1  T
   6   -200.2627106 -0.574812E-05  0.353E-03    0.39       2.8  T
   7   -200.2627115 -0.914771E-06  0.199E-03    0.39       4.9  T
   8   -200.2627115 -0.515316E-07  0.149E-03    0.39       6.5  T
     SCC iter.                  ...        0 min,  0.100 sec
     gradient                   ...        0 min,  0.020 sec
 * total energy  :  -197.1226889 Eh     change       -0.5527733E-03 Eh
   gradient norm :     0.0041455 Eh/α   predicted    -0.5057558E-03 (  -8.51%)
   displ. norm   :     0.8538192 α      lambda       -0.6106684E-03
   maximum displ.:     0.4897389 α      in ANC's #7, #6, #4, ...

........................................................................
.............................. CYCLE   37 ..............................
........................................................................
   1   -200.2631000 -0.200263E+03  0.159E-01    0.39       0.0  T
   2   -200.2630804  0.195473E-04  0.828E-02    0.41       1.0  T
   3   -200.2615277  0.155278E-02  0.893E-02    0.37       1.0  T
   4   -200.2631309 -0.160320E-02  0.149E-02    0.40       1.0  T
   5   -200.2631437 -0.128510E-04  0.873E-03    0.40       1.1  T
   6   -200.2631475 -0.381833E-05  0.341E-03    0.40       2.9  T
   7   -200.2631482 -0.701423E-06  0.203E-03    0.40       4.8  T
   8   -200.2631483 -0.533903E-07  0.151E-03    0.40       6.5  T
     SCC iter.                  ...        0 min,  0.098 sec
     gradient                   ...        0 min,  0.020 sec
 * total energy  :  -197.1232526 Eh     change       -0.5637417E-03 Eh
   gradient norm :     0.0061164 Eh/α   predicted    -0.5279321E-03 (  -6.35%)
   displ. norm   :     0.8626753 α      lambda       -0.6365883E-03
   maximum displ.:     0.4899468 α      in ANC's #7, #6, #4, ...

........................................................................
.............................. CYCLE   38 ..............................
........................................................................
   1   -200.2656314 -0.200266E+03  0.159E-01    0.39       0.0  T
   2   -200.2655621  0.692984E-04  0.848E-02    0.42       1.0  T
   3   -200.2628525  0.270968E-02  0.118E-01    0.37       1.0  T
   4   -200.2656794 -0.282696E-02  0.146E-02    0.41       1.0  T
   5   -200.2656892 -0.977574E-05  0.867E-03    0.41       1.1  T
   6   -200.2656924 -0.319898E-05  0.339E-03    0.41       2.9  T
   7   -200.2656931 -0.731597E-06  0.195E-03    0.41       5.0  T
   8   -200.2656932 -0.741480E-07  0.145E-03    0.41       6.7  T
     SCC iter.                  ...        0 min,  0.101 sec
     gradient                   ...        0 min,  0.020 sec
 * total energy  :  -197.1238423 Eh     change       -0.5896670E-03 Eh
   gradient norm :     0.0046816 Eh/α   predicted    -0.5551750E-03 (  -5.85%)
   displ. norm   :     0.8760657 α      lambda       -0.6515281E-03
   maximum displ.:     0.4883767 α      in ANC's #7, #3, #4, ...

........................................................................
.............................. CYCLE   39 ..............................
........................................................................
   1   -200.2649634 -0.200265E+03  0.165E-01    0.40       0.0  T
   2   -200.2648550  0.108367E-03  0.900E-02    0.43       1.0  T
   3   -200.2613682  0.348686E-02  0.134E-01    0.37       1.0  T
   4   -200.2650199 -0.365169E-02  0.159E-02    0.41       1.0  T
   5   -200.2650337 -0.137814E-04  0.907E-03    0.41       1.1  T
   6   -200.2650370 -0.329349E-05  0.359E-03    0.42       2.7  T
   7   -200.2650378 -0.847426E-06  0.198E-03    0.41       4.9  T
   8   -200.2650379 -0.123818E-06  0.142E-03    0.41       6.9  T
     SCC iter.                  ...        0 min,  0.102 sec
     gradient                   ...        0 min,  0.020 sec
 * total energy  :  -197.1244504 Eh     change       -0.6081077E-03 Eh
   gradient norm :     0.0058857 Eh/α   predicted    -0.5757864E-03 (  -5.32%)
   displ. norm   :     0.8519357 α      lambda       -0.6513700E-03
   maximum displ.:     0.4547181 α      in ANC's #7, #3, #4, ...

........................................................................
.............................. CYCLE   40 ..............................
........................................................................
   1   -200.2668460 -0.200267E+03  0.161E-01    0.40       0.0  T
   2   -200.2667440  0.102036E-03  0.888E-02    0.43       1.0  T
   3   -200.2634936  0.325034E-02  0.130E-01    0.37       1.0  T
   4   -200.2668880 -0.339441E-02  0.189E-02    0.42       1.0  T
   5   -200.2669190 -0.309627E-04  0.906E-03    0.41       1.1  T
   6   -200.2669221 -0.305753E-05  0.354E-03    0.42       2.8  T
   7   -200.2669228 -0.771391E-06  0.189E-03    0.41       5.2  T
   8   -200.2669230 -0.183267E-06  0.129E-03    0.41       7.5  T
     SCC iter.                  ...        0 min,  0.101 sec
     gradient                   ...        0 min,  0.020 sec
 * total energy  :  -197.1250423 Eh     change       -0.5919202E-03 Eh
   gradient norm :     0.0055520 Eh/α   predicted    -0.5620673E-03 (  -5.04%)
   displ. norm   :     0.8530411 α      lambda       -0.6113448E-03
   maximum displ.:     0.4570859 α      in ANC's #7, #3, #4, ...

........................................................................
.............................. CYCLE   41 ..............................
........................................................................
   1   -200.2642002 -0.200264E+03  0.161E-01    0.41       0.0  T
   2   -200.2641863  0.138760E-04  0.854E-02    0.42       1.0  T
   3   -200.2627705  0.141585E-02  0.874E-02    0.39       1.0  T
   4   -200.2641887 -0.141815E-02  0.222E-02    0.42       1.0  T
   5   -200.2642521 -0.634905E-04  0.938E-03    0.42       1.0  T
   6   -200.2642561 -0.393382E-05  0.347E-03    0.42       2.8  T
   7   -200.2642567 -0.613481E-06  0.198E-03    0.42       4.9  T
   8   -200.2642568 -0.828825E-07  0.146E-03    0.42       6.7  T
     SCC iter.                  ...        0 min,  0.100 sec
     gradient                   ...        0 min,  0.020 sec
 * total energy  :  -197.1255970 Eh     change       -0.5546650E-03 Eh
   gradient norm :     0.0057396 Eh/α   predicted    -0.5281087E-03 (  -4.79%)
   displ. norm   :     0.8235229 α      lambda       -0.5837497E-03
   maximum displ.:     0.4276289 α      in ANC's #7, #3, #4, ...

........................................................................
.............................. CYCLE   42 ..............................
........................................................................
   1   -200.2647222 -0.200265E+03  0.144E-01    0.42       0.0  T
   2   -200.2647407 -0.185242E-04  0.768E-02    0.42       1.0  T
   3   -200.2644434  0.297351E-03  0.467E-02    0.41       1.0  T
   4   -200.2646685 -0.225135E-03  0.238E-02    0.43       1.0  T
   5   -200.2647562 -0.877196E-04  0.102E-02    0.42       1.0  T
   6   -200.2647669 -0.106695E-04  0.315E-03    0.42       3.1  T
   7   -200.2647674 -0.492233E-06  0.182E-03    0.42       5.4  T
   8   -200.2647674 -0.639942E-07  0.137E-03    0.42       7.1  T
     SCC iter.                  ...        0 min,  0.101 sec
     gradient                   ...        0 min,  0.020 sec
 * total energy  :  -197.1261174 Eh     change       -0.5204010E-03 Eh
   gradient norm :     0.0063464 Eh/α   predicted    -0.4898291E-03 (  -5.87%)
   displ. norm   :     0.8166612 α      lambda       -0.5704427E-03
   maximum displ.:     0.4240764 α      in ANC's #7, #3, #4, ...
 * RMSD in coord.:     1.2101021 α      energy gain  -0.9575748E-02 Eh

generating ANC from model Hessian ...
Using Lindh-Hessian (1995)
 Shifting diagonal of input Hessian by   5.009994397568459E-003
 Lowest  eigenvalues of input Hessian
    0.005000    0.000000    0.000000    0.000000    0.000000    0.000000
    0.000000    0.005034    0.005040    0.005071    0.005147    0.005174
    0.005195    0.005246    0.005503    0.005696    0.005762    0.005773
 Highest eigenvalues
    2.272075    2.286450    2.601233    2.601621    2.653362    2.654526
 

........................................................................
.............................. CYCLE   43 ..............................
........................................................................
   1   -200.2668220 -0.200267E+03  0.151E-01    0.42       0.0  T
   2   -200.2668401 -0.181106E-04  0.788E-02    0.42       1.0  T
   3   -200.2666127  0.227457E-03  0.420E-02    0.43       1.0  T
   4   -200.2667823 -0.169684E-03  0.220E-02    0.42       1.0  T
   5   -200.2668504 -0.680960E-04  0.109E-02    0.43       1.0  T
   6   -200.2668625 -0.120847E-04  0.327E-03    0.42       3.0  T
   7   -200.2668630 -0.443603E-06  0.216E-03    0.42       4.5  T
   8   -200.2668630 -0.444166E-07  0.159E-03    0.42       6.1  T
   9   -200.2668631 -0.482124E-07  0.860E-04    0.42      11.3  T
  10   -200.2668631 -0.134023E-07  0.496E-04    0.42      19.7  T
     SCC iter.                  ...        0 min,  0.125 sec
     gradient                   ...        0 min,  0.022 sec
 * total energy  :  -197.1266143 Eh     change       -0.4969542E-03 Eh
   gradient norm :     0.0072978 Eh/α   predicted     0.0000000E+00 (-100.00%)
   displ. norm   :     0.1483682 α      lambda       -0.1847140E-03
   maximum displ.:     0.0815960 α      in ANC's #2, #1, #4, ...

........................................................................
.............................. CYCLE   44 ..............................
........................................................................
   1   -200.2667536 -0.200267E+03  0.616E-02    0.42       0.0  T
   2   -200.2667519  0.176576E-05  0.330E-02    0.42       1.0  T
   3   -200.2665424  0.209443E-03  0.330E-02    0.43       1.0  T
   4   -200.2667569 -0.214503E-03  0.594E-03    0.42       1.6  T
   5   -200.2667604 -0.351558E-05  0.302E-03    0.42       3.2  T
   6   -200.2667609 -0.464251E-06  0.103E-03    0.42       9.5  T
   7   -200.2667610 -0.446490E-07  0.676E-04    0.42      14.4  T
     SCC iter.                  ...        0 min,  0.087 sec
     gradient                   ...        0 min,  0.020 sec
 * total energy  :  -197.1267450 Eh     change       -0.1307001E-03 Eh
   gradient norm :     0.0043219 Eh/α   predicted    -0.9444694E-04 ( -27.74%)
   displ. norm   :     0.2022407 α      lambda       -0.2961719E-03
   maximum displ.:     0.0802578 α      in ANC's #2, #1, #12, ...

........................................................................
.............................. CYCLE   45 ..............................
........................................................................
   1   -200.2672728 -0.200267E+03  0.933E-02    0.42       0.0  T
   2   -200.2672572  0.156192E-04  0.504E-02    0.42       1.0  T
   3   -200.2664911  0.766038E-03  0.632E-02    0.44       1.0  T
   4   -200.2672834 -0.792245E-03  0.969E-03    0.42       1.0  T
   5   -200.2672911 -0.778166E-05  0.541E-03    0.42       1.8  T
   6   -200.2672924 -0.129079E-05  0.225E-03    0.42       4.3  T
   7   -200.2672927 -0.227079E-06  0.148E-03    0.42       6.6  T
     SCC iter.                  ...        0 min,  0.087 sec
     gradient                   ...        0 min,  0.020 sec
 * total energy  :  -197.1268367 Eh     change       -0.9168729E-04 Eh
   gradient norm :     0.0106145 Eh/α   predicted    -0.1541443E-03 (  68.12%)
   displ. norm   :     0.1620755 α      lambda       -0.2367132E-03
   maximum displ.:     0.0782308 α      in ANC's #2, #1, #4, ...

........................................................................
.............................. CYCLE   46 ..............................
........................................................................
   1   -200.2688745 -0.200269E+03  0.586E-02    0.42       0.0  T
   2   -200.2688731  0.146426E-05  0.321E-02    0.42       1.0  T
   3   -200.2686995  0.173577E-03  0.307E-02    0.43       1.0  T
   4   -200.2688767 -0.177188E-03  0.519E-03    0.42       1.9  T
   5   -200.2688794 -0.270171E-05  0.286E-03    0.42       3.4  T
   6   -200.2688800 -0.567698E-06  0.112E-03    0.42       8.7  T
     SCC iter.                  ...        0 min,  0.075 sec
     gradient                   ...        0 min,  0.020 sec
 * total energy  :  -197.1270084 Eh     change       -0.1717217E-03 Eh
   gradient norm :     0.0056218 Eh/α   predicted    -0.1214715E-03 ( -29.26%)
   displ. norm   :     0.3581621 α      lambda       -0.3914769E-03
   maximum displ.:     0.1681878 α      in ANC's #2, #1, #4, ...

........................................................................
.............................. CYCLE   47 ..............................
........................................................................
   1   -200.2686087 -0.200269E+03  0.123E-01    0.42       0.0  T
   2   -200.2686201 -0.113611E-04  0.671E-02    0.42       1.0  T
   3   -200.2684642  0.155870E-03  0.317E-02    0.43       1.0  T
   4   -200.2686019 -0.137680E-03  0.135E-02    0.42       1.0  T
   5   -200.2686251 -0.232076E-04  0.692E-03    0.42       1.4  T
   6   -200.2686306 -0.554011E-05  0.258E-03    0.42       3.8  T
   7   -200.2686313 -0.672542E-06  0.130E-03    0.42       7.5  T
   8   -200.2686313 -0.310993E-07  0.938E-04    0.42      10.4  T
     SCC iter.                  ...        0 min,  0.107 sec
     gradient                   ...        0 min,  0.020 sec
 * total energy  :  -197.1270710 Eh     change       -0.6255422E-04 Eh
   gradient norm :     0.0112725 Eh/α   predicted    -0.2208499E-03 ( 253.05%)
   displ. norm   :     0.2507733 α      lambda       -0.4287733E-03
   maximum displ.:     0.1180164 α      in ANC's #2, #1, #4, ...

........................................................................
.............................. CYCLE   48 ..............................
........................................................................
   1   -200.2679032 -0.200268E+03  0.975E-02    0.42       0.0  T
   2   -200.2678971  0.612731E-05  0.513E-02    0.42       1.0  T
   3   -200.2673665  0.530601E-03  0.529E-02    0.44       1.0  T
   4   -200.2679149 -0.548413E-03  0.848E-03    0.42       1.2  T
   5   -200.2679185 -0.362208E-05  0.545E-03    0.42       1.8  T
   6   -200.2679210 -0.241348E-05  0.142E-03    0.42       6.9  T
   7   -200.2679211 -0.171241E-06  0.630E-04    0.42      15.5  T
     SCC iter.                  ...        0 min,  0.088 sec
     gradient                   ...        0 min,  0.020 sec
 * total energy  :  -197.1273012 Eh     change       -0.2302115E-03 Eh
   gradient norm :     0.0091105 Eh/α   predicted    -0.2278701E-03 (  -1.02%)
   displ. norm   :     0.3025343 α      lambda       -0.4097999E-03
   maximum displ.:     0.1464213 α      in ANC's #2, #1, #4, ...

........................................................................
.............................. CYCLE   49 ..............................
........................................................................
   1   -200.2641524 -0.200264E+03  0.129E-01    0.42       0.0  T
   2   -200.2641650 -0.126167E-04  0.687E-02    0.42       1.0  T
   3   -200.2639610  0.204007E-03  0.344E-02    0.43       1.0  T
   4   -200.2641557 -0.194660E-03  0.128E-02    0.42       1.0  T
   5   -200.2641750 -0.193508E-04  0.652E-03    0.42       1.5  T
   6   -200.2641788 -0.377992E-05  0.143E-03    0.42       6.8  T
   7   -200.2641790 -0.146721E-06  0.762E-04    0.42      12.8  T
   8   -200.2641790 -0.142240E-07  0.472E-04    0.42      20.7  T
     SCC iter.                  ...        0 min,  0.100 sec
     gradient                   ...        0 min,  0.020 sec
 * total energy  :  -197.1273410 Eh     change       -0.3977763E-04 Eh
   gradient norm :     0.0119057 Eh/α   predicted    -0.2236589E-03 ( 462.27%)
   displ. norm   :     0.1978190 α      lambda       -0.4049607E-03
   maximum displ.:     0.0994409 α      in ANC's #2, #1, #4, ...

........................................................................
.............................. CYCLE   50 ..............................
........................................................................
   1   -200.2672401 -0.200267E+03  0.673E-02    0.42       0.0  T
   2   -200.2672444 -0.427689E-05  0.366E-02    0.42       1.0  T
   3   -200.2672399  0.447801E-05  0.850E-03    0.42       1.1  T
   4   -200.2672461 -0.612537E-05  0.329E-03    0.42       3.0  T
   5   -200.2672455  0.526028E-06  0.243E-03    0.42       4.0  T
   6   -200.2672462 -0.650264E-06  0.149E-03    0.42       6.5  T
     SCC iter.                  ...        0 min,  0.076 sec
     gradient                   ...        0 min,  0.020 sec
 * total energy  :  -197.1276125 Eh     change       -0.2715252E-03 Eh
   gradient norm :     0.0053351 Eh/α   predicted    -0.2104052E-03 ( -22.51%)
   displ. norm   :     0.4000121 α      lambda       -0.2680883E-03
   maximum displ.:     0.2186688 α      in ANC's #2, #1, #4, ...

........................................................................
.............................. CYCLE   51 ..............................
........................................................................
   1   -200.2673885 -0.200267E+03  0.104E-01    0.42       0.0  T
   2   -200.2673966 -0.810276E-05  0.546E-02    0.42       1.0  T
   3   -200.2673434  0.531687E-04  0.214E-02    0.42       1.0  T
   4   -200.2673802 -0.367518E-04  0.123E-02    0.42       1.0  T
   5   -200.2673916 -0.114024E-04  0.864E-03    0.42       1.1  T
   6   -200.2674027 -0.110934E-04  0.148E-03    0.42       6.6  T
   7   -200.2674028 -0.130276E-06  0.850E-04    0.42      11.5  T
   8   -200.2674028 -0.148384E-07  0.622E-04    0.42      15.7  T
     SCC iter.                  ...        0 min,  0.101 sec
     gradient                   ...        0 min,  0.020 sec
 * total energy  :  -197.1278237 Eh     change       -0.2111674E-03 Eh
   gradient norm :     0.0047417 Eh/α   predicted    -0.1554957E-03 ( -26.36%)
   displ. norm   :     0.4978199 α      lambda       -0.2978464E-03
   maximum displ.:     0.2774276 α      in ANC's #2, #1, #4, ...

........................................................................
.............................. CYCLE   52 ..............................
........................................................................
   1   -200.2690829 -0.200269E+03  0.118E-01    0.42       0.0  T
   2   -200.2690872 -0.427112E-05  0.633E-02    0.42       1.0  T
   3   -200.2687456  0.341530E-03  0.462E-02    0.41       1.0  T
   4   -200.2690605 -0.314894E-03  0.174E-02    0.42       1.0  T
   5   -200.2691027 -0.421350E-04  0.760E-03    0.42       1.3  T
   6   -200.2691074 -0.478119E-05  0.190E-03    0.42       5.1  T
   7   -200.2691077 -0.218958E-06  0.959E-04    0.42      10.2  T
   8   -200.2691077 -0.224654E-07  0.680E-04    0.42      14.4  T
     SCC iter.                  ...        0 min,  0.102 sec
     gradient                   ...        0 min,  0.021 sec
 * total energy  :  -197.1280437 Eh     change       -0.2200137E-03 Eh
   gradient norm :     0.0060476 Eh/α   predicted    -0.1858336E-03 ( -15.54%)
   displ. norm   :     0.5485014 α      lambda       -0.3442378E-03
   maximum displ.:     0.3106170 α      in ANC's #2, #1, #4, ...

........................................................................
.............................. CYCLE   53 ..............................
........................................................................
   1   -200.2696629 -0.200270E+03  0.124E-01    0.41       0.0  T
   2   -200.2696413  0.216264E-04  0.681E-02    0.42       1.0  T
   3   -200.2685942  0.104704E-02  0.769E-02    0.40       1.0  T
   4   -200.2696520 -0.105776E-02  0.184E-02    0.42       1.0  T
   5   -200.2696953 -0.433072E-04  0.735E-03    0.42       1.3  T
   6   -200.2696979 -0.261078E-05  0.239E-03    0.42       4.1  T
   7   -200.2696983 -0.376490E-06  0.120E-03    0.42       8.1  T
     SCC iter.                  ...        0 min,  0.093 sec
     gradient                   ...        0 min,  0.022 sec
 * total energy  :  -197.1283144 Eh     change       -0.2707238E-03 Eh
   gradient norm :     0.0064940 Eh/α   predicted    -0.2239053E-03 ( -17.29%)
   displ. norm   :     0.5683166 α      lambda       -0.3175150E-03
   maximum displ.:     0.3273014 α      in ANC's #2, #1, #4, ...

........................................................................
.............................. CYCLE   54 ..............................
........................................................................
   1   -200.2676513 -0.200268E+03  0.126E-01    0.41       0.0  T
   2   -200.2676445  0.679931E-05  0.684E-02    0.42       1.0  T
   3   -200.2669082  0.736299E-03  0.652E-02    0.40       1.0  T
   4   -200.2676331 -0.724887E-03  0.188E-02    0.42       1.0  T
   5   -200.2676804 -0.473467E-04  0.766E-03    0.42       1.3  T
   6   -200.2676838 -0.332816E-05  0.235E-03    0.42       4.1  T
   7   -200.2676841 -0.351745E-06  0.122E-03    0.42       8.0  T
   8   -200.2676842 -0.570930E-07  0.851E-04    0.42      11.5  T
     SCC iter.                  ...        0 min,  0.101 sec
     gradient                   ...        0 min,  0.020 sec
 * total energy  :  -197.1285923 Eh     change       -0.2778913E-03 Eh
   gradient norm :     0.0059484 Eh/α   predicted    -0.2100409E-03 ( -24.42%)
   displ. norm   :     0.5547786 α      lambda       -0.3195951E-03
   maximum displ.:     0.3260731 α      in ANC's #2, #1, #4, ...

........................................................................
.............................. CYCLE   55 ..............................
........................................................................
   1   -200.2691876 -0.200269E+03  0.111E-01    0.41       0.0  T
   2   -200.2691835  0.408979E-05  0.611E-02    0.42       1.0  T
   3   -200.2686216  0.561937E-03  0.579E-02    0.40       1.0  T
   4   -200.2691588 -0.537178E-03  0.193E-02    0.42       1.0  T
   5   -200.2692146 -0.558482E-04  0.639E-03    0.41       1.5  T
   6   -200.2692166 -0.201209E-05  0.211E-03    0.41       4.6  T
   7   -200.2692169 -0.250956E-06  0.112E-03    0.41       8.7  T
     SCC iter.                  ...        0 min,  0.089 sec
     gradient                   ...        0 min,  0.020 sec
 * total energy  :  -197.1288700 Eh     change       -0.2776667E-03 Eh
   gradient norm :     0.0061704 Eh/α   predicted    -0.2089822E-03 ( -24.74%)
   displ. norm   :     0.6284352 α      lambda       -0.3192591E-03
   maximum displ.:     0.3733260 α      in ANC's #2, #1, #4, ...

........................................................................
.............................. CYCLE   56 ..............................
........................................................................
   1   -200.2682944 -0.200268E+03  0.125E-01    0.41       0.0  T
   2   -200.2682999 -0.544508E-05  0.680E-02    0.42       1.0  T
   3   -200.2679050  0.394841E-03  0.506E-02    0.40       1.0  T
   4   -200.2682539 -0.348877E-03  0.213E-02    0.42       1.0  T
   5   -200.2683229 -0.690038E-04  0.769E-03    0.41       1.3  T
   6   -200.2683269 -0.397509E-05  0.242E-03    0.41       4.0  T
   7   -200.2683272 -0.352720E-06  0.133E-03    0.41       7.4  T
   8   -200.2683273 -0.347748E-07  0.954E-04    0.41      10.2  T
     SCC iter.                  ...        0 min,  0.101 sec
     gradient                   ...        0 min,  0.020 sec
 * total energy  :  -197.1291538 Eh     change       -0.2838604E-03 Eh
   gradient norm :     0.0057681 Eh/α   predicted    -0.2226746E-03 ( -21.55%)
   displ. norm   :     0.6469474 α      lambda       -0.3237292E-03
   maximum displ.:     0.3927291 α      in ANC's #2, #1, #4, ...

........................................................................
.............................. CYCLE   57 ..............................
........................................................................
   1   -200.2695346 -0.200270E+03  0.123E-01    0.41       0.0  T
   2   -200.2695452 -0.105579E-04  0.669E-02    0.42       1.0  T
   3   -200.2693149  0.230254E-03  0.415E-02    0.40       1.0  T
   4   -200.2695037 -0.188812E-03  0.194E-02    0.42       1.0  T
   5   -200.2695600 -0.563199E-04  0.789E-03    0.41       1.2  T
   6   -200.2695658 -0.573539E-05  0.236E-03    0.42       4.1  T
   7   -200.2695662 -0.396497E-06  0.122E-03    0.41       8.0  T
   8   -200.2695662 -0.269430E-07  0.869E-04    0.41      11.2  T
     SCC iter.                  ...        0 min,  0.099 sec
     gradient                   ...        0 min,  0.020 sec
 * total energy  :  -197.1294389 Eh     change       -0.2851264E-03 Eh
   gradient norm :     0.0051049 Eh/α   predicted    -0.2296157E-03 ( -19.47%)
   displ. norm   :     0.6899818 α      lambda       -0.3234400E-03
[...]
    31   6 C      3.753    -0.099    22.445     6.756
    32   6 C      3.105    -0.011    28.154     8.694
    33   6 C      3.116     0.003    27.806     8.637
    34   6 C      2.942    -0.017    28.435     8.746
    35  16 S      2.221     0.003   140.925    19.980
    36   6 C      3.033     0.017    27.595     8.616
    37   6 C      2.909    -0.020    28.505     8.755
    38   6 C      2.907    -0.053    29.326     8.880
    39   6 C      2.932     0.169    24.369     8.096
    40   7 N      1.842    -0.232    26.929     7.691
    41   6 C      2.909     0.075    26.334     8.415
    42   6 C      2.926     0.070    26.440     8.433
    43   7 N      2.324    -0.084    23.086     7.133
    44   7 N      1.930    -0.153    25.085     7.426
    45   6 C      2.959    -0.056    29.392     8.892
    46   6 C      2.992     0.052    26.823     8.496
    47   6 C      3.055    -0.034    28.791     8.800
    48   6 C      3.035    -0.031    28.726     8.791
    49   6 C      3.041     0.021    27.502     8.601
    50  16 S      2.690    -0.023   142.014    20.057
    51   6 C      3.030     0.032    27.247     8.562
    52   6 C      3.058    -0.033    28.753     8.794
    53   6 C      3.078    -0.032    28.706     8.784
    54   6 C      2.976     0.050    26.879     8.504
    55  16 S      2.366    -0.020   141.875    20.047
    56   6 C      2.921    -0.038    28.947     8.823
    57   6 C      2.898    -0.012    28.313     8.724
    58   6 C      3.004    -0.033    28.800     8.803
    59   6 C      3.019     0.029    27.342     8.577
    60   6 C      2.957     0.007    27.874     8.660
    61   6 C      1.934     0.123    28.072     8.556
    62   7 N      0.911    -0.242    26.311     7.419
    63   6 C      1.938     0.124    28.048     8.553
    64   7 N      0.911    -0.252    26.540     7.451
    65   6 C      3.041     0.006    27.838     8.654
    66   6 C      3.037    -0.024    28.556     8.765
    67   6 C      2.878     0.223    23.310     7.915
    68   8 O      0.856    -0.365    20.994     6.143
    69   6 C      2.910    -0.020    28.511     8.756
    70   6 C      3.151     0.006    27.598     8.592
    71   6 C      3.008     0.030    27.323     8.574
    72   6 C      2.932    -0.037    28.914     8.818
    73  16 S      2.394    -0.005   141.247    20.003
    74   6 C      2.934     0.087    26.069     8.374
    75   6 C      3.103    -0.055    29.219     8.858
    76  35 Br     1.140    -0.124   188.476    22.136
    77   1 H      0.926     0.069     2.093     2.263
    78   1 H      0.926     0.066     2.127     2.281
    79   1 H      0.926     0.070     2.088     2.260
    80   1 H      0.926     0.077     2.008     2.216
    81   1 H      0.926     0.073     2.056     2.242
    82   1 H      0.924     0.040     2.450     2.448
    83   1 H      0.924     0.046     2.369     2.407
    84   1 H      0.925     0.042     2.420     2.433
    85   1 H      0.925     0.039     2.466     2.456
    86   1 H      0.925     0.036     2.498     2.472
    87   1 H      0.925     0.043     2.410     2.428
    88   1 H      0.925     0.046     2.372     2.409
    89   1 H      0.925     0.040     2.453     2.449
    90   1 H      0.925     0.042     2.424     2.435
    91   1 H      0.925     0.035     2.517     2.481
    92   1 H      0.926     0.059     2.213     2.326
    93   1 H      0.926     0.082     1.963     2.191
    94   1 H      0.926     0.058     2.223     2.331
    95   1 H      0.925     0.044     2.400     2.423
    96   1 H      0.926     0.050     2.323     2.383
    97   1 H      0.926     0.053     2.286     2.364
    98   1 H      0.926     0.050     2.316     2.380
    99   1 H      0.926     0.054     2.267     2.354
   100   1 H      0.926     0.060     2.204     2.322
   101   1 H      0.925     0.063     2.169     2.303
   102   1 H      0.925     0.077     2.005     2.215
   103   1 H      0.926     0.074     2.045     2.236
   104   1 H      0.926     0.064     2.150     2.293
   105   1 H      0.926     0.071     2.079     2.255

 Mol. C6AA /au·bohr⁶  :     244886.728152
 Mol. C8AA /au·bohr⁸  :    7466317.938362
 Mol. α(0) /au        :        797.828094


Wiberg/Mayer (AO) data.
largest (>0.10) Wiberg bond orders for each atom
          total WBO             WBO to atom ...
     1  C   3.970        C    2 1.488    C   19 1.125    C    7 1.096
     2  C   3.956        C    1 1.488    C    5 1.099    C    3 1.096
     3  C   3.946        N    4 2.768    C    2 1.096
     4  N   2.972        C    3 2.768
     5  C   3.946        N    6 2.755    C    2 1.099
     6  N   2.965        C    5 2.755
     7  C   3.980        C   12 1.422    C    8 1.246    C    1 1.096
     8  C   3.979        C    9 1.471    C    7 1.246    C   17 1.021
     9  C   3.972        C    8 1.471    C   10 1.317    H   77 0.962
    10  C   3.974        C    9 1.317    C   11 1.265    C   15 1.204
    11  C   3.950        C   12 1.381    C   10 1.265    S   13 1.120
    12  C   3.972        C    7 1.422    C   11 1.381    H   78 0.958
    13  S   2.559        C   14 1.134    C   11 1.120
    14  C   3.901        C   15 1.608    S   13 1.134    Br  16 1.030
    15  C   3.974        C   14 1.608    C   10 1.204    H   79 0.959
    16  Br  1.170        C   14 1.030
    17  C   3.927        O   18 1.771    C   19 1.022    C    8 1.021
    18  O   2.057        C   17 1.771
    19  C   3.974        C   20 1.588    C    1 1.125    C   17 1.022
    20  C   3.955        C   19 1.588    C   21 1.160    H   80 0.933
    21  C   3.976        C   22 1.507    C   20 1.160    C   25 1.138
    22  C   3.937        C   21 1.507    S   23 1.238    H   81 0.965
    23  S   2.633        C   22 1.238    C   24 1.095
    24  C   3.953        C   36 1.329    C   25 1.321    S   23 1.095
    25  C   3.976        C   24 1.321    C   26 1.280    C   21 1.138
    26  C   3.978        C   29 1.467    C   25 1.280    C   27 1.011
    27  C   3.994        C   26 1.011    C   28 1.001    H   83 0.965    H   82 0.959
    28  C   3.992        C   27 1.001    H   85 0.986    H   84 0.978    H   86 0.978
    29  C   3.977        C   26 1.467    C   32 1.279    C   30 1.012
    30  C   3.995        C   29 1.012    C   31 1.000    H   88 0.966    H   87 0.954
    31  C   3.992        C   30 1.000    H   91 0.987    H   90 0.985    H   89 0.981
    32  C   3.974        C   36 1.313    C   29 1.279    C   33 1.144
    33  C   3.977        C   34 1.545    C   32 1.144    C   37 1.126
    34  C   3.928        C   33 1.545    S   35 1.204    H   92 0.966
    35  S   2.608        C   34 1.204    C   36 1.106
    36  C   3.952        C   24 1.329    C   32 1.313    S   35 1.106
    37  C   3.948        C   38 1.704    C   33 1.126    H   93 0.940
    38  C   3.973        C   37 1.704    C   39 1.137    H   94 0.961
    39  C   3.929        N   44 1.350    N   40 1.272    C   38 1.137
    40  N   3.058        C   41 1.564    C   39 1.272
    41  C   3.949        N   40 1.564    C   42 1.245    H   95 0.959
    42  C   3.962        N   43 1.326    C   41 1.245    C   45 1.201
    43  N   3.242        N   44 1.435    C   42 1.326    S   50 0.227
    44  N   3.059        N   43 1.435    C   39 1.350
    45  C   3.882        C   46 1.510    C   42 1.201    H   96 0.961
    46  C   3.949        C   45 1.510    C   47 1.197    S   50 1.100
    47  C   3.917        C   48 1.619    C   46 1.197    H   97 0.964
    48  C   3.965        C   47 1.619    C   49 1.221    H   98 0.963
    49  C   3.935        C   51 1.409    C   48 1.221    S   50 1.088
    50  S   2.733        C   46 1.100    C   49 1.088    N   43 0.227
    51  C   3.937        C   49 1.409    C   52 1.239    S   55 1.084
    52  C   3.955        C   53 1.594    C   51 1.239    H   99 0.961
    53  C   3.925        C   52 1.594    C   54 1.221    H  100 0.962
    54  C   3.943        C   56 1.422    C   53 1.221    S   55 1.121
    55  S   2.589        C   54 1.121    C   51 1.084
    56  C   3.908        C   54 1.422    C   57 1.353    H  101 0.951
    57  C   3.947        C   58 1.453    C   56 1.353    H  102 0.948
    58  C   3.896        C   57 1.453    C   59 1.191    C   67 1.021
    59  C   3.971        C   60 1.429    C   58 1.191    C   65 1.075
    60  C   3.952        C   59 1.429    C   63 1.105    C   61 1.104
    61  C   3.946        N   62 2.759    C   60 1.104
    62  N   2.965        C   61 2.759
    63  C   3.946        N   64 2.754    C   60 1.105
    64  N   2.971        C   63 2.754
    65  C   3.978        C   72 1.437    C   66 1.248    C   59 1.075
    66  C   3.977        C   69 1.477    C   65 1.248    C   67 1.015
    67  C   3.921        O   68 1.773    C   58 1.021    C   66 1.015
    68  O   2.037        C   67 1.773
    69  C   3.970        C   66 1.477    C   70 1.309    H  103 0.961
    70  C   3.974        C   69 1.309    C   71 1.276    C   75 1.199
    71  C   3.948        C   72 1.368    C   70 1.276    S   73 1.114
    72  C   3.972        C   65 1.437    C   71 1.368    H  104 0.959
    73  S   2.551        C   74 1.127    C   71 1.114
    74  C   3.898        C   75 1.617    S   73 1.127    Br  76 1.021
    75  C   3.976        C   74 1.617    C   70 1.199    H  105 0.958
    76  Br  1.164        C   74 1.021
    77  H   0.995        C    9 0.962
    78  H   0.995        C   12 0.958
    79  H   0.995        C   15 0.959
    80  H   0.993        C   20 0.933
    81  H   0.994        C   22 0.965
    82  H   0.998        C   27 0.959
    83  H   0.996        C   27 0.965
    84  H   0.998        C   28 0.978
    85  H   0.997        C   28 0.986
    86  H   0.998        C   28 0.978
    87  H   0.997        C   30 0.954
    88  H   0.997        C   30 0.966
    89  H   0.998        C   31 0.981
    90  H   0.997        C   31 0.985
    91  H   0.999        C   31 0.987
    92  H   0.996        C   34 0.966
    93  H   0.993        C   37 0.940
    94  H   0.996        C   38 0.961
    95  H   0.997        C   41 0.959
    96  H   0.997        C   45 0.961
    97  H   0.996        C   47 0.964
    98  H   0.996        C   48 0.963
    99  H   0.996        C   52 0.961
   100  H   0.996        C   53 0.962
   101  H   0.994        C   56 0.951
   102  H   0.988        C   57 0.948
   103  H   0.994        C   69 0.961
   104  H   0.995        C   72 0.959
   105  H   0.995        C   75 0.958

molecular dipole:
                 x           y           z       tot (Debye)
 q only:       -1.673       2.522       0.767
   full:       -2.577       2.908       0.586       9.987
molecular quadrupole (traceless):
                xx          xy          yy          xz          yz          zz
 q only:       95.412    -130.251     -13.089      31.176     -29.697     -82.323
  q+dip:      150.415    -168.219     -37.911      46.723     -27.031    -112.504
   full:      147.609    -171.253     -25.635      49.497     -33.846    -121.975

           -------------------------------------------------
          |                Geometry Summary                 |
           -------------------------------------------------

      molecular mass/u    :     1220.0918000
   center of mass at/Å    :      -11.3168163       4.9246812      -4.7313780
  moments of inertia/u·Å² :        0.1551805E+05   0.5629487E+05   0.6057384E+05
rotational constants/cm⁻¹ :        0.1086324E-02   0.2994524E-03   0.2782989E-03

 * 102 selected distances

     #   Z        #   Z                                     value/Å
     1   6 C      2   6 C                                 1.3708517
     3   6 C      4   7 N                                 1.1476485
     5   6 C      6   7 N                                 1.1487781
     7   6 C      8   6 C                                 1.4166168
     8   6 C      9   6 C                                 1.3736353
     9   6 C     10   6 C                                 1.3984725
    10   6 C     11   6 C                                 1.4158677
     7   6 C     12   6 C                                 1.3830860
    11   6 C     12   6 C                                 1.3891417
    11   6 C     13  16 S                                 1.7376240
    13  16 S     14   6 C                                 1.7437746
    10   6 C     15   6 C                                 1.4215804
    14   6 C     15   6 C                                 1.3543067
    14   6 C     16  35 Br                                1.8753078
    17   6 C     18   8 O                                 1.2115575
    19   6 C     20   6 C                                 1.3605405
    20   6 C     21   6 C                                 1.4321336
    21   6 C     22   6 C                                 1.3720854
    22   6 C     23  16 S                                 1.7022643
    23  16 S     24   6 C                                 1.7389558
    21   6 C     25   6 C                                 1.4474637
    24   6 C     25   6 C                                 1.4003653
    25   6 C     26   6 C                                 1.4147368
    27   6 C     28   6 C                                 1.5308309
    26   6 C     29   6 C                                 1.3915380
    30   6 C     31   6 C                                 1.5298449
    29   6 C     32   6 C                                 1.4190038
    33   6 C     34   6 C                                 1.3686187
    34   6 C     35  16 S                                 1.7088152
    24   6 C     36   6 C                                 1.3836292
    32   6 C     36   6 C                                 1.4058409
    35  16 S     36   6 C                                 1.7348833
    33   6 C     37   6 C                                 1.4413372
    37   6 C     38   6 C                                 1.3465249
    38   6 C     39   6 C                                 1.4363900
    39   6 C     40   7 N                                 1.3520654
    40   7 N     41   6 C                                 1.3038202
    41   6 C     42   6 C                                 1.4148792
    42   6 C     43   7 N                                 1.3432541
    39   6 C     44   7 N                                 1.3367236
    43   7 N     44   7 N                                 1.2815244
    42   6 C     45   6 C                                 1.4194535
    45   6 C     46   6 C                                 1.3660852
    46   6 C     47   6 C                                 1.4238439
    47   6 C     48   6 C                                 1.3569589
    48   6 C     49   6 C                                 1.4181677
    46   6 C     50  16 S                                 1.7460410
    49   6 C     50  16 S                                 1.7618886
    49   6 C     51   6 C                                 1.3759559
    51   6 C     52   6 C                                 1.4148303
    52   6 C     53   6 C                                 1.3590728
    53   6 C     54   6 C                                 1.4216340
    51   6 C     55  16 S                                 1.7521756
    54   6 C     55  16 S                                 1.7425360
    54   6 C     56   6 C                                 1.3803476
    56   6 C     57   6 C                                 1.3960851
    57   6 C     58   6 C                                 1.3798302
    58   6 C     59   6 C                                 1.4331181
    59   6 C     60   6 C                                 1.3787679
    61   6 C     62   7 N                                 1.1486432
    63   6 C     64   7 N                                 1.1486873
    65   6 C     66   6 C                                 1.4165892
    67   6 C     68   8 O                                 1.2112935
    66   6 C     69   6 C                                 1.3726605
    69   6 C     70   6 C                                 1.4000480
    70   6 C     71   6 C                                 1.4133797
    65   6 C     72   6 C                                 1.3807771
    71   6 C     72   6 C                                 1.3919770
    71   6 C     73  16 S                                 1.7395193
    73  16 S     74   6 C                                 1.7444375
    70   6 C     75   6 C                                 1.4223288
    74   6 C     75   6 C                                 1.3523552
    74   6 C     76  35 Br                                1.8754722 (max)
     9   6 C     77   1 H                                 1.0787428
    12   6 C     78   1 H                                 1.0772382
    15   6 C     79   1 H                                 1.0747486
    20   6 C     80   1 H                                 1.0795758
    22   6 C     81   1 H                                 1.0717799 (min)
    27   6 C     82   1 H                                 1.0924545
    27   6 C     83   1 H                                 1.0907826
    28   6 C     84   1 H                                 1.0870332
    28   6 C     85   1 H                                 1.0878657
    28   6 C     86   1 H                                 1.0868740
    30   6 C     87   1 H                                 1.0888334
    30   6 C     88   1 H                                 1.0865332
    31   6 C     89   1 H                                 1.0867498
    31   6 C     90   1 H                                 1.0871970
    31   6 C     91   1 H                                 1.0880646
    34   6 C     92   1 H                                 1.0722004
    37   6 C     93   1 H                                 1.0774217
    38   6 C     94   1 H                                 1.0791960
    41   6 C     95   1 H                                 1.0830368
    45   6 C     96   1 H                                 1.0789182
    47   6 C     97   1 H                                 1.0761338
    48   6 C     98   1 H                                 1.0757227
    52   6 C     99   1 H                                 1.0749301
    53   6 C    100   1 H                                 1.0753282
    56   6 C    101   1 H                                 1.0836023
    57   6 C    102   1 H                                 1.0879857
    69   6 C    103   1 H                                 1.0787609
    72   6 C    104   1 H                                 1.0777037
    75   6 C    105   1 H                                 1.0747334

 * 7 distinct bonds (by element types)

   Z      Z             #   av. dist./Å        max./Å        min./Å
   1 H    6 C          29     1.0813844     1.0924545     1.0717799
   6 C    6 C          48     1.4019498     1.5308309     1.3465249
   6 C    7 N           8     1.2412025     1.3520654     1.1476485
   7 N    7 N           1     1.2815244     1.2815244     1.2815244
   6 C    8 O           2     1.2114255     1.2115575     1.2112935
   6 C   16 S          12     1.7377429     1.7618886     1.7022643
   6 C   35 Br          2     1.8753900     1.8754722     1.8753078


optimized geometry written to: xtbopt.xyz


           -------------------------------------------------
          | TOTAL ENERGY             -197.137921589297 Eh   |
          | GRADIENT NORM               0.000928451724 Eh/α |
          | HOMO-LUMO GAP               0.455785915432 eV   |
           -------------------------------------------------

------------------------------------------------------------------------
 * finished run on 2021/06/04 at 20:32:11.120     
------------------------------------------------------------------------
 total:
 * wall-time:     0 d,  0 h,  0 min, 29.744 sec
 *  cpu-time:     0 d,  0 h,  5 min, 56.635 sec
 * ratio c/w:    11.990 speedup
 SCF:
 * wall-time:     0 d,  0 h,  0 min,  0.279 sec
 *  cpu-time:     0 d,  0 h,  0 min,  3.290 sec
 * ratio c/w:    11.790 speedup
 ANC optimizer:
 * wall-time:     0 d,  0 h,  0 min, 29.400 sec
 *  cpu-time:     0 d,  0 h,  5 min, 52.716 sec
 * ratio c/w:    11.997 speedup

