      -----------------------------------------------------------      
     |                   =====================                   |     
     |                           x T B                           |     
     |                   =====================                   |     
     |                         S. Grimme                         |     
     |          Mulliken Center for Theoretical Chemistry        |     
     |                    University of Bonn                     |     
     |                Version 6.2 RC2 (SAW190805)                |     
      -----------------------------------------------------------      

   This program is distributed in the hope that it will be useful,
   but WITHOUT ANY WARRANTY; without even the implied warranty of
   MERCHANTABILITY or FITNESS FOR A PARTICULAR PURPOSE.
   
   FOR NON-COMMERCIAL, ACADEMIA USE ONLY.
   
   Cite this work as:
   * S. Grimme, C. Bannwarth, P. Shushkov, J. Chem. Theory Comput., 2017,
     13, 1989-2009. DOI: 10.1021/acs.jctc.7b00118
   * C. Bannwarth, S. Ehlert and S. Grimme., J. Chem. Theory Comput., 2019,
     15, 1652-1671. DOI: 10.1021/acs.jctc.8b01176
   * P. Pracht, E. Caldeweyher, S. Ehlert, S. Grimme, ChemRxiv, 2019, preprint.
     DOI: 10.26434/chemrxiv.8326202.v1
   
   for DFT-D4:
   * E. Caldeweyher, C. Bannwarth and S. Grimme, J. Chem. Phys., 2017,
     147, 034112. DOI: 10.1063/1.4993215
   * E. Caldeweyher, S. Ehlert, A. Hansen, H. Neugebauer, S. Spicher,
     C. Bannwarth and S. Grimme, J. Chem. Phys., 2019, 150, 154122.
     DOI: 10.1063/1.5090222
   
   for sTDA-xTB:
   * S. Grimme and C. Bannwarth, J. Chem. Phys., 2016, 145, 054103.
     DOI: 10.1063/1.4959605
   
   in the mass-spec context:
   * V. Asgeirsson, C. Bauer and S. Grimme, Chem. Sci., 2017, 8, 4879.
     DOI: 10.1039/c7sc00601b
   
   for metadynamics refer to:
   * S. Grimme, J. Chem. Theory Comput., 2019, 155, 2847-2862
     DOI: 10.1021/acs.jctc.9b00143
   
   with help from (in alphabetical order)
   C. Bannwarth, F. Bohle, G. Brandenburg, E. Caldeweyher, M. Checinski,
   S. Dohm, S. Ehlert, S. Ehrlich, F. März, H. Neugebauer, J. Pisarek,
   P. Pracht, P. Shushkov, and S. Spicher.
   
 * started run on 2021/06/13 at 01:01:41.801     

           -------------------------------------------------
          |                Calculation Setup                |
           -------------------------------------------------

          program call               : /ihome/ghutchison/geoffh/xtb/xtb /ihome/ghutchison/blp62/GA/running_GA/sequence/generations/131/275_206_6_47_756_13502.xyz -opt
          hostname                   : smp-n3
          coordinate file            : /ihome/ghutchison/blp62/GA/running_GA/sequence/generations/131/275_206_6_47_756_13502.xyz
          omp threads                :                    12
          number of atoms            :                    95
          number of electrons        :                   340
          charge                     :                     0
          spin                       :                   0.0
          first test random number   :      0.39391433004416


########################################################################
# WARNING! Please study the warnings concerning your input carefully
#  - XTBPATH is not set, using XTBHOME instead
#  - the use of '-opt' is discouraged, please use '--opt' next time
########################################################################

           ------------------------------------------------- 
          |                 G F N 2 - x T B                 |
          | Geometry, Frequencies, Noncovalent interactions |
          |            JCTC 2019 parametrisation            |
           ------------------------------------------------- 
             KAB for C  - Si     :                1.0500
             KAB for H  - Pd     :                0.9500
             k(s)              :                1.8500
             k(p)              :                2.2300
             k(d)              :                2.2300
             k(f)              :                2.0000
             kEN (H0ij)        :               -2.0000
             D4 a1             :                0.5200
             D4 a2             :                5.0000
             D4 s6             :                1.0000
             D4 s8             :                2.7000
             D4 s9             :                5.0000
             alphaj            :                2.0000

  Z AO/shell   Hii/eV     exponent
  1     Wed Apr 25 08:07:45 CEST 2018   EN: 2.200 GM2: 0.406  GM3: 0.0800  RAES: 1.40
     1s    -10.707211    1.230000
  6     Wed Apr 25 08:07:45 CEST 2018   EN: 2.550 GM2: 0.538  GM3: 0.1500  RAES: 3.00
     2s    -13.970922    2.096432
     2p    -10.063292    1.800000
  7     Wed Apr 25 08:07:45 CEST 2018   EN: 3.040 GM2: 0.461  GM3:-0.0640  RAES: 1.90
     2s    -16.686243    2.339881
     2p    -12.523956    2.014332
  8     Wed Apr 25 08:07:45 CEST 2018   EN: 3.440 GM2: 0.452  GM3:-0.0517  RAES: 1.80
     2s    -20.229985    2.439742
     2p    -15.503117    2.137023
 16     Tue Apr 24 11:44:34 CEST 2018   EN: 2.580 GM2: 0.340  GM3:-0.0502  RAES: 3.10
     3s    -20.029654    1.981333
     3p    -11.377694    2.025643
     3d     -0.420282    1.702555
 35     Tue Apr 24 12:21:41 CEST 2018   EN: 2.960 GM2: 0.261  GM3: 0.1300  RAES: 4.00
     4s    -23.583718    2.077587
     4p    -12.588824    2.263120
     4d      0.047980    1.845038

           ------------------------------------------------- 
          |        Self-Consistent Charge Iterations        |
           ------------------------------------------------- 

          ...................................................
          :                      SETUP                      :
          :.................................................:
          :  # basis functions                 359          :
          :  # atomic orbitals                 351          :
          :  # shells                          175          :
          :  # electrons                       340          :
          :  max. iterations                   250          :
          :  Hamiltonian                  GFN2-xTB          :
          :  restarted?                      false          :
          :  GBSA solvation                  false          :
          :  PC potential                    false          :
          :  electronic temp.          300.0000000     K    :
          :  accuracy                    1.0000000          :
          :  -> integral cutoff          0.2500000E+02      :
          :  -> integral neglect         0.1000000E-07      :
          :  -> SCF convergence          0.1000000E-05 Eh   :
          :  -> wf. convergence          0.1000000E-03 e    :
          :  Broyden damping             0.4000000          :
          ...................................................

 iter      E             dE          RMSdq      gap      omega  full diag
   1   -188.0521520 -0.188052E+03  0.541E+00    0.36       0.0  T
   2   -188.2141927 -0.162041E+00  0.353E+00    0.80       1.0  T
   3   -188.0739813  0.140211E+00  0.235E+00    0.51       1.0  T
   4   -188.4471914 -0.373210E+00  0.890E-01    0.50       1.0  T
   5   -188.4861930 -0.390016E-01  0.350E-01    0.37       1.0  T
   6   -188.4923783 -0.618533E-02  0.195E-01    0.37       1.0  T
   7   -188.4935935 -0.121518E-02  0.139E-01    0.40       1.0  T
   8   -188.4952657 -0.167212E-02  0.676E-02    0.39       1.0  T
   9   -188.4955656 -0.299920E-03  0.431E-02    0.39       1.0  T
  10   -188.4956349 -0.693519E-04  0.306E-02    0.39       1.0  T
  11   -188.4956475 -0.125323E-04  0.222E-02    0.40       1.0  T
  12   -188.4956618 -0.143361E-04  0.137E-02    0.39       1.0  T
  13   -188.4956663 -0.453532E-05  0.869E-03    0.39       1.2  T
  14   -188.4956688 -0.242780E-05  0.436E-03    0.39       2.4  T
  15   -188.4956696 -0.868954E-06  0.202E-03    0.39       5.1  T
  16   -188.4956697 -0.897553E-07  0.107E-03    0.39       9.6  T
  17   -188.4956697 -0.267464E-07  0.649E-04    0.39      15.8  T
  18   -188.4956697 -0.826668E-08  0.387E-04    0.39      26.5  T

   *** convergence criteria satisfied after 18 iterations ***

         #    Occupation            Energy/Eh            Energy/eV
      -------------------------------------------------------------
         1        2.0000           -0.8676859             -23.6109
       ...           ...                  ...                  ...
       164        2.0000           -0.4088706             -11.1259
       165        2.0000           -0.4069654             -11.0741
       166        2.0000           -0.3953835             -10.7589
       167        2.0000           -0.3935869             -10.7100
       168        2.0000           -0.3864292             -10.5153
       169        2.0000           -0.3753535             -10.2139
       170        1.9990           -0.3569267              -9.7125 (HOMO)
       171        0.0010           -0.3425637              -9.3216 (LUMO)
       172        0.0000           -0.3352977              -9.1239
       173                         -0.3278220              -8.9205
       174                         -0.3274281              -8.9098
       175                         -0.3135703              -8.5327
       ...                                ...                  ...
       351                          1.0974409              29.8629
      -------------------------------------------------------------
                  HL-Gap            0.0143630 Eh            0.3908 eV
             Fermi-level           -0.3497454 Eh           -9.5171 eV

 SCC (total)                   0 d,  0 h,  0 min,  0.255 sec
 SCC setup                      ...        0 min,  0.002 sec (  0.816%)
 Dispersion                     ...        0 min,  0.004 sec (  1.456%)
 integral evaluation            ...        0 min,  0.025 sec (  9.659%)
 zeroth order Hamiltonian       ...        0 min,  0.001 sec (  0.422%)
 iterations                     ...        0 min,  0.206 sec ( 80.770%)
 molecular gradient             ...        0 min,  0.017 sec (  6.501%)
 printout                       ...        0 min,  0.001 sec (  0.342%)

         :::::::::::::::::::::::::::::::::::::::::::::::::::::
         ::                     SUMMARY                     ::
         :::::::::::::::::::::::::::::::::::::::::::::::::::::
         :: total energy            -185.577482611854 Eh    ::
         :: gradient norm              0.208339391366 Eh/a0 ::
         :: HOMO-LUMO gap              0.390837033976 eV    ::
         ::.................................................::
         :: SCC energy              -188.495669748031 Eh    ::
         :: -> isotropic ES            0.117711864553 Eh    ::
         :: -> anisotropic ES          0.025159034402 Eh    ::
         :: -> anisotropic XC          0.127268842876 Eh    ::
         :: -> dispersion             -0.149398497705 Eh    ::
         :: repulsion energy           2.920649908948 Eh    ::
         :: add. restraining           0.000000000000 Eh    ::
         :::::::::::::::::::::::::::::::::::::::::::::::::::::

      ----------------------------------------------------------- 
     |                   =====================                   |
     |                        A N C O P T                        |
     |                   =====================                   |
     |               Approximate Normal Coordinate               |
     |                Rational Function Optimizer                |
      ----------------------------------------------------------- 

          ...................................................
          :                      SETUP                      :
          :.................................................:
          :   optimization level            normal          :
          :   max. optcycles                   285          :
          :   ANC micro-cycles                  20          :
          :   degrees of freedom               279          :
          :.................................................:
          :   RF solver                   davidson          :
          :   input Hessian                  false          :
          :   write xtbopt.log                true          :
          :   linear?                        false          :
          :   energy convergence         0.5000000E-05 Eh   :
          :   grad. convergence          0.1000000E-02 Eh/α :
          :   maximium RF displ.         2.0000000          :
          :   Hlow (freq-cutoff)         0.5000000E-02      :
          :   Hmax (freq-cutoff)         5.0000000          :
          :   S6 in model hess.         20.0000000          :
          ...................................................

generating ANC from model Hessian ...
Using Lindh-Hessian (1995)
 Shifting diagonal of input Hessian by   5.111819928251971E-003
 Lowest  eigenvalues of input Hessian
    0.005000    0.005044   -0.000000   -0.000000   -0.000000    0.000000
    0.000000    0.000000    0.005128    0.005133    0.005143    0.005164
    0.005192    0.005236    0.005329    0.005353    0.005476    0.005574
 Highest eigenvalues
    2.247344    2.482034    2.520542    2.530779    2.544641    2.574986
 

........................................................................
.............................. CYCLE    1 ..............................
........................................................................
   1   -188.4956698 -0.188496E+03  0.205E-04    0.39       0.0  T
   2   -188.4956698  0.177920E-09  0.171E-04    0.39      60.0  T
   3   -188.4956698 -0.121548E-08  0.124E-04    0.39      83.0  T
     SCC iter.                  ...        0 min,  0.035 sec
     gradient                   ...        0 min,  0.016 sec
 * total energy  :  -185.5774826 Eh     change        0.3545188E-07 Eh
   gradient norm :     0.2083372 Eh/α   predicted     0.0000000E+00 (-100.00%)
   displ. norm   :     0.4561410 α      lambda       -0.5511757E-01
   maximum displ.:     0.1138048 α      in ANC's #196, #97, #66, ...

........................................................................
.............................. CYCLE    2 ..............................
........................................................................
   1   -188.5645776 -0.188565E+03  0.474E-01    0.36       0.0  T
   2   -188.5649172 -0.339608E-03  0.255E-01    0.38       1.0  T
   3   -188.5622329  0.268427E-02  0.211E-01    0.38       1.0  T
   4   -188.5658081 -0.357520E-02  0.746E-02    0.38       1.0  T
   5   -188.5663160 -0.507879E-03  0.395E-02    0.38       1.0  T
   6   -188.5663748 -0.588163E-04  0.280E-02    0.39       1.0  T
   7   -188.5664439 -0.691429E-04  0.141E-02    0.38       1.0  T
   8   -188.5664672 -0.232839E-04  0.438E-03    0.38       2.3  T
   9   -188.5664684 -0.115589E-05  0.212E-03    0.38       4.8  T
  10   -188.5664685 -0.182105E-06  0.129E-03    0.38       8.0  T
     SCC iter.                  ...        0 min,  0.112 sec
     gradient                   ...        0 min,  0.015 sec
 * total energy  :  -185.6169105 Eh     change       -0.3942790E-01 Eh
   gradient norm :     0.0958076 Eh/α   predicted    -0.3329286E-01 ( -15.56%)
   displ. norm   :     0.5486266 α      lambda       -0.2521406E-01
   maximum displ.:     0.1547377 α      in ANC's #48, #38, #52, ...

........................................................................
.............................. CYCLE    3 ..............................
........................................................................
   1   -188.5761665 -0.188576E+03  0.500E-01    0.32       0.0  T
   2   -188.5752151  0.951417E-03  0.276E-01    0.34       1.0  T
   3   -188.5664645  0.875059E-02  0.319E-01    0.36       1.0  T
   4   -188.5765551 -0.100907E-01  0.103E-01    0.35       1.0  T
   5   -188.5776203 -0.106519E-02  0.521E-02    0.35       1.0  T
   6   -188.5777732 -0.152864E-03  0.376E-02    0.35       1.0  T
   7   -188.5779055 -0.132276E-03  0.178E-02    0.34       1.0  T
   8   -188.5779442 -0.386938E-04  0.506E-03    0.35       2.0  T
   9   -188.5779459 -0.170078E-05  0.235E-03    0.35       4.4  T
  10   -188.5779461 -0.183964E-06  0.165E-03    0.35       6.2  T
     SCC iter.                  ...        0 min,  0.110 sec
     gradient                   ...        0 min,  0.015 sec
 * total energy  :  -185.6336930 Eh     change       -0.1678252E-01 Eh
   gradient norm :     0.0390277 Eh/α   predicted    -0.1640164E-01 (  -2.27%)
   displ. norm   :     0.6346967 α      lambda       -0.1157015E-01
   maximum displ.:     0.1929376 α      in ANC's #48, #30, #26, ...

........................................................................
.............................. CYCLE    4 ..............................
........................................................................
   1   -188.5770760 -0.188577E+03  0.457E-01    0.30       0.0  T
   2   -188.5747504  0.232560E-02  0.270E-01    0.29       1.0  T
   3   -188.5587644  0.159860E-01  0.385E-01    0.35       1.0  T
   4   -188.5768291 -0.180647E-01  0.107E-01    0.33       1.0  T
   5   -188.5774419 -0.612763E-03  0.712E-02    0.31       1.0  T
   6   -188.5780514 -0.609519E-03  0.317E-02    0.32       1.0  T
   7   -188.5780910 -0.396258E-04  0.215E-02    0.32       1.0  T
   8   -188.5781497 -0.587159E-04  0.638E-03    0.32       1.6  T
   9   -188.5781526 -0.283154E-05  0.314E-03    0.32       3.3  T
  10   -188.5781531 -0.505406E-06  0.217E-03    0.32       4.7  T
     SCC iter.                  ...        0 min,  0.110 sec
     gradient                   ...        0 min,  0.015 sec
 * total energy  :  -185.6403299 Eh     change       -0.6636879E-02 Eh
   gradient norm :     0.0401102 Eh/α   predicted    -0.8115536E-02 (  22.28%)
   displ. norm   :     0.6957123 α      lambda       -0.1123702E-01
   maximum displ.:     0.2571330 α      in ANC's #38, #48, #52, ...

........................................................................
.............................. CYCLE    5 ..............................
........................................................................
   1   -188.5867013 -0.188587E+03  0.471E-01    0.26       0.0  T
   2   -188.5819370  0.476423E-02  0.302E-01    0.19       1.0  T
   3   -188.5598299  0.221071E-01  0.445E-01    0.34       1.0  T
   4   -188.5847290 -0.248991E-01  0.158E-01    0.30       1.0  T
   5   -188.5858762 -0.114717E-02  0.112E-01    0.28       1.0  T
   6   -188.5872895 -0.141329E-02  0.594E-02    0.29       1.0  T
   7   -188.5876761 -0.386627E-03  0.283E-02    0.26       1.0  T
   8   -188.5877165 -0.404268E-04  0.119E-02    0.26       1.0  T
   9   -188.5877211 -0.456218E-05  0.713E-03    0.26       1.4  T
  10   -188.5877262 -0.516048E-05  0.342E-03    0.25       3.0  T
  11   -188.5877274 -0.116533E-05  0.162E-03    0.25       6.3  T
     SCC iter.                  ...        0 min,  0.120 sec
     gradient                   ...        0 min,  0.019 sec
 * total energy  :  -185.6457436 Eh     change       -0.5413740E-02 Eh
   gradient norm :     0.0431149 Eh/α   predicted    -0.8337962E-02 (  54.01%)
   displ. norm   :     0.5263691 α      lambda       -0.7741488E-02
   maximum displ.:     0.1738894 α      in ANC's #26, #24, #35, ...

........................................................................
.............................. CYCLE    6 ..............................
........................................................................
   1   -188.5902771 -0.188590E+03  0.335E-01    0.23       0.0  T
   2   -188.5903477 -0.706874E-04  0.187E-01    0.21       1.0  T
   3   -188.5838420  0.650576E-02  0.221E-01    0.28       1.0  T
   4   -188.5888909 -0.504892E-02  0.116E-01    0.22       1.0  T
   5   -188.5905886 -0.169771E-02  0.488E-02    0.23       1.0  T
   6   -188.5908564 -0.267744E-03  0.255E-02    0.24       1.0  T
   7   -188.5909141 -0.577359E-04  0.138E-02    0.22       1.0  T
   8   -188.5909394 -0.253395E-04  0.437E-03    0.23       2.3  T
   9   -188.5909404 -0.957984E-06  0.258E-03    0.23       4.0  T
  10   -188.5909407 -0.282124E-06  0.182E-03    0.23       5.6  T
     SCC iter.                  ...        0 min,  0.112 sec
     gradient                   ...        0 min,  0.015 sec
 * total energy  :  -185.6488448 Eh     change       -0.3101207E-02 Eh
   gradient norm :     0.0536767 Eh/α   predicted    -0.4943190E-02 (  59.40%)
   displ. norm   :     0.4992263 α      lambda       -0.8089487E-02
   maximum displ.:     0.1771889 α      in ANC's #18, #30, #26, ...

........................................................................
.............................. CYCLE    7 ..............................
........................................................................
   1   -188.5953916 -0.188595E+03  0.314E-01    0.22       0.0  T
   2   -188.5956186 -0.226906E-03  0.169E-01    0.22       1.0  T
   3   -188.5934779  0.214061E-02  0.123E-01    0.25       1.0  T
   4   -188.5936369 -0.158988E-03  0.112E-01    0.20       1.0  T
   5   -188.5957329 -0.209593E-02  0.220E-02    0.23       1.0  T
   6   -188.5957646 -0.317397E-04  0.121E-02    0.22       1.0  T
   7   -188.5957694 -0.477536E-05  0.875E-03    0.23       1.2  T
   8   -188.5957754 -0.605367E-05  0.558E-03    0.22       1.8  T
   9   -188.5957791 -0.363670E-05  0.275E-03    0.22       3.7  T
  10   -188.5957799 -0.787880E-06  0.113E-03    0.22       9.1  T
     SCC iter.                  ...        0 min,  0.108 sec
     gradient                   ...        0 min,  0.015 sec
 * total energy  :  -185.6536533 Eh     change       -0.4808483E-02 Eh
   gradient norm :     0.0266465 Eh/α   predicted    -0.5052806E-02 (   5.08%)
   displ. norm   :     0.6014544 α      lambda       -0.6405870E-02
   maximum displ.:     0.1943052 α      in ANC's #18, #56, #38, ...

........................................................................
.............................. CYCLE    8 ..............................
........................................................................
   1   -188.5877955 -0.188588E+03  0.410E-01    0.21       0.0  T
   2   -188.5879952 -0.199713E-03  0.227E-01    0.18       1.0  T
   3   -188.5798506  0.814467E-02  0.255E-01    0.28       1.0  T
   4   -188.5854409 -0.559028E-02  0.155E-01    0.19       1.0  T
   5   -188.5885903 -0.314947E-02  0.614E-02    0.22       1.0  T
   6   -188.5889645 -0.374143E-03  0.375E-02    0.22       1.0  T
   7   -188.5890718 -0.107324E-03  0.229E-02    0.20       1.0  T
   8   -188.5891466 -0.748000E-04  0.806E-03    0.21       1.3  T
   9   -188.5891507 -0.407733E-05  0.291E-03    0.21       3.5  T
  10   -188.5891508 -0.144919E-06  0.216E-03    0.21       4.8  T
     SCC iter.                  ...        0 min,  0.108 sec
     gradient                   ...        0 min,  0.015 sec
 * total energy  :  -185.6547053 Eh     change       -0.1052015E-02 Eh
   gradient norm :     0.0679940 Eh/α   predicted    -0.4361598E-02 ( 314.59%)
   displ. norm   :     0.4265911 α      lambda       -0.7243018E-02
   maximum displ.:     0.1721186 α      in ANC's #18, #26, #56, ...

........................................................................
.............................. CYCLE    9 ..............................
........................................................................
   1   -188.5929814 -0.188593E+03  0.307E-01    0.20       0.0  T
   2   -188.5926025  0.378939E-03  0.176E-01    0.16       1.0  T
   3   -188.5847964  0.780613E-02  0.242E-01    0.28       1.0  T
   4   -188.5926746 -0.787823E-02  0.926E-02    0.20       1.0  T
   5   -188.5931418 -0.467192E-03  0.606E-02    0.19       1.0  T
   6   -188.5936208 -0.478980E-03  0.311E-02    0.20       1.0  T
   7   -188.5937396 -0.118824E-03  0.129E-02    0.19       1.0  T
   8   -188.5937462 -0.658936E-05  0.831E-03    0.19       1.2  T
   9   -188.5937547 -0.854012E-05  0.293E-03    0.19       3.5  T
  10   -188.5937551 -0.404965E-06  0.169E-03    0.19       6.1  T
  11   -188.5937553 -0.194587E-06  0.791E-04    0.19      13.0  T
     SCC iter.                  ...        0 min,  0.118 sec
     gradient                   ...        0 min,  0.015 sec
 * total energy  :  -185.6590899 Eh     change       -0.4384569E-02 Eh
   gradient norm :     0.0315259 Eh/α   predicted    -0.4280561E-02 (  -2.37%)
   displ. norm   :     0.5142139 α      lambda       -0.4100577E-02
   maximum displ.:     0.2175115 α      in ANC's #18, #26, #22, ...

........................................................................
.............................. CYCLE   10 ..............................
........................................................................
   1   -188.6080775 -0.188608E+03  0.278E-01    0.18       0.0  T
   2   -188.6083143 -0.236843E-03  0.142E-01    0.18       1.0  T
   3   -188.6052605  0.305381E-02  0.141E-01    0.24       1.0  T
   4   -188.6066017 -0.134122E-02  0.102E-01    0.15       1.0  T
   5   -188.6082848 -0.168310E-02  0.351E-02    0.21       1.0  T
   6   -188.6083727 -0.878495E-04  0.251E-02    0.18       1.0  T
   7   -188.6084241 -0.513921E-04  0.185E-02    0.19       1.0  T
   8   -188.6084717 -0.476327E-04  0.526E-03    0.18       1.9  T
   9   -188.6084735 -0.177346E-05  0.314E-03    0.18       3.3  T
  10   -188.6084744 -0.954555E-06  0.135E-03    0.18       7.6  T
     SCC iter.                  ...        0 min,  0.107 sec
     gradient                   ...        0 min,  0.015 sec
 * total energy  :  -185.6609980 Eh     change       -0.1908055E-02 Eh
   gradient norm :     0.0327938 Eh/α   predicted    -0.2592428E-02 (  35.87%)
   displ. norm   :     0.6114773 α      lambda       -0.3949806E-02
   maximum displ.:     0.2698239 α      in ANC's #18, #56, #32, ...

........................................................................
.............................. CYCLE   11 ..............................
........................................................................
   1   -188.6031983 -0.188603E+03  0.322E-01    0.18       0.0  T
   2   -188.6032216 -0.233275E-04  0.174E-01    0.16       1.0  T
   3   -188.5952043  0.801734E-02  0.219E-01    0.25       1.0  T
   4   -188.6031038 -0.789957E-02  0.606E-02    0.18       1.0  T
   5   -188.6031686 -0.647291E-04  0.498E-02    0.16       1.0  T
   6   -188.6033507 -0.182119E-03  0.368E-02    0.18       1.0  T
   7   -188.6035535 -0.202787E-03  0.106E-02    0.17       1.0  T
   8   -188.6035651 -0.116688E-04  0.535E-03    0.18       1.9  T
   9   -188.6035676 -0.242747E-05  0.256E-03    0.17       4.0  T
  10   -188.6035679 -0.314632E-06  0.155E-03    0.17       6.6  T
     SCC iter.                  ...        0 min,  0.116 sec
     gradient                   ...        0 min,  0.015 sec
 * total energy  :  -185.6638729 Eh     change       -0.2874990E-02 Eh
   gradient norm :     0.0297360 Eh/α   predicted    -0.2713333E-02 (  -5.62%)
   displ. norm   :     0.6108184 α      lambda       -0.3297592E-02
   maximum displ.:     0.2733645 α      in ANC's #18, #22, #27, ...

........................................................................
.............................. CYCLE   12 ..............................
........................................................................
   1   -188.6012734 -0.188601E+03  0.333E-01    0.18       0.0  T
   2   -188.6013943 -0.120885E-03  0.169E-01    0.17       1.0  T
   3   -188.5995867  0.180764E-02  0.106E-01    0.24       1.0  T
   4   -188.5986991  0.887587E-03  0.122E-01    0.13       1.0  T
   5   -188.6013413 -0.264224E-02  0.361E-02    0.19       1.0  T
   6   -188.6014265 -0.852401E-04  0.254E-02    0.17       1.0  T
   7   -188.6014507 -0.241859E-04  0.201E-02    0.18       1.0  T
   8   -188.6015139 -0.632127E-04  0.533E-03    0.17       1.9  T
   9   -188.6015169 -0.299050E-05  0.309E-03    0.17       3.3  T
  10   -188.6015178 -0.843848E-06  0.150E-03    0.17       6.8  T
     SCC iter.                  ...        0 min,  0.108 sec
     gradient                   ...        0 min,  0.015 sec
 * total energy  :  -185.6656520 Eh     change       -0.1779084E-02 Eh
   gradient norm :     0.0311189 Eh/α   predicted    -0.2263970E-02 (  27.25%)
   displ. norm   :     0.5400280 α      lambda       -0.2989919E-02
   maximum displ.:     0.2507760 α      in ANC's #18, #22, #10, ...

........................................................................
.............................. CYCLE   13 ..............................
........................................................................
   1   -188.6061250 -0.188606E+03  0.264E-01    0.18       0.0  T
   2   -188.6060709  0.540365E-04  0.139E-01    0.16       1.0  T
   3   -188.6007658  0.530515E-02  0.169E-01    0.26       1.0  T
   4   -188.6061145 -0.534867E-02  0.376E-02    0.18       1.0  T
   5   -188.6061492 -0.347701E-04  0.273E-02    0.17       1.0  T
   6   -188.6061283  0.209720E-04  0.278E-02    0.18       1.0  T
   7   -188.6062336 -0.105342E-03  0.107E-02    0.17       1.0  T
   8   -188.6062471 -0.135089E-04  0.376E-03    0.18       2.7  T
   9   -188.6062484 -0.133192E-05  0.174E-03    0.18       5.9  T
  10   -188.6062484  0.328498E-07  0.158E-03    0.18       6.5  T
     SCC iter.                  ...        0 min,  0.108 sec
     gradient                   ...        0 min,  0.015 sec
 * total energy  :  -185.6675510 Eh     change       -0.1898980E-02 Eh
   gradient norm :     0.0308173 Eh/α   predicted    -0.1930943E-02 (   1.68%)
   displ. norm   :     0.5413215 α      lambda       -0.2829286E-02
   maximum displ.:     0.2323921 α      in ANC's #18, #22, #10, ...

........................................................................
.............................. CYCLE   14 ..............................
........................................................................
   1   -188.6166649 -0.188617E+03  0.265E-01    0.17       0.0  T
   2   -188.6160887  0.576207E-03  0.150E-01    0.21       1.0  T
   3   -188.5096647  0.106424E+00  0.737E-01    0.09       1.0  T
   4   -188.6157640 -0.106099E+00  0.912E-02    0.25       1.0  T
   5   -188.6160926 -0.328569E-03  0.701E-02    0.22       1.0  T
   6   -188.6164364 -0.343830E-03  0.552E-02    0.21       1.0  T
   7   -188.6167798 -0.343410E-03  0.312E-02    0.20       1.0  T
   8   -188.6168527 -0.728994E-04  0.222E-02    0.20       1.0  T
   9   -188.6168874 -0.347309E-04  0.155E-02    0.19       1.0  T
  10   -188.6169197 -0.322532E-04  0.865E-03    0.19       1.2  T
  11   -188.6169256 -0.593321E-05  0.492E-03    0.18       2.1  T
  12   -188.6169289 -0.330761E-05  0.159E-03    0.18       6.4  T
     SCC iter.                  ...        0 min,  0.128 sec
     gradient                   ...        0 min,  0.015 sec
 * total energy  :  -185.6684255 Eh     change       -0.8745400E-03 Eh
   gradient norm :     0.0384205 Eh/α   predicted    -0.1829178E-02 ( 109.16%)
   displ. norm   :     0.4691762 α      lambda       -0.3208257E-02
   maximum displ.:     0.1946582 α      in ANC's #18, #10, #5, ...

........................................................................
.............................. CYCLE   15 ..............................
........................................................................
   1   -188.6085171 -0.188609E+03  0.282E-01    0.19       0.0  T
   2   -188.6086882 -0.171166E-03  0.151E-01    0.19       1.0  T
   3   -188.6064306  0.225768E-02  0.127E-01    0.16       1.0  T
   4   -188.6067610 -0.330411E-03  0.107E-01    0.25       1.0  T
   5   -188.6087065 -0.194557E-02  0.270E-02    0.19       1.0  T
   6   -188.6087499 -0.433788E-04  0.168E-02    0.19       1.0  T
   7   -188.6087429  0.701920E-05  0.175E-02    0.19       1.0  T
   8   -188.6087893 -0.464472E-04  0.521E-03    0.19       2.0  T
   9   -188.6087925 -0.318658E-05  0.227E-03    0.19       4.5  T
  10   -188.6087929 -0.380391E-06  0.112E-03    0.19       9.1  T
     SCC iter.                  ...        0 min,  0.107 sec
     gradient                   ...        0 min,  0.015 sec
 * total energy  :  -185.6690822 Eh     change       -0.6566345E-03 Eh
   gradient norm :     0.0467637 Eh/α   predicted    -0.1957241E-02 ( 198.07%)
   displ. norm   :     0.3495231 α      lambda       -0.3691459E-02
   maximum displ.:     0.1087842 α      in ANC's #18, #27, #56, ...

........................................................................
.............................. CYCLE   16 ..............................
........................................................................
   1   -188.6077739 -0.188608E+03  0.283E-01    0.20       0.0  T
   2   -188.6079909 -0.216956E-03  0.146E-01    0.18       1.0  T
   3   -188.6054125  0.257839E-02  0.130E-01    0.25       1.0  T
   4   -188.6044154  0.997120E-03  0.149E-01    0.16       1.0  T
   5   -188.6080396 -0.362423E-02  0.413E-02    0.22       1.0  T
   6   -188.6082112 -0.171600E-03  0.207E-02    0.20       1.0  T
   7   -188.6081910  0.202292E-04  0.214E-02    0.20       1.0  T
   8   -188.6082611 -0.701175E-04  0.659E-03    0.20       1.6  T
   9   -188.6082647 -0.360346E-05  0.355E-03    0.20       2.9  T
  10   -188.6082659 -0.122252E-05  0.166E-03    0.20       6.2  T
     SCC iter.                  ...        0 min,  0.107 sec
     gradient                   ...        0 min,  0.015 sec
 * total energy  :  -185.6701790 Eh     change       -0.1096790E-02 Eh
   gradient norm :     0.0304785 Eh/α   predicted    -0.2071220E-02 (  88.84%)
   displ. norm   :     0.3148294 α      lambda       -0.2473278E-02
   maximum displ.:     0.1173727 α      in ANC's #22, #10, #18, ...

........................................................................
.............................. CYCLE   17 ..............................
........................................................................
   1   -188.6100766 -0.188610E+03  0.145E-01    0.20       0.0  T
   2   -188.6092846  0.792071E-03  0.105E-01    0.24       1.0  T
   3   -188.5957303  0.135543E-01  0.283E-01    0.14       1.0  T
   4   -188.6097484 -0.140181E-01  0.581E-02    0.25       1.0  T
   5   -188.6100101 -0.261767E-03  0.384E-02    0.22       1.0  T
   6   -188.6101581 -0.147930E-03  0.260E-02    0.22       1.0  T
   7   -188.6102481 -0.900711E-04  0.108E-02    0.21       1.0  T
   8   -188.6102579 -0.978765E-05  0.487E-03    0.21       2.1  T
   9   -188.6102600 -0.206179E-05  0.231E-03    0.21       4.4  T
  10   -188.6102602 -0.230669E-06  0.136E-03    0.21       7.5  T
     SCC iter.                  ...        0 min,  0.107 sec
     gradient                   ...        0 min,  0.015 sec
 * total energy  :  -185.6706627 Eh     change       -0.4837347E-03 Eh
   gradient norm :     0.0351194 Eh/α   predicted    -0.1359217E-02 ( 180.98%)
   displ. norm   :     0.2914932 α      lambda       -0.2349952E-02
   maximum displ.:     0.1164095 α      in ANC's #10, #9, #18, ...

........................................................................
.............................. CYCLE   18 ..............................
........................................................................
   1   -188.6260306 -0.188626E+03  0.170E-01    0.21       0.0  T
   2   -188.6257420  0.288592E-03  0.988E-02    0.25       1.0  T
   3   -188.6115268  0.142153E-01  0.286E-01    0.15       1.0  T
   4   -188.6255452 -0.140184E-01  0.663E-02    0.26       1.0  T
   5   -188.6261341 -0.588875E-03  0.300E-02    0.24       1.0  T
   6   -188.6262046 -0.705807E-04  0.189E-02    0.23       1.0  T
   7   -188.6262147 -0.100660E-04  0.154E-02    0.22       1.0  T
   8   -188.6262460 -0.313445E-04  0.661E-03    0.22       1.6  T
   9   -188.6262499 -0.389217E-05  0.297E-03    0.22       3.4  T
  10   -188.6262509 -0.940296E-06  0.130E-03    0.22       7.9  T
     SCC iter.                  ...        0 min,  0.113 sec
     gradient                   ...        0 min,  0.017 sec
 * total energy  :  -185.6715239 Eh     change       -0.8611700E-03 Eh
   gradient norm :     0.0198498 Eh/α   predicted    -0.1274815E-02 (  48.03%)
   displ. norm   :     0.5057644 α      lambda       -0.1962802E-02
   maximum displ.:     0.1917991 α      in ANC's #22, #18, #21, ...

........................................................................
.............................. CYCLE   19 ..............................
........................................................................
   1   -188.5972738 -0.188597E+03  0.276E-01    0.23       0.0  T
   2   -188.5972209  0.528632E-04  0.144E-01    0.21       1.0  T
   3   -188.5912723  0.594858E-02  0.189E-01    0.27       1.0  T
   4   -188.5971820 -0.590974E-02  0.538E-02    0.22       1.0  T
   5   -188.5973896 -0.207549E-03  0.295E-02    0.22       1.0  T
   6   -188.5974041 -0.145448E-04  0.259E-02    0.22       1.0  T
   7   -188.5974835 -0.793705E-04  0.124E-02    0.22       1.0  T
   8   -188.5975037 -0.202329E-04  0.339E-03    0.22       3.0  T
   9   -188.5975048 -0.102955E-05  0.167E-03    0.22       6.2  T
  10   -188.5975050 -0.227836E-06  0.908E-04    0.22      11.3  T
     SCC iter.                  ...        0 min,  0.108 sec
     gradient                   ...        0 min,  0.015 sec
 * total energy  :  -185.6715996 Eh     change       -0.7569596E-04 Eh
   gradient norm :     0.0332986 Eh/α   predicted    -0.1232442E-02 (1528.15%)
   displ. norm   :     0.2410341 α      lambda       -0.2252628E-02
   maximum displ.:     0.0910678 α      in ANC's #10, #6, #14, ...

........................................................................
.............................. CYCLE   20 ..............................
........................................................................
   1   -188.6171038 -0.188617E+03  0.131E-01    0.23       0.0  T
   2   -188.6168169  0.286805E-03  0.829E-02    0.25       1.0  T
   3   -188.6099379  0.687904E-02  0.207E-01    0.18       1.0  T
   4   -188.6168787 -0.694074E-02  0.471E-02    0.25       1.0  T
   5   -188.6171855 -0.306876E-03  0.198E-02    0.25       1.0  T
   6   -188.6172078 -0.222806E-04  0.148E-02    0.24       1.0  T
   7   -188.6172315 -0.236697E-04  0.736E-03    0.24       1.4  T
   8   -188.6172363 -0.478204E-05  0.388E-03    0.24       2.6  T
   9   -188.6172377 -0.146546E-05  0.197E-03    0.24       5.2  T
     SCC iter.                  ...        0 min,  0.097 sec
     gradient                   ...        0 min,  0.015 sec
 * total energy  :  -185.6724368 Eh     change       -0.8372042E-03 Eh
   gradient norm :     0.0215239 Eh/α   predicted    -0.1191751E-02 (  42.35%)
   displ. norm   :     0.3471077 α      lambda       -0.2036021E-02
   maximum displ.:     0.1074075 α      in ANC's #10, #26, #9, ...
 * RMSD in coord.:     0.7530663 α      energy gain  -0.9495416E-01 Eh

generating ANC from model Hessian ...
Using Lindh-Hessian (1995)
 Shifting diagonal of input Hessian by   5.056962653929844E-003
 Lowest  eigenvalues of input Hessian
    0.005000   -0.000000   -0.000000   -0.000000    0.000000    0.000000
    0.000000    0.005073    0.005083    0.005092    0.005124    0.005157
    0.005214    0.005279    0.005398    0.005461    0.005538    0.005710
 Highest eigenvalues
    2.272880    2.591126    2.638693    2.645156    2.654736    2.673427
 

........................................................................
.............................. CYCLE   21 ..............................
........................................................................
   1   -188.6200440 -0.188620E+03  0.195E-01    0.24       0.0  T
   2   -188.6196641  0.379959E-03  0.117E-01    0.26       1.0  T
   3   -188.6057214  0.139427E-01  0.287E-01    0.18       1.0  T
   4   -188.6194931 -0.137717E-01  0.793E-02    0.26       1.0  T
   5   -188.6200751 -0.582013E-03  0.456E-02    0.26       1.0  T
   6   -188.6203136 -0.238445E-03  0.242E-02    0.26       1.0  T
   7   -188.6203794 -0.658464E-04  0.113E-02    0.25       1.0  T
   8   -188.6203893 -0.982939E-05  0.599E-03    0.25       1.7  T
   9   -188.6203909 -0.165396E-05  0.373E-03    0.25       2.7  T
  10   -188.6203927 -0.176766E-05  0.150E-03    0.25       6.8  T
  11   -188.6203928 -0.103436E-06  0.818E-04    0.25      12.5  T
  12   -188.6203928 -0.244808E-07  0.444E-04    0.25      23.1  T
     SCC iter.                  ...        0 min,  0.131 sec
     gradient                   ...        0 min,  0.016 sec
 * total energy  :  -185.6722963 Eh     change        0.1405042E-03 Eh
   gradient norm :     0.0375432 Eh/α   predicted     0.0000000E+00 (-100.00%)
   displ. norm   :     0.2438333 α      lambda       -0.2099234E-02
   maximum displ.:     0.0801502 α      in ANC's #20, #36, #25, ...

........................................................................
.............................. CYCLE   22 ..............................
........................................................................
   1   -188.6190759 -0.188619E+03  0.142E-01    0.25       0.0  T
   2   -188.6190841 -0.818906E-05  0.796E-02    0.24       1.0  T
   3   -188.6171660  0.191813E-02  0.111E-01    0.25       1.0  T
   4   -188.6186410 -0.147506E-02  0.586E-02    0.23       1.0  T
   5   -188.6191699 -0.528864E-03  0.114E-02    0.25       1.0  T
   6   -188.6191785 -0.863737E-05  0.625E-03    0.24       1.6  T
   7   -188.6191744  0.416871E-05  0.690E-03    0.25       1.5  T
   8   -188.6191811 -0.673899E-05  0.249E-03    0.24       4.1  T
   9   -188.6191819 -0.811355E-06  0.870E-04    0.25      11.8  T
  10   -188.6191820 -0.396381E-07  0.455E-04    0.25      22.6  T
     SCC iter.                  ...        0 min,  0.108 sec
     gradient                   ...        0 min,  0.015 sec
 * total energy  :  -185.6735239 Eh     change       -0.1227648E-02 Eh
   gradient norm :     0.0135200 Eh/α   predicted    -0.1112023E-02 (  -9.42%)
   displ. norm   :     0.3196797 α      lambda       -0.1489689E-02
   maximum displ.:     0.1407447 α      in ANC's #25, #28, #20, ...

........................................................................
.............................. CYCLE   23 ..............................
........................................................................
   1   -188.6154045 -0.188615E+03  0.217E-01    0.24       0.0  T
   2   -188.6153528  0.517462E-04  0.122E-01    0.23       1.0  T
   3   -188.6100356  0.531721E-02  0.182E-01    0.26       1.0  T
   4   -188.6152769 -0.524129E-02  0.452E-02    0.24       1.0  T
   5   -188.6154900 -0.213074E-03  0.203E-02    0.24       1.0  T
   6   -188.6155148 -0.248770E-04  0.151E-02    0.24       1.0  T
   7   -188.6155381 -0.232445E-04  0.809E-03    0.24       1.3  T
   8   -188.6155472 -0.913770E-05  0.200E-03    0.24       5.1  T
   9   -188.6155475 -0.259738E-06  0.989E-04    0.24      10.4  T
  10   -188.6155475 -0.192587E-07  0.696E-04    0.24      14.7  T
     SCC iter.                  ...        0 min,  0.108 sec
     gradient                   ...        0 min,  0.015 sec
 * total energy  :  -185.6737529 Eh     change       -0.2289861E-03 Eh
   gradient norm :     0.0222768 Eh/α   predicted    -0.8209725E-03 ( 258.53%)
   displ. norm   :     0.2511476 α      lambda       -0.1411510E-02
   maximum displ.:     0.0807758 α      in ANC's #20, #1, #29, ...

........................................................................
.............................. CYCLE   24 ..............................
........................................................................
   1   -188.6167645 -0.188617E+03  0.181E-01    0.24       0.0  T
   2   -188.6167880 -0.235463E-04  0.994E-02    0.23       1.0  T
   3   -188.6159844  0.803636E-03  0.714E-02    0.24       1.0  T
   4   -188.6167722 -0.787821E-03  0.182E-02    0.23       1.0  T
   5   -188.6168058 -0.335733E-04  0.925E-03    0.24       1.1  T
   6   -188.6168014  0.438920E-05  0.928E-03    0.24       1.1  T
   7   -188.6168148 -0.134494E-04  0.309E-03    0.24       3.3  T
   8   -188.6168161 -0.123543E-05  0.114E-03    0.24       9.0  T
   9   -188.6168162 -0.818624E-07  0.631E-04    0.24      16.3  T
     SCC iter.                  ...        0 min,  0.097 sec
     gradient                   ...        0 min,  0.015 sec
 * total energy  :  -185.6740416 Eh     change       -0.2887427E-03 Eh
   gradient norm :     0.0197944 Eh/α   predicted    -0.7502709E-03 ( 159.84%)
   displ. norm   :     0.1905961 α      lambda       -0.1512995E-02
   maximum displ.:     0.0575680 α      in ANC's #40, #25, #42, ...

........................................................................
.............................. CYCLE   25 ..............................
........................................................................
   1   -188.6181150 -0.188618E+03  0.143E-01    0.24       0.0  T
   2   -188.6181334 -0.184197E-04  0.795E-02    0.24       1.0  T
   3   -188.6176905  0.442864E-03  0.552E-02    0.23       1.0  T
   4   -188.6179350 -0.244505E-03  0.363E-02    0.24       1.0  T
   5   -188.6181544 -0.219375E-03  0.743E-03    0.23       1.4  T
   6   -188.6181504  0.402346E-05  0.825E-03    0.24       1.2  T
   7   -188.6181595 -0.906626E-05  0.328E-03    0.24       3.1  T
   8   -188.6181606 -0.118137E-05  0.138E-03    0.24       7.4  T
   9   -188.6181608 -0.144762E-06  0.726E-04    0.24      14.1  T
     SCC iter.                  ...        0 min,  0.097 sec
     gradient                   ...        0 min,  0.015 sec
 * total energy  :  -185.6745333 Eh     change       -0.4916633E-03 Eh
   gradient norm :     0.0177366 Eh/α   predicted    -0.7839786E-03 (  59.45%)
   displ. norm   :     0.2138970 α      lambda       -0.9276613E-03
   maximum displ.:     0.0839332 α      in ANC's #20, #22, #25, ...

........................................................................
.............................. CYCLE   26 ..............................
........................................................................
   1   -188.6179431 -0.188618E+03  0.139E-01    0.23       0.0  T
   2   -188.6179585 -0.153824E-04  0.766E-02    0.23       1.0  T
   3   -188.6175923  0.366176E-03  0.508E-02    0.25       1.0  T
   4   -188.6178639 -0.271579E-03  0.258E-02    0.23       1.0  T
   5   -188.6179718 -0.107842E-03  0.598E-03    0.24       1.7  T
   6   -188.6179720 -0.255306E-06  0.483E-03    0.23       2.1  T
   7   -188.6179742 -0.216411E-05  0.303E-03    0.23       3.4  T
   8   -188.6179756 -0.140567E-05  0.738E-04    0.23      13.9  T
   9   -188.6179756 -0.293126E-07  0.433E-04    0.23      23.7  T
     SCC iter.                  ...        0 min,  0.097 sec
     gradient                   ...        0 min,  0.015 sec
 * total energy  :  -185.6748386 Eh     change       -0.3053365E-03 Eh
   gradient norm :     0.0124424 Eh/α   predicted    -0.4850535E-03 (  58.86%)
   displ. norm   :     0.3179706 α      lambda       -0.1095883E-02
   maximum displ.:     0.1142353 α      in ANC's #25, #20, #9, ...

........................................................................
.............................. CYCLE   27 ..............................
........................................................................
   1   -188.6167489 -0.188617E+03  0.187E-01    0.23       0.0  T
   2   -188.6167588 -0.993576E-05  0.104E-01    0.22       1.0  T
   3   -188.6148071  0.195171E-02  0.112E-01    0.25       1.0  T
   4   -188.6165993 -0.179215E-02  0.379E-02    0.22       1.0  T
   5   -188.6167989 -0.199589E-03  0.127E-02    0.23       1.0  T
   6   -188.6167985  0.377856E-06  0.117E-02    0.23       1.0  T
   7   -188.6168126 -0.141101E-04  0.663E-03    0.23       1.5  T
   8   -188.6168192 -0.660386E-05  0.141E-03    0.23       7.3  T
   9   -188.6168193 -0.127598E-06  0.739E-04    0.23      13.9  T
  10   -188.6168194 -0.248298E-07  0.397E-04    0.23      25.8  T
     SCC iter.                  ...        0 min,  0.108 sec
     gradient                   ...        0 min,  0.015 sec
 * total energy  :  -185.6749516 Eh     change       -0.1129260E-03 Eh
   gradient norm :     0.0198584 Eh/α   predicted    -0.6033603E-03 ( 434.30%)
   displ. norm   :     0.1972540 α      lambda       -0.1008990E-02
   maximum displ.:     0.0658072 α      in ANC's #9, #20, #5, ...

........................................................................
.............................. CYCLE   28 ..............................
........................................................................
   1   -188.6183933 -0.188618E+03  0.119E-01    0.23       0.0  T
   2   -188.6184038 -0.105564E-04  0.650E-02    0.23       1.0  T
   3   -188.6181855  0.218285E-03  0.390E-02    0.24       1.0  T
   4   -188.6183506 -0.165015E-03  0.199E-02    0.22       1.0  T
   5   -188.6184092 -0.586510E-04  0.677E-03    0.23       1.5  T
   6   -188.6184098 -0.584240E-06  0.525E-03    0.23       2.0  T
   7   -188.6184140 -0.419010E-05  0.208E-03    0.23       4.9  T
   8   -188.6184145 -0.566579E-06  0.769E-04    0.23      13.3  T
   9   -188.6184146 -0.357413E-07  0.466E-04    0.23      22.0  T
     SCC iter.                  ...        0 min,  0.097 sec
     gradient                   ...        0 min,  0.015 sec
 * total energy  :  -185.6754855 Eh     change       -0.5339296E-03 Eh
   gradient norm :     0.0126695 Eh/α   predicted    -0.5241312E-03 (  -1.84%)
   displ. norm   :     0.2486263 α      lambda       -0.6272551E-03
   maximum displ.:     0.0994091 α      in ANC's #9, #20, #5, ...

........................................................................
.............................. CYCLE   29 ..............................
........................................................................
   1   -188.6198599 -0.188620E+03  0.954E-02    0.23       0.0  T
   2   -188.6198906 -0.306920E-04  0.539E-02    0.23       1.0  T
   3   -188.6196502  0.240396E-03  0.419E-02    0.22       1.0  T
   4   -188.6193281  0.322082E-03  0.580E-02    0.25       1.0  T
   5   -188.6199060 -0.577936E-03  0.582E-03    0.23       1.8  T
   6   -188.6199063 -0.238007E-06  0.412E-03    0.23       2.5  T
   7   -188.6199055  0.778888E-06  0.402E-03    0.23       2.6  T
   8   -188.6199076 -0.211211E-05  0.152E-03    0.23       6.7  T
   9   -188.6199079 -0.246961E-06  0.781E-04    0.23      13.1  T
     SCC iter.                  ...        0 min,  0.097 sec
     gradient                   ...        0 min,  0.015 sec
 * total energy  :  -185.6757451 Eh     change       -0.2595675E-03 Eh
   gradient norm :     0.0132701 Eh/α   predicted    -0.3330153E-03 (  28.30%)
   displ. norm   :     0.3408955 α      lambda       -0.5047714E-03
   maximum displ.:     0.1313959 α      in ANC's #9, #5, #20, ...

........................................................................
.............................. CYCLE   30 ..............................
........................................................................
   1   -188.6190374 -0.188619E+03  0.133E-01    0.23       0.0  T
   2   -188.6190676 -0.301911E-04  0.720E-02    0.23       1.0  T
   3   -188.6190393  0.283152E-04  0.242E-02    0.23       1.0  T
   4   -188.6190246  0.146488E-04  0.198E-02    0.22       1.0  T
   5   -188.6190481 -0.234748E-04  0.143E-02    0.23       1.0  T
   6   -188.6190679 -0.198032E-04  0.835E-03    0.23       1.2  T
   7   -188.6190753 -0.745141E-05  0.492E-03    0.23       2.1  T
   8   -188.6190792 -0.389700E-05  0.114E-03    0.23       9.0  T
   9   -188.6190793 -0.105180E-06  0.644E-04    0.23      15.9  T
  10   -188.6190793 -0.594198E-08  0.410E-04    0.23      25.0  T
     SCC iter.                  ...        0 min,  0.108 sec
     gradient                   ...        0 min,  0.015 sec
 * total energy  :  -185.6760730 Eh     change       -0.3279286E-03 Eh
   gradient norm :     0.0115559 Eh/α   predicted    -0.2817184E-03 ( -14.09%)
   displ. norm   :     0.5218186 α      lambda       -0.7121700E-03
   maximum displ.:     0.2209621 α      in ANC's #9, #5, #20, ...

........................................................................
.............................. CYCLE   31 ..............................
........................................................................
   1   -188.6177675 -0.188618E+03  0.212E-01    0.23       0.0  T
   2   -188.6178179 -0.504569E-04  0.115E-01    0.22       1.0  T
   3   -188.6172512  0.566770E-03  0.652E-02    0.24       1.0  T
   4   -188.6172610 -0.981247E-05  0.590E-02    0.21       1.0  T
   5   -188.6178161 -0.555086E-03  0.162E-02    0.23       1.0  T
   6   -188.6178453 -0.292286E-04  0.653E-03    0.22       1.6  T
   7   -188.6178487 -0.340650E-05  0.224E-03    0.23       4.6  T
   8   -188.6178487  0.181862E-07  0.199E-03    0.23       5.1  T
   9   -188.6178489 -0.236487E-06  0.147E-03    0.23       7.0  T
     SCC iter.                  ...        0 min,  0.097 sec
     gradient                   ...        0 min,  0.015 sec
 * total energy  :  -185.6763599 Eh     change       -0.2869414E-03 Eh
   gradient norm :     0.0180907 Eh/α   predicted    -0.4530569E-03 (  57.89%)
   displ. norm   :     0.3814178 α      lambda       -0.7488736E-03
   maximum displ.:     0.1659735 α      in ANC's #5, #9, #10, ...

........................................................................
.............................. CYCLE   32 ..............................
........................................................................
   1   -188.6239350 -0.188624E+03  0.150E-01    0.23       0.0  T
   2   -188.6239652 -0.302250E-04  0.821E-02    0.23       1.0  T
   3   -188.6236174  0.347819E-03  0.486E-02    0.21       1.0  T
   4   -188.6236375 -0.200937E-04  0.454E-02    0.24       1.0  T
   5   -188.6239783 -0.340841E-03  0.806E-03    0.23       1.3  T
   6   -188.6239788 -0.415429E-06  0.557E-03    0.23       1.8  T
   7   -188.6239789 -0.155707E-06  0.494E-03    0.23       2.1  T
   8   -188.6239824 -0.352434E-05  0.171E-03    0.23       6.0  T
   9   -188.6239827 -0.255673E-06  0.891E-04    0.23      11.5  T
  10   -188.6239827 -0.527832E-07  0.534E-04    0.23      19.2  T
     SCC iter.                  ...        0 min,  0.108 sec
     gradient                   ...        0 min,  0.015 sec
 * total energy  :  -185.6764718 Eh     change       -0.1118382E-03 Eh
   gradient norm :     0.0186530 Eh/α   predicted    -0.4289222E-03 ( 283.52%)
   displ. norm   :     0.2676884 α      lambda       -0.8245279E-03
   maximum displ.:     0.1101350 α      in ANC's #5, #9, #20, ...

........................................................................
.............................. CYCLE   33 ..............................
........................................................................
   1   -188.6238679 -0.188624E+03  0.993E-02    0.23       0.0  T
   2   -188.6238724 -0.458890E-05  0.549E-02    0.23       1.0  T
   3   -188.6229835  0.888929E-03  0.735E-02    0.20       1.0  T
   4   -188.6237991 -0.815619E-03  0.241E-02    0.24       1.0  T
   5   -188.6238877 -0.885507E-04  0.598E-03    0.23       1.7  T
   6   -188.6238859  0.173297E-05  0.584E-03    0.23       1.8  T
   7   -188.6238889 -0.296627E-05  0.356E-03    0.23       2.9  T
   8   -188.6238907 -0.174187E-05  0.108E-03    0.23       9.5  T
   9   -188.6238907 -0.889437E-07  0.572E-04    0.23      17.9  T
     SCC iter.                  ...        0 min,  0.097 sec
     gradient                   ...        0 min,  0.015 sec
 * total energy  :  -185.6768608 Eh     change       -0.3890501E-03 Eh
   gradient norm :     0.0105202 Eh/α   predicted    -0.4418091E-03 (  13.56%)
   displ. norm   :     0.3583698 α      lambda       -0.4165023E-03
   maximum displ.:     0.1608537 α      in ANC's #5, #9, #6, ...

........................................................................
.............................. CYCLE   34 ..............................
........................................................................
   1   -188.6191751 -0.188619E+03  0.144E-01    0.23       0.0  T
   2   -188.6192283 -0.532139E-04  0.790E-02    0.23       1.0  T
   3   -188.6191498  0.785494E-04  0.291E-02    0.23       1.0  T
   4   -188.6191234  0.264375E-04  0.274E-02    0.22       1.0  T
   5   -188.6191804 -0.570205E-04  0.196E-02    0.23       1.0  T
   6   -188.6192286 -0.482702E-04  0.915E-03    0.23       1.1  T
   7   -188.6192368 -0.811128E-05  0.600E-03    0.23       1.7  T
   8   -188.6192414 -0.460222E-05  0.224E-03    0.23       4.6  T
   9   -188.6192418 -0.479353E-06  0.890E-04    0.23      11.5  T
  10   -188.6192419 -0.309385E-07  0.613E-04    0.23      16.7  T
     SCC iter.                  ...        0 min,  0.108 sec
     gradient                   ...        0 min,  0.015 sec
 * total energy  :  -185.6770025 Eh     change       -0.1416470E-03 Eh
   gradient norm :     0.0140573 Eh/α   predicted    -0.2349968E-03 (  65.90%)
   displ. norm   :     0.3119446 α      lambda       -0.5523687E-03
   maximum displ.:     0.1606570 α      in ANC's #5, #9, #6, ...

........................................................................
.............................. CYCLE   35 ..............................
........................................................................
   1   -188.6261028 -0.188626E+03  0.109E-01    0.23       0.0  T
   2   -188.6261725 -0.696655E-04  0.601E-02    0.24       1.0  T
   3   -188.6250969  0.107557E-02  0.842E-02    0.21       1.0  T
   4   -188.6257334 -0.636437E-03  0.552E-02    0.25       1.0  T
   5   -188.6262101 -0.476743E-03  0.115E-02    0.24       1.0  T
   6   -188.6262116 -0.146269E-05  0.887E-03    0.23       1.2  T
   7   -188.6262177 -0.614675E-05  0.637E-03    0.23       1.6  T
   8   -188.6262231 -0.537134E-05  0.232E-03    0.23       4.4  T
   9   -188.6262234 -0.290934E-06  0.141E-03    0.23       7.3  T
  10   -188.6262236 -0.170092E-06  0.697E-04    0.23      14.7  T
     SCC iter.                  ...        0 min,  0.108 sec
     gradient                   ...        0 min,  0.015 sec
 * total energy  :  -185.6768710 Eh     change        0.1315045E-03 Eh
   gradient norm :     0.0246860 Eh/α   predicted    -0.3030640E-03 (-330.46%)
   displ. norm   :     0.2611101 α      lambda       -0.9548875E-03
   maximum displ.:     0.0870590 α      in ANC's #5, #22, #30, ...

........................................................................
.............................. CYCLE   36 ..............................
........................................................................
   1   -188.6217395 -0.188622E+03  0.945E-02    0.23       0.0  T
   2   -188.6217528 -0.132420E-04  0.529E-02    0.23       1.0  T
   3   -188.6213930  0.359749E-03  0.491E-02    0.25       1.0  T
   4   -188.6215952 -0.202164E-03  0.333E-02    0.22       1.0  T
   5   -188.6217485 -0.153344E-03  0.115E-02    0.24       1.0  T
   6   -188.6217553 -0.674620E-05  0.890E-03    0.23       1.2  T
   7   -188.6217665 -0.112451E-04  0.358E-03    0.23       2.9  T
   8   -188.6217679 -0.140473E-05  0.878E-04    0.23      11.7  T
   9   -188.6217680 -0.341505E-07  0.534E-04    0.23      19.2  T
     SCC iter.                  ...        0 min,  0.097 sec
     gradient                   ...        0 min,  0.015 sec
 * total energy  :  -185.6772880 Eh     change       -0.4170011E-03 Eh
   gradient norm :     0.0108971 Eh/α   predicted    -0.5099988E-03 (  22.30%)
   displ. norm   :     0.1903898 α      lambda       -0.4160970E-03
   maximum displ.:     0.0949021 α      in ANC's #5, #9, #10, ...

........................................................................
.............................. CYCLE   37 ..............................
........................................................................
   1   -188.6269793 -0.188627E+03  0.686E-02    0.23       0.0  T
   2   -188.6269874 -0.808911E-05  0.405E-02    0.24       1.0  T
   3   -188.6263258  0.661583E-03  0.658E-02    0.21       1.0  T
   4   -188.6268315 -0.505685E-03  0.342E-02    0.24       1.0  T
   5   -188.6269977 -0.166174E-03  0.115E-02    0.24       1.0  T
   6   -188.6270121 -0.144578E-04  0.634E-03    0.23       1.6  T
   7   -188.6270177 -0.551439E-05  0.218E-03    0.23       4.7  T
   8   -188.6270180 -0.299414E-06  0.992E-04    0.23      10.3  T
   9   -188.6270180 -0.449504E-07  0.570E-04    0.23      18.0  T
     SCC iter.                  ...        0 min,  0.098 sec
     gradient                   ...        0 min,  0.015 sec
 * total energy  :  -185.6773671 Eh     change       -0.7916500E-04 Eh
   gradient norm :     0.0139485 Eh/α   predicted    -0.2155909E-03 ( 172.33%)
   displ. norm   :     0.3609712 α      lambda       -0.3324896E-03
   maximum displ.:     0.1747350 α      in ANC's #5, #9, #6, ...

........................................................................
.............................. CYCLE   38 ..............................
........................................................................
   1   -188.6214028 -0.188621E+03  0.111E-01    0.23       0.0  T
   2   -188.6214130 -0.102134E-04  0.600E-02    0.24       1.0  T
   3   -188.6212913  0.121664E-03  0.293E-02    0.23       1.0  T
   4   -188.6213015 -0.102123E-04  0.265E-02    0.24       1.0  T
   5   -188.6214137 -0.112161E-03  0.735E-03    0.23       1.4  T
   6   -188.6214107  0.300442E-05  0.750E-03    0.24       1.4  T
   7   -188.6214176 -0.691756E-05  0.316E-03    0.23       3.2  T
   8   -188.6214190 -0.142343E-05  0.818E-04    0.24      12.5  T
   9   -188.6214190 -0.150938E-07  0.613E-04    0.24      16.7  T
     SCC iter.                  ...        0 min,  0.098 sec
     gradient                   ...        0 min,  0.015 sec
 * total energy  :  -185.6775760 Eh     change       -0.2088918E-03 Eh
   gradient norm :     0.0077812 Eh/α   predicted    -0.1878957E-03 ( -10.05%)
   displ. norm   :     0.3583868 α      lambda       -0.2332906E-03
   maximum displ.:     0.1922462 α      in ANC's #5, #9, #6, ...

........................................................................
.............................. CYCLE   39 ..............................
........................................................................
   1   -188.6229494 -0.188623E+03  0.963E-02    0.24       0.0  T
   2   -188.6229536 -0.422295E-05  0.519E-02    0.24       1.0  T
   3   -188.6223544  0.599197E-03  0.615E-02    0.22       1.0  T
   4   -188.6228591 -0.504743E-03  0.258E-02    0.25       1.0  T
   5   -188.6229616 -0.102497E-03  0.806E-03    0.24       1.3  T
   6   -188.6229610  0.602306E-06  0.718E-03    0.24       1.4  T
   7   -188.6229653 -0.432991E-05  0.453E-03    0.24       2.3  T
   8   -188.6229681 -0.275734E-05  0.116E-03    0.24       8.9  T
   9   -188.6229682 -0.621806E-07  0.818E-04    0.24      12.5  T
     SCC iter.                  ...        0 min,  0.098 sec
     gradient                   ...        0 min,  0.015 sec
 * total energy  :  -185.6776939 Eh     change       -0.1179097E-03 Eh
   gradient norm :     0.0081728 Eh/α   predicted    -0.1316311E-03 (  11.64%)
   displ. norm   :     0.3724106 α      lambda       -0.1848256E-03
   maximum displ.:     0.2006942 α      in ANC's #5, #9, #6, ...

........................................................................
.............................. CYCLE   40 ..............................
........................................................................
   1   -188.6231621 -0.188623E+03  0.989E-02    0.24       0.0  T
   2   -188.6231600  0.213766E-05  0.539E-02    0.24       1.0  T
   3   -188.6222538  0.906156E-03  0.739E-02    0.22       1.0  T
   4   -188.6231427 -0.888833E-03  0.152E-02    0.24       1.0  T
   5   -188.6231738 -0.311427E-04  0.520E-03    0.24       2.0  T
   6   -188.6231741 -0.307662E-06  0.321E-03    0.24       3.2  T
   7   -188.6231746 -0.479348E-06  0.194E-03    0.24       5.3  T
   8   -188.6231749 -0.345023E-06  0.119E-03    0.24       8.6  T
     SCC iter.                  ...        0 min,  0.087 sec
     gradient                   ...        0 min,  0.015 sec
 * total energy  :  -185.6778396 Eh     change       -0.1457099E-03 Eh
   gradient norm :     0.0051733 Eh/α   predicted    -0.1052415E-03 ( -27.77%)
   displ. norm   :     0.4296353 α      lambda       -0.1853469E-03
   maximum displ.:     0.2418724 α      in ANC's #5, #6, #9, ...

........................................................................
.............................. CYCLE   41 ..............................
........................................................................
   1   -188.6245570 -0.188625E+03  0.110E-01    0.24       0.0  T
   2   -188.6245571 -0.867934E-07  0.598E-02    0.24       1.0  T
   3   -188.6236259  0.931215E-03  0.747E-02    0.22       1.0  T
   4   -188.6245458 -0.919890E-03  0.146E-02    0.24       1.0  T
   5   -188.6245698 -0.240512E-04  0.624E-03    0.24       1.6  T
   6   -188.6245712 -0.139526E-05  0.361E-03    0.24       2.8  T
   7   -188.6245721 -0.875865E-06  0.211E-03    0.24       4.9  T
   8   -188.6245724 -0.316920E-06  0.141E-03    0.24       7.3  T
     SCC iter.                  ...        0 min,  0.088 sec
     gradient                   ...        0 min,  0.015 sec
 * total energy  :  -185.6779749 Eh     change       -0.1352982E-03 Eh
   gradient norm :     0.0045820 Eh/α   predicted    -0.1097828E-03 ( -18.86%)
   displ. norm   :     0.3964372 α      lambda       -0.1276147E-03
   maximum displ.:     0.2297390 α      in ANC's #5, #6, #3, ...

........................................................................
.............................. CYCLE   42 ..............................
........................................................................
   1   -188.6261322 -0.188626E+03  0.945E-02    0.24       0.0  T
   2   -188.6261342 -0.203580E-05  0.503E-02    0.24       1.0  T
   3   -188.6257590  0.375176E-03  0.472E-02    0.23       1.0  T
   4   -188.6261287 -0.369694E-03  0.109E-02    0.24       1.0  T
   5   -188.6261347 -0.597034E-05  0.721E-03    0.24       1.4  T
   6   -188.6261349 -0.169534E-06  0.651E-03    0.24       1.6  T
   7   -188.6261412 -0.629379E-05  0.180E-03    0.24       5.7  T
   8   -188.6261414 -0.271794E-06  0.942E-04    0.24      10.9  T
   9   -188.6261414 -0.812216E-08  0.741E-04    0.24      13.9  T
     SCC iter.                  ...        0 min,  0.098 sec
     gradient                   ...        0 min,  0.015 sec
 * total energy  :  -185.6780822 Eh     change       -0.1072566E-03 Eh
   gradient norm :     0.0049870 Eh/α   predicted    -0.7383857E-04 ( -31.16%)
   displ. norm   :     0.3891389 α      lambda       -0.1310766E-03
   maximum displ.:     0.2280711 α      in ANC's #5, #6, #3, ...
 * RMSD in coord.:     0.6097262 α      energy gain  -0.5645428E-02 Eh

generating ANC from model Hessian ...
Using Lindh-Hessian (1995)
 Shifting diagonal of input Hessian by   5.090609824418447E-003
 Lowest  eigenvalues of input Hessian
    0.005000    0.005082   -0.000000   -0.000000   -0.000000   -0.000000
   -0.000000    0.000000    0.005112    0.005117    0.005159    0.005172
    0.005268    0.005312    0.005426    0.005470    0.005582    0.005653
 Highest eigenvalues
    2.278717    2.604831    2.642810    2.646872    2.648740    2.676651
 

........................................................................
.............................. CYCLE   43 ..............................
........................................................................
   1   -188.6256688 -0.188626E+03  0.929E-02    0.24       0.0  T
   2   -188.6256750 -0.621480E-05  0.488E-02    0.24       1.0  T
   3   -188.6256605  0.144701E-04  0.130E-02    0.24       1.0  T
   4   -188.6256488  0.116908E-04  0.141E-02    0.24       1.0  T
   5   -188.6256730 -0.241935E-04  0.615E-03    0.24       1.7  T
   6   -188.6256772 -0.412016E-05  0.191E-03    0.24       5.4  T
   7   -188.6256773 -0.136934E-06  0.136E-03    0.24       7.6  T
   8   -188.6256774 -0.111904E-06  0.105E-03    0.24       9.8  T
   9   -188.6256775 -0.815992E-07  0.628E-04    0.24      16.3  T
  10   -188.6256775 -0.187781E-07  0.326E-04    0.24      31.5  T
     SCC iter.                  ...        0 min,  0.111 sec
     gradient                   ...        0 min,  0.017 sec
 * total energy  :  -185.6781926 Eh     change       -0.1103615E-03 Eh
   gradient norm :     0.0048286 Eh/α   predicted     0.0000000E+00 (-100.00%)
   displ. norm   :     0.1108432 α      lambda       -0.1053056E-03
   maximum displ.:     0.0703924 α      in ANC's #5, #2, #9, ...

........................................................................
.............................. CYCLE   44 ..............................
........................................................................
   1   -188.6248548 -0.188625E+03  0.555E-02    0.24       0.0  T
   2   -188.6248567 -0.192399E-05  0.308E-02    0.24       1.0  T
   3   -188.6247405  0.116226E-03  0.273E-02    0.24       1.0  T
   4   -188.6248561 -0.115627E-03  0.491E-03    0.24       2.1  T
   5   -188.6248591 -0.292266E-05  0.247E-03    0.24       4.2  T
   6   -188.6248590  0.572036E-07  0.228E-03    0.24       4.5  T
     SCC iter.                  ...        0 min,  0.067 sec
     gradient                   ...        0 min,  0.015 sec
 * total energy  :  -185.6782405 Eh     change       -0.4792019E-04 Eh
   gradient norm :     0.0034697 Eh/α   predicted    -0.5332441E-04 (  11.28%)
   displ. norm   :     0.1578747 α      lambda       -0.2085905E-03
   maximum displ.:     0.0778678 α      in ANC's #5, #21, #26, ...

........................................................................
.............................. CYCLE   45 ..............................
........................................................................
   1   -188.6240321 -0.188624E+03  0.781E-02    0.24       0.0  T
   2   -188.6240317  0.426249E-06  0.440E-02    0.24       1.0  T
   3   -188.6235469  0.484795E-03  0.559E-02    0.24       1.0  T
   4   -188.6240212 -0.474336E-03  0.121E-02    0.24       1.0  T
   5   -188.6240401 -0.188681E-04  0.492E-03    0.24       2.1  T
   6   -188.6240397  0.420803E-06  0.457E-03    0.24       2.2  T
   7   -188.6240422 -0.254012E-05  0.207E-03    0.24       5.0  T
   8   -188.6240428 -0.567591E-06  0.638E-04    0.24      16.1  T
   9   -188.6240428 -0.203204E-07  0.343E-04    0.24      29.9  T
     SCC iter.                  ...        0 min,  0.099 sec
     gradient                   ...        0 min,  0.016 sec
 * total energy  :  -185.6783266 Eh     change       -0.8612123E-04 Eh
   gradient norm :     0.0101171 Eh/α   predicted    -0.1068966E-03 (  24.12%)
   displ. norm   :     0.1096279 α      lambda       -0.1281146E-03
   maximum displ.:     0.0604445 α      in ANC's #5, #21, #2, ...

........................................................................
.............................. CYCLE   46 ..............................
........................................................................
   1   -188.6238943 -0.188624E+03  0.510E-02    0.24       0.0  T
   2   -188.6238938  0.480997E-06  0.290E-02    0.23       1.0  T
   3   -188.6236768  0.216991E-03  0.370E-02    0.24       1.0  T
   4   -188.6238947 -0.217936E-03  0.502E-03    0.24       2.0  T
   5   -188.6238969 -0.214301E-05  0.308E-03    0.24       3.3  T
   6   -188.6238969 -0.344605E-07  0.284E-03    0.24       3.6  T
   7   -188.6238980 -0.112701E-05  0.800E-04    0.24      12.8  T
     SCC iter.                  ...        0 min,  0.078 sec
     gradient                   ...        0 min,  0.015 sec
 * total energy  :  -185.6783879 Eh     change       -0.6125226E-04 Eh
   gradient norm :     0.0056484 Eh/α   predicted    -0.6482811E-04 (   5.84%)
   displ. norm   :     0.2167519 α      lambda       -0.2387443E-03
   maximum displ.:     0.1214367 α      in ANC's #5, #21, #6, ...

........................................................................
.............................. CYCLE   47 ..............................
........................................................................
   1   -188.6242932 -0.188624E+03  0.959E-02    0.23       0.0  T
   2   -188.6242924  0.778841E-06  0.541E-02    0.23       1.0  T
   3   -188.6235747  0.717752E-03  0.674E-02    0.25       1.0  T
   4   -188.6242941 -0.719411E-03  0.996E-03    0.23       1.0  T
   5   -188.6243056 -0.114855E-04  0.453E-03    0.23       2.3  T
   6   -188.6243036  0.195020E-05  0.530E-03    0.23       1.9  T
   7   -188.6243076 -0.392294E-05  0.162E-03    0.23       6.3  T
   8   -188.6243079 -0.327318E-06  0.562E-04    0.23      18.3  T
   9   -188.6243079 -0.133283E-07  0.305E-04    0.23      33.6  T
     SCC iter.                  ...        0 min,  0.099 sec
     gradient                   ...        0 min,  0.015 sec
 * total energy  :  -185.6784171 Eh     change       -0.2921899E-04 Eh
   gradient norm :     0.0114607 Eh/α   predicted    -0.1249820E-03 ( 327.74%)
   displ. norm   :     0.1335924 α      lambda       -0.2541233E-03
   maximum displ.:     0.0734444 α      in ANC's #5, #2, #20, ...

........................................................................
.............................. CYCLE   48 ..............................
........................................................................
   1   -188.6255368 -0.188626E+03  0.681E-02    0.23       0.0  T
   2   -188.6255424 -0.559407E-05  0.379E-02    0.23       1.0  T
   3   -188.6254710  0.713946E-04  0.226E-02    0.24       1.0  T
   4   -188.6254934 -0.223878E-04  0.177E-02    0.23       1.0  T
   5   -188.6255451 -0.516371E-04  0.332E-03    0.23       3.1  T
   6   -188.6255454 -0.353720E-06  0.256E-03    0.23       4.0  T
   7   -188.6255455 -0.477295E-07  0.225E-03    0.23       4.6  T
     SCC iter.                  ...        0 min,  0.078 sec
     gradient                   ...        0 min,  0.015 sec
 * total energy  :  -185.6785035 Eh     change       -0.8645984E-04 Eh
   gradient norm :     0.0097995 Eh/α   predicted    -0.1293306E-03 (  49.58%)
   displ. norm   :     0.1093001 α      lambda       -0.1826597E-03
   maximum displ.:     0.0619015 α      in ANC's #5, #2, #4, ...

........................................................................
.............................. CYCLE   49 ..............................
........................................................................
   1   -188.6253196 -0.188625E+03  0.475E-02    0.23       0.0  T
   2   -188.6253218 -0.219994E-05  0.263E-02    0.23       1.0  T
   3   -188.6253133  0.849041E-05  0.901E-03    0.23       1.1  T
   4   -188.6253179 -0.458402E-05  0.576E-03    0.23       1.8  T
   5   -188.6253215 -0.361819E-05  0.339E-03    0.23       3.0  T
   6   -188.6253228 -0.122781E-05  0.174E-03    0.23       5.9  T
   7   -188.6253230 -0.224690E-06  0.107E-03    0.23       9.6  T
     SCC iter.                  ...        0 min,  0.077 sec
     gradient                   ...        0 min,  0.015 sec
 * total energy  :  -185.6785822 Eh     change       -0.7863484E-04 Eh
   gradient norm :     0.0041667 Eh/α   predicted    -0.9242113E-04 (  17.53%)
   displ. norm   :     0.1493225 α      lambda       -0.1161624E-03
   maximum displ.:     0.0908518 α      in ANC's #5, #2, #4, ...

........................................................................
.............................. CYCLE   50 ..............................
........................................................................
   1   -188.6251589 -0.188625E+03  0.590E-02    0.23       0.0  T
   2   -188.6251630 -0.406669E-05  0.326E-02    0.23       1.0  T
   3   -188.6251040  0.589767E-04  0.204E-02    0.24       1.0  T
   4   -188.6251249 -0.208603E-04  0.157E-02    0.23       1.0  T
   5   -188.6251648 -0.398967E-04  0.300E-03    0.23       3.4  T
   6   -188.6251635  0.129092E-05  0.387E-03    0.23       2.7  T
   7   -188.6251657 -0.220365E-05  0.115E-03    0.23       8.9  T
   8   -188.6251659 -0.161082E-06  0.344E-04    0.23      29.8  T
     SCC iter.                  ...        0 min,  0.088 sec
     gradient                   ...        0 min,  0.015 sec
 * total energy  :  -185.6785972 Eh     change       -0.1504045E-04 Eh
   gradient norm :     0.0068157 Eh/α   predicted    -0.5937650E-04 ( 294.78%)
   displ. norm   :     0.1519809 α      lambda       -0.1629443E-03
   maximum displ.:     0.0912199 α      in ANC's #5, #2, #21, ...

........................................................................
.............................. CYCLE   51 ..............................
........................................................................
   1   -188.6257626 -0.188626E+03  0.530E-02    0.23       0.0  T
   2   -188.6257653 -0.274157E-05  0.293E-02    0.23       1.0  T
   3   -188.6257549  0.104274E-04  0.903E-03    0.23       1.1  T
   4   -188.6257593 -0.442948E-05  0.684E-03    0.23       1.5  T
   5   -188.6257658 -0.643901E-05  0.267E-03    0.23       3.8  T
   6   -188.6257659 -0.957675E-07  0.222E-03    0.23       4.6  T
   7   -188.6257666 -0.712283E-06  0.788E-04    0.23      13.0  T
     SCC iter.                  ...        0 min,  0.077 sec
     gradient                   ...        0 min,  0.015 sec
 * total energy  :  -185.6786716 Eh     change       -0.7435759E-04 Eh
   gradient norm :     0.0042728 Eh/α   predicted    -0.8335679E-04 (  12.10%)
   displ. norm   :     0.1878163 α      lambda       -0.1696237E-03
   maximum displ.:     0.1153782 α      in ANC's #5, #2, #4, ...

........................................................................
.............................. CYCLE   52 ..............................
........................................................................
   1   -188.6257081 -0.188626E+03  0.617E-02    0.23       0.0  T
   2   -188.6257164 -0.828890E-05  0.341E-02    0.23       1.0  T
   3   -188.6257071  0.933388E-05  0.130E-02    0.23       1.0  T
   4   -188.6256875  0.195639E-04  0.140E-02    0.24       1.0  T
   5   -188.6257175 -0.300451E-04  0.422E-03    0.23       2.4  T
   6   -188.6257192 -0.167782E-05  0.209E-03    0.23       4.9  T
   7   -188.6257193 -0.321681E-07  0.168E-03    0.23       6.1  T
     SCC iter.                  ...        0 min,  0.078 sec
     gradient                   ...        0 min,  0.015 sec
 * total energy  :  -185.6786986 Eh     change       -0.2707066E-04 Eh
   gradient norm :     0.0093425 Eh/α   predicted    -0.8780396E-04 ( 224.35%)
   displ. norm   :     0.1136624 α      lambda       -0.1267639E-03
   maximum displ.:     0.0694951 α      in ANC's #5, #2, #4, ...

........................................................................
.............................. CYCLE   53 ..............................
........................................................................
   1   -188.6256611 -0.188626E+03  0.342E-02    0.23       0.0  T
   2   -188.6256627 -0.160185E-05  0.189E-02    0.23       1.0  T
   3   -188.6256248  0.379266E-04  0.164E-02    0.22       1.0  T
   4   -188.6256406 -0.157581E-04  0.120E-02    0.23       1.0  T
   5   -188.6256629 -0.223557E-04  0.302E-03    0.23       3.4  T
   6   -188.6256631 -0.207323E-06  0.269E-03    0.23       3.8  T
   7   -188.6256641 -0.101929E-05  0.822E-04    0.23      12.5  T
     SCC iter.                  ...        0 min,  0.078 sec
     gradient                   ...        0 min,  0.015 sec
 * total energy  :  -185.6787900 Eh     change       -0.9132428E-04 Eh
   gradient norm :     0.0026864 Eh/α   predicted    -0.6419551E-04 ( -29.71%)
   displ. norm   :     0.2301994 α      lambda       -0.9731954E-04
   maximum displ.:     0.1464296 α      in ANC's #5, #2, #4, ...

........................................................................
.............................. CYCLE   54 ..............................
........................................................................
[...]
     4   7 N      0.911    -0.229    26.003     7.375
     5   6 C      1.935     0.118    28.172     8.572
     6   7 N      0.911    -0.227    25.974     7.371
     7   6 C      3.045     0.004    27.888     8.661
     8   6 C      3.039    -0.021    28.492     8.755
     9   6 C      2.910    -0.017    28.442     8.745
    10   6 C      3.149     0.008    27.570     8.589
    11   6 C      3.008     0.030    27.319     8.574
    12   6 C      2.933    -0.034    28.835     8.807
    13  16 S      2.397     0.025   140.049    19.918
    14   6 C      2.934     0.090    26.000     8.362
    15   6 C      3.102    -0.056    29.259     8.864
    16  35 Br     1.140    -0.107   187.988    22.107
    17   6 C      2.877     0.219    23.391     7.929
    18   8 O      0.856    -0.412    21.929     6.278
    19   6 C      3.024    -0.060    29.469     8.905
    20   6 C      2.836     0.039    27.117     8.534
    21   7 N      2.725    -0.081    22.815     7.094
    22   6 C      2.938     0.063    26.591     8.457
    23  16 S      2.256     0.078   137.901    19.765
    24   6 C      2.942    -0.001    28.047     8.686
    25   7 N      2.793     0.542    13.570     5.471
    26   8 O      0.932    -0.387    21.382     6.201
    27   8 O      0.937    -0.388    21.401     6.204
    28   6 C      3.065    -0.034    28.777     8.797
    29   6 C      3.107    -0.010    28.125     8.689
    30   6 C      2.902    -0.040    28.991     8.829
    31   6 C      2.925    -0.033    28.833     8.806
    32   6 C      2.997     0.027    27.390     8.585
    33   6 C      3.114    -0.001    27.902     8.653
    34   6 C      1.904     0.113    28.323     8.595
    35   7 N      0.911    -0.210    25.564     7.313
    36   6 C      3.243    -0.008    27.246     8.459
    37   6 C      3.041     0.031    27.262     8.564
    38  16 S      2.275    -0.001   141.114    19.993
    39  16 S      2.244    -0.022   141.982    20.055
    40   6 C      3.041     0.029    27.310     8.571
    41   6 C      3.235    -0.007    27.326     8.483
    42   6 C      3.108    -0.015    28.243     8.707
    43   6 C      1.904     0.109    28.419     8.610
    44   7 N      0.911    -0.230    26.044     7.381
    45   6 C      2.988     0.036    27.191     8.554
    46  16 S      2.478    -0.018   141.805    20.042
    47   6 C      2.958    -0.059    29.468     8.904
    48   6 C      2.978     0.043    27.032     8.528
    49   6 C      3.072    -0.043    28.982     8.827
    50   6 C      3.060    -0.036    28.843     8.807
    51   6 C      3.030     0.023    27.458     8.595
    52  16 S      2.553    -0.060   143.546    20.165
    53   6 C      3.028     0.030    27.297     8.570
    54   6 C      3.062    -0.041    28.945     8.822
    55   6 C      3.076    -0.038    28.864     8.808
    56   6 C      2.973     0.035    27.210     8.556
    57  16 S      2.339    -0.059   143.484    20.161
    58   6 C      2.924    -0.040    29.002     8.831
    59   6 C      3.062     0.005    27.852     8.654
    60   6 C      3.008    -0.041    29.003     8.834
    61   6 C      3.086    -0.003    27.995     8.673
    62   6 C      2.901    -0.010    28.274     8.718
    63   6 C      3.073    -0.006    28.092     8.690
    64   6 C      3.021    -0.021    28.511     8.759
    65   6 C      3.065     0.006    27.824     8.650
    66   6 C      3.009    -0.037    28.905     8.819
    67   6 C      3.090    -0.002    27.974     8.670
    68   6 C      2.901    -0.008    28.210     8.709
    69   6 C      3.079    -0.004    28.037     8.681
    70   6 C      3.013    -0.023    28.566     8.767
    71   6 C      2.890    -0.029    28.713     8.785
    72   6 C      2.839    -0.085    30.121     8.994
    73   1 H      0.926     0.069     2.095     2.263
    74   1 H      0.926     0.068     2.102     2.267
    75   1 H      0.926     0.070     2.082     2.257
    76   1 H      0.925     0.080     1.978     2.200
    77   1 H      0.858     0.256     0.860     1.453
    78   1 H      0.926     0.094     1.839     2.121
    79   1 H      0.925     0.059     2.208     2.324
    80   1 H      0.926     0.065     2.136     2.285
    81   1 H      0.925     0.061     2.189     2.314
    82   1 H      0.926     0.048     2.341     2.393
    83   1 H      0.926     0.045     2.388     2.416
    84   1 H      0.926     0.043     2.412     2.429
    85   1 H      0.926     0.044     2.393     2.419
    86   1 H      0.925     0.049     2.330     2.387
    87   1 H      0.926     0.037     2.492     2.469
    88   1 H      0.926     0.044     2.396     2.421
    89   1 H      0.926     0.043     2.408     2.427
    90   1 H      0.926     0.038     2.471     2.458
    91   1 H      0.926     0.047     2.358     2.401
    92   1 H      0.926     0.056     2.244     2.343
    93   1 H      0.925     0.036     2.497     2.471
    94   1 H      0.926     0.041     2.433     2.439
    95   1 H      0.926     0.039     2.458     2.452

 Mol. C6AA /au·bohr⁶  :     215745.846750
 Mol. C8AA /au·bohr⁸  :    6612222.829157
 Mol. α(0) /au        :        753.087407


Wiberg/Mayer (AO) data.
largest (>0.10) Wiberg bond orders for each atom
          total WBO             WBO to atom ...
     1  C   3.969        C    2 1.482    C   19 1.144    C    7 1.089
     2  C   3.945        C    1 1.482    C    3 1.098    C    5 1.098
     3  C   3.946        N    4 2.767    C    2 1.098
     4  N   2.969        C    3 2.767
     5  C   3.947        N    6 2.766    C    2 1.098
     6  N   2.975        C    5 2.766
     7  C   3.977        C   12 1.434    C    8 1.239    C    1 1.089
     8  C   3.979        C    9 1.467    C    7 1.239    C   17 1.044
     9  C   3.967        C    8 1.467    C   10 1.316    H   73 0.962
    10  C   3.975        C    9 1.316    C   11 1.266    C   15 1.205
    11  C   3.949        C   12 1.372    C   10 1.266    S   13 1.125
    12  C   3.970        C    7 1.434    C   11 1.372    H   74 0.957
    13  S   2.564        C   14 1.134    C   11 1.125
    14  C   3.902        C   15 1.607    S   13 1.134    Br  16 1.031
    15  C   3.973        C   14 1.607    C   10 1.205    H   75 0.959
    16  Br  1.172        C   14 1.031
    17  C   3.921        O   18 1.668    C   19 1.079    C    8 1.044
    18  O   2.035        C   17 1.668
    19  C   3.942        C   20 1.467    C    1 1.144    C   17 1.079
    20  C   3.924        C   19 1.467    N   21 1.303    H   76 0.944
    21  N   3.585        C   20 1.303    C   22 1.196    H   77 0.823
    22  C   3.916        C   29 1.326    N   21 1.196    S   23 1.176
    23  S   2.645        C   22 1.176    C   24 1.113    C   28 0.100
    24  C   3.897        C   28 1.502    S   23 1.113    N   25 1.036
    25  N   3.908        O   26 1.420    O   27 1.413    C   24 1.036
    26  O   1.908        N   25 1.420    O   27 0.341
    27  O   1.915        N   25 1.413    O   26 0.341
    28  C   3.967        C   24 1.502    C   29 1.280    H   78 0.952    S   23 0.100
    29  C   3.963        C   22 1.326    C   28 1.280    C   30 1.155
    30  C   3.973        C   31 1.667    C   29 1.155    H   79 0.946
    31  C   3.958        C   30 1.667    C   32 1.198    H   80 0.951
    32  C   3.942        C   33 1.400    C   31 1.198    S   38 1.113
    33  C   3.950        C   32 1.400    C   36 1.194    C   34 1.110
    34  C   3.952        N   35 2.788    C   33 1.110
    35  N   2.999        C   34 2.788
    36  C   3.968        C   37 1.384    C   33 1.194    C   41 1.151
    37  C   3.892        C   36 1.384    S   38 1.160    S   39 1.134
    38  S   2.595        C   37 1.160    C   32 1.113
    39  S   2.536        C   37 1.134    C   40 1.115
    40  C   3.858        C   41 1.385    S   46 1.146    S   39 1.115
    41  C   3.970        C   40 1.385    C   42 1.199    C   36 1.151
    42  C   3.893        C   45 1.331    C   41 1.199    C   43 1.128
    43  C   3.949        N   44 2.764    C   42 1.128
    44  N   2.964        C   43 2.764
    45  C   3.941        C   42 1.331    C   47 1.292    S   46 1.096
    46  S   2.587        C   40 1.146    C   45 1.096
    47  C   3.879        C   48 1.454    C   45 1.292    H   81 0.946
    48  C   3.946        C   47 1.454    C   49 1.233    S   52 1.093
    49  C   3.919        C   50 1.572    C   48 1.233    H   82 0.963
    50  C   3.956        C   49 1.572    C   51 1.260    H   83 0.962
    51  C   3.906        C   53 1.375    C   50 1.260    S   52 1.074
    52  S   2.510        C   48 1.093    C   51 1.074
    53  C   3.914        C   51 1.375    C   54 1.251    S   57 1.104
    54  C   3.947        C   55 1.580    C   53 1.251    H   84 0.962
    55  C   3.921        C   54 1.580    C   56 1.232    H   85 0.964
    56  C   3.926        C   58 1.480    C   55 1.232    S   57 1.067
    57  S   2.477        C   53 1.104    C   56 1.067
    58  C   3.881        C   56 1.480    C   59 1.251    H   86 0.955
    59  C   3.963        C   60 1.383    C   58 1.251    C   70 1.180
    60  C   3.828        C   59 1.383    C   61 1.240    H   87 0.972
    61  C   3.969        C   62 1.450    C   60 1.240    C   69 1.107
    62  C   3.918        C   61 1.450    C   63 1.284    H   88 0.965
    63  C   3.967        C   64 1.412    C   62 1.284    C   67 1.107
    64  C   3.841        C   63 1.412    C   65 1.215    H   89 0.970
    65  C   3.951        C   66 1.480    C   64 1.215    C   71 1.120
    66  C   3.920        C   65 1.480    C   67 1.181    H   90 0.972
    67  C   3.965        C   68 1.513    C   66 1.181    C   63 1.107
    68  C   3.957        C   67 1.513    C   69 1.241    H   91 0.964
    69  C   3.965        C   70 1.458    C   68 1.241    C   61 1.107
    70  C   3.854        C   69 1.458    C   59 1.180    H   92 0.959
    71  C   3.990        C   72 1.871    C   65 1.120    H   93 0.965
    72  C   3.941        C   71 1.871    H   95 0.979    H   94 0.975
    73  H   0.995        C    9 0.962
    74  H   0.995        C   12 0.957
    75  H   0.995        C   15 0.959
    76  H   0.993        C   20 0.944
    77  H   0.934        N   21 0.823
    78  H   0.991        C   28 0.952
    79  H   0.996        C   30 0.946
    80  H   0.995        C   31 0.951
    81  H   0.995        C   47 0.946
    82  H   0.997        C   49 0.963
    83  H   0.997        C   50 0.962
    84  H   0.997        C   54 0.962
    85  H   0.997        C   55 0.964
    86  H   0.997        C   58 0.955
    87  H   0.998        C   60 0.972
    88  H   0.997        C   62 0.965
    89  H   0.998        C   64 0.970
    90  H   0.998        C   66 0.972
    91  H   0.997        C   68 0.964
    92  H   0.996        C   70 0.959
    93  H   0.998        C   71 0.965
    94  H   0.998        C   72 0.975
    95  H   0.998        C   72 0.979

molecular dipole:
                 x           y           z       tot (Debye)
 q only:       -0.608      -1.159      -7.240
   full:        0.005      -1.626      -7.863      20.409
molecular quadrupole (traceless):
                xx          xy          yy          xz          yz          zz
 q only:      -67.907      31.616     -88.147     158.818     -44.532     156.054
  q+dip:      -93.160      46.008     -86.410     147.783     -32.862     179.570
   full:      -96.900      57.143     -74.351     142.717     -36.700     171.251

           -------------------------------------------------
          |                Geometry Summary                 |
           -------------------------------------------------

      molecular mass/u    :     1120.1491000
   center of mass at/Å    :       -9.1647421       3.7200114      -7.5649886
  moments of inertia/u·Å² :        0.2738979E+05   0.5781127E+05   0.8518455E+05
rotational constants/cm⁻¹ :        0.6154714E-03   0.2915977E-03   0.1978954E-03

 * 95 selected distances

     #   Z        #   Z                                     value/Å
     1   6 C      2   6 C                                 1.3707315
     3   6 C      4   7 N                                 1.1478232
     5   6 C      6   7 N                                 1.1478557
     7   6 C      8   6 C                                 1.4195243
     8   6 C      9   6 C                                 1.3741738
     9   6 C     10   6 C                                 1.3985994
    10   6 C     11   6 C                                 1.4155025
     7   6 C     12   6 C                                 1.3812410
    11   6 C     12   6 C                                 1.3904842
    11   6 C     13  16 S                                 1.7362495
    13  16 S     14   6 C                                 1.7437213
    10   6 C     15   6 C                                 1.4213951
    14   6 C     15   6 C                                 1.3545354
    14   6 C     16  35 Br                                1.8749934 (max)
    17   6 C     18   8 O                                 1.2287025
    19   6 C     20   6 C                                 1.3743703
    20   6 C     21   7 N                                 1.3376338
    21   7 N     22   6 C                                 1.3550631
    22   6 C     23  16 S                                 1.7341588
    23  16 S     24   6 C                                 1.7341587
    24   6 C     25   7 N                                 1.4046122
    25   7 N     26   8 O                                 1.2142034
    25   7 N     27   8 O                                 1.2176427
    24   6 C     28   6 C                                 1.3671931
    22   6 C     29   6 C                                 1.4034089
    28   6 C     29   6 C                                 1.4106312
    29   6 C     30   6 C                                 1.4340475
    30   6 C     31   6 C                                 1.3493385
    31   6 C     32   6 C                                 1.4227079
    32   6 C     33   6 C                                 1.3897947
    34   6 C     35   7 N                                 1.1464829
    33   6 C     36   6 C                                 1.4191659
    36   6 C     37   6 C                                 1.3921391
    32   6 C     38  16 S                                 1.7514870
    37   6 C     38  16 S                                 1.7188243
    37   6 C     39  16 S                                 1.7316517
    39  16 S     40   6 C                                 1.7350167
    36   6 C     41   6 C                                 1.4270914
    40   6 C     41   6 C                                 1.3905104
    41   6 C     42   6 C                                 1.4170959
    43   6 C     44   7 N                                 1.1483654
    42   6 C     45   6 C                                 1.4018147
    40   6 C     46  16 S                                 1.7225914
    45   6 C     46  16 S                                 1.7556187
    45   6 C     47   6 C                                 1.4021476
    47   6 C     48   6 C                                 1.3731519
    48   6 C     49   6 C                                 1.4179499
    49   6 C     50   6 C                                 1.3624357
    50   6 C     51   6 C                                 1.4103790
    48   6 C     52  16 S                                 1.7504090
    51   6 C     52  16 S                                 1.7544520
    51   6 C     53   6 C                                 1.3813014
    53   6 C     54   6 C                                 1.4128737
    54   6 C     55   6 C                                 1.3612510
    55   6 C     56   6 C                                 1.4193626
    53   6 C     57  16 S                                 1.7456256
    56   6 C     57  16 S                                 1.7590697
    56   6 C     58   6 C                                 1.3704633
    58   6 C     59   6 C                                 1.4114573
    59   6 C     60   6 C                                 1.3980005
    60   6 C     61   6 C                                 1.4173227
    61   6 C     62   6 C                                 1.3769881
    62   6 C     63   6 C                                 1.4048991
    63   6 C     64   6 C                                 1.3872763
    64   6 C     65   6 C                                 1.4313379
    65   6 C     66   6 C                                 1.3824727
    66   6 C     67   6 C                                 1.4302678
    67   6 C     68   6 C                                 1.3677271
    68   6 C     69   6 C                                 1.4125379
    59   6 C     70   6 C                                 1.4388865
    69   6 C     70   6 C                                 1.3796943
    71   6 C     72   6 C                                 1.3302311
     9   6 C     73   1 H                                 1.0786941
    12   6 C     74   1 H                                 1.0771102
    15   6 C     75   1 H                                 1.0746493
    20   6 C     76   1 H                                 1.0822866
    21   7 N     77   1 H                                 1.0378599 (min)
    28   6 C     78   1 H                                 1.0744321
    30   6 C     79   1 H                                 1.0827070
    31   6 C     80   1 H                                 1.0809067
    47   6 C     81   1 H                                 1.0826556
    49   6 C     82   1 H                                 1.0754589
    50   6 C     83   1 H                                 1.0753263
    54   6 C     84   1 H                                 1.0751497
    55   6 C     85   1 H                                 1.0760906
    58   6 C     86   1 H                                 1.0839199
    60   6 C     87   1 H                                 1.0745847
    62   6 C     88   1 H                                 1.0809240
    64   6 C     89   1 H                                 1.0745501
    66   6 C     90   1 H                                 1.0747696
    68   6 C     91   1 H                                 1.0808419
    70   6 C     92   1 H                                 1.0735792
    71   6 C     93   1 H                                 1.0830336
    72   6 C     94   1 H                                 1.0764718
    72   6 C     95   1 H                                 1.0760915

 * 8 distinct bonds (by element types)

   Z      Z             #   av. dist./Å        max./Å        min./Å
   1 H    6 C          22     1.0779197     1.0839199     1.0735792
   6 C    6 C          47     1.3958705     1.4388865     1.3302311
   1 H    7 N           1     1.0378599     1.0378599     1.0378599
   6 C    7 N           7     1.2411195     1.4046122     1.1464829
   6 C    8 O           1     1.2287025     1.2287025     1.2287025
   7 N    8 O           2     1.2159231     1.2176427     1.2142034
   6 C   16 S          14     1.7409310     1.7590697     1.7188243
   6 C   35 Br          1     1.8749934     1.8749934     1.8749934


optimized geometry written to: xtbopt.xyz


           -------------------------------------------------
          | TOTAL ENERGY             -185.682173995125 Eh   |
          | GRADIENT NORM               0.000475581193 Eh/α |
          | HOMO-LUMO GAP               0.225921826174 eV   |
           -------------------------------------------------

------------------------------------------------------------------------
 * finished run on 2021/06/13 at 01:01:57.343     
------------------------------------------------------------------------
 total:
 * wall-time:     0 d,  0 h,  0 min, 15.542 sec
 *  cpu-time:     0 d,  0 h,  3 min,  6.208 sec
 * ratio c/w:    11.981 speedup
 SCF:
 * wall-time:     0 d,  0 h,  0 min,  0.256 sec
 *  cpu-time:     0 d,  0 h,  0 min,  2.977 sec
 * ratio c/w:    11.640 speedup
 ANC optimizer:
 * wall-time:     0 d,  0 h,  0 min, 15.229 sec
 *  cpu-time:     0 d,  0 h,  3 min,  2.699 sec
 * ratio c/w:    11.997 speedup

