      -----------------------------------------------------------      
     |                   =====================                   |     
     |                           x T B                           |     
     |                   =====================                   |     
     |                         S. Grimme                         |     
     |          Mulliken Center for Theoretical Chemistry        |     
     |                    University of Bonn                     |     
     |                Version 6.2 RC2 (SAW190805)                |     
      -----------------------------------------------------------      

   This program is distributed in the hope that it will be useful,
   but WITHOUT ANY WARRANTY; without even the implied warranty of
   MERCHANTABILITY or FITNESS FOR A PARTICULAR PURPOSE.
   
   FOR NON-COMMERCIAL, ACADEMIA USE ONLY.
   
   Cite this work as:
   * S. Grimme, C. Bannwarth, P. Shushkov, J. Chem. Theory Comput., 2017,
     13, 1989-2009. DOI: 10.1021/acs.jctc.7b00118
   * C. Bannwarth, S. Ehlert and S. Grimme., J. Chem. Theory Comput., 2019,
     15, 1652-1671. DOI: 10.1021/acs.jctc.8b01176
   * P. Pracht, E. Caldeweyher, S. Ehlert, S. Grimme, ChemRxiv, 2019, preprint.
     DOI: 10.26434/chemrxiv.8326202.v1
   
   for DFT-D4:
   * E. Caldeweyher, C. Bannwarth and S. Grimme, J. Chem. Phys., 2017,
     147, 034112. DOI: 10.1063/1.4993215
   * E. Caldeweyher, S. Ehlert, A. Hansen, H. Neugebauer, S. Spicher,
     C. Bannwarth and S. Grimme, J. Chem. Phys., 2019, 150, 154122.
     DOI: 10.1063/1.5090222
   
   for sTDA-xTB:
   * S. Grimme and C. Bannwarth, J. Chem. Phys., 2016, 145, 054103.
     DOI: 10.1063/1.4959605
   
   in the mass-spec context:
   * V. Asgeirsson, C. Bauer and S. Grimme, Chem. Sci., 2017, 8, 4879.
     DOI: 10.1039/c7sc00601b
   
   for metadynamics refer to:
   * S. Grimme, J. Chem. Theory Comput., 2019, 155, 2847-2862
     DOI: 10.1021/acs.jctc.9b00143
   
   with help from (in alphabetical order)
   C. Bannwarth, F. Bohle, G. Brandenburg, E. Caldeweyher, M. Checinski,
   S. Dohm, S. Ehlert, S. Ehrlich, F. März, H. Neugebauer, J. Pisarek,
   P. Pracht, P. Shushkov, and S. Spicher.
   
 * started run on 2021/06/04 at 23:33:30.875     

           -------------------------------------------------
          |                Calculation Setup                |
           -------------------------------------------------

          program call               : /ihome/ghutchison/geoffh/xtb/xtb /ihome/ghutchison/blp62/GA/running_GA/sequence/generations/37/275_161_104_47_800_13502.xyz -opt
          hostname                   : smp-n207
          coordinate file            : /ihome/ghutchison/blp62/GA/running_GA/sequence/generations/37/275_161_104_47_800_13502.xyz
          omp threads                :                    12
          number of atoms            :                   105
          number of electrons        :                   346
          charge                     :                     0
          spin                       :                   0.0
          first test random number   :      0.87009690374054


########################################################################
# WARNING! Please study the warnings concerning your input carefully
#  - XTBPATH is not set, using XTBHOME instead
#  - the use of '-opt' is discouraged, please use '--opt' next time
########################################################################

           ------------------------------------------------- 
          |                 G F N 2 - x T B                 |
          | Geometry, Frequencies, Noncovalent interactions |
          |            JCTC 2019 parametrisation            |
           ------------------------------------------------- 
             KAB for C  - Si     :                1.0500
             KAB for H  - Pd     :                0.9500
             k(s)              :                1.8500
             k(p)              :                2.2300
             k(d)              :                2.2300
             k(f)              :                2.0000
             kEN (H0ij)        :               -2.0000
             D4 a1             :                0.5200
             D4 a2             :                5.0000
             D4 s6             :                1.0000
             D4 s8             :                2.7000
             D4 s9             :                5.0000
             alphaj            :                2.0000

  Z AO/shell   Hii/eV     exponent
  1     Wed Apr 25 08:07:45 CEST 2018   EN: 2.200 GM2: 0.406  GM3: 0.0800  RAES: 1.40
     1s    -10.707211    1.230000
  6     Wed Apr 25 08:07:45 CEST 2018   EN: 2.550 GM2: 0.538  GM3: 0.1500  RAES: 3.00
     2s    -13.970922    2.096432
     2p    -10.063292    1.800000
  7     Wed Apr 25 08:07:45 CEST 2018   EN: 3.040 GM2: 0.461  GM3:-0.0640  RAES: 1.90
     2s    -16.686243    2.339881
     2p    -12.523956    2.014332
  8     Wed Apr 25 08:07:45 CEST 2018   EN: 3.440 GM2: 0.452  GM3:-0.0517  RAES: 1.80
     2s    -20.229985    2.439742
     2p    -15.503117    2.137023
 16     Tue Apr 24 11:44:34 CEST 2018   EN: 2.580 GM2: 0.340  GM3:-0.0502  RAES: 3.10
     3s    -20.029654    1.981333
     3p    -11.377694    2.025643
     3d     -0.420282    1.702555
 35     Tue Apr 24 12:21:41 CEST 2018   EN: 2.960 GM2: 0.261  GM3: 0.1300  RAES: 4.00
     4s    -23.583718    2.077587
     4p    -12.588824    2.263120
     4d      0.047980    1.845038

           ------------------------------------------------- 
          |        Self-Consistent Charge Iterations        |
           ------------------------------------------------- 

          ...................................................
          :                      SETUP                      :
          :.................................................:
          :  # basis functions                 366          :
          :  # atomic orbitals                 358          :
          :  # shells                          184          :
          :  # electrons                       346          :
          :  max. iterations                   250          :
          :  Hamiltonian                  GFN2-xTB          :
          :  restarted?                      false          :
          :  GBSA solvation                  false          :
          :  PC potential                    false          :
          :  electronic temp.          300.0000000     K    :
          :  accuracy                    1.0000000          :
          :  -> integral cutoff          0.2500000E+02      :
          :  -> integral neglect         0.1000000E-07      :
          :  -> SCF convergence          0.1000000E-05 Eh   :
          :  -> wf. convergence          0.1000000E-03 e    :
          :  Broyden damping             0.4000000          :
          ...................................................

 iter      E             dE          RMSdq      gap      omega  full diag
   1   -191.2306577 -0.191231E+03  0.488E+00    1.22       0.0  T
   2   -191.4093499 -0.178692E+00  0.291E+00    1.01       1.0  T
   3   -191.2077371  0.201613E+00  0.193E+00    0.43       1.0  T
   4   -191.4868054 -0.279068E+00  0.793E-01    0.59       1.0  T
   5   -191.5198047 -0.329994E-01  0.328E-01    0.53       1.0  T
   6   -191.5267138 -0.690908E-02  0.189E-01    0.58       1.0  T
   7   -191.5288785 -0.216469E-02  0.114E-01    0.61       1.0  T
   8   -191.5299309 -0.105240E-02  0.479E-02    0.59       1.0  T
   9   -191.5299936 -0.626974E-04  0.346E-02    0.59       1.0  T
  10   -191.5299956 -0.201919E-05  0.253E-02    0.59       1.0  T
  11   -191.5300167 -0.211341E-04  0.167E-02    0.59       1.0  T
  12   -191.5300221 -0.538557E-05  0.104E-02    0.59       1.0  T
  13   -191.5300263 -0.416340E-05  0.488E-03    0.59       2.0  T
  14   -191.5300271 -0.850256E-06  0.244E-03    0.59       4.0  T
  15   -191.5300274 -0.249910E-06  0.122E-03    0.59       8.0  T
  16   -191.5300274 -0.488840E-07  0.658E-04    0.59      14.8  T
  17   -191.5300274 -0.877236E-08  0.396E-04    0.59      24.6  T

   *** convergence criteria satisfied after 17 iterations ***

         #    Occupation            Energy/Eh            Energy/eV
      -------------------------------------------------------------
         1        2.0000           -0.8628403             -23.4791
       ...           ...                  ...                  ...
       167        2.0000           -0.4031146             -10.9693
       168        2.0000           -0.3951310             -10.7521
       169        2.0000           -0.3914529             -10.6520
       170        2.0000           -0.3865818             -10.5194
       171        2.0000           -0.3834652             -10.4346
       172        2.0000           -0.3662120              -9.9651
       173        2.0000           -0.3536760              -9.6240 (HOMO)
       174        0.0000           -0.3320975              -9.0368 (LUMO)
       175        0.0000           -0.3306374              -8.9971
       176                         -0.3170188              -8.6265
       177                         -0.3129840              -8.5167
       178                         -0.2879350              -7.8351
       ...                                ...                  ...
       358                          1.0875113              29.5927
      -------------------------------------------------------------
                  HL-Gap            0.0215785 Eh            0.5872 eV
             Fermi-level           -0.3429793 Eh           -9.3329 eV

 SCC (total)                   0 d,  0 h,  0 min,  0.353 sec
 SCC setup                      ...        0 min,  0.002 sec (  0.611%)
 Dispersion                     ...        0 min,  0.004 sec (  1.094%)
 integral evaluation            ...        0 min,  0.026 sec (  7.397%)
 zeroth order Hamiltonian       ...        0 min,  0.001 sec (  0.342%)
 iterations                     ...        0 min,  0.298 sec ( 84.400%)
 molecular gradient             ...        0 min,  0.020 sec (  5.658%)
 printout                       ...        0 min,  0.002 sec (  0.471%)

         :::::::::::::::::::::::::::::::::::::::::::::::::::::
         ::                     SUMMARY                     ::
         :::::::::::::::::::::::::::::::::::::::::::::::::::::
         :: total energy            -188.743644662481 Eh    ::
         :: gradient norm              0.190337538120 Eh/a0 ::
         :: HOMO-LUMO gap              0.587179646271 eV    ::
         ::.................................................::
         :: SCC energy              -191.530027425533 Eh    ::
         :: -> isotropic ES            0.106605615740 Eh    ::
         :: -> anisotropic ES          0.022616996316 Eh    ::
         :: -> anisotropic XC          0.099065263191 Eh    ::
         :: -> dispersion             -0.156605336181 Eh    ::
         :: repulsion energy           2.786468943333 Eh    ::
         :: add. restraining           0.000000000000 Eh    ::
         :::::::::::::::::::::::::::::::::::::::::::::::::::::

      ----------------------------------------------------------- 
     |                   =====================                   |
     |                        A N C O P T                        |
     |                   =====================                   |
     |               Approximate Normal Coordinate               |
     |                Rational Function Optimizer                |
      ----------------------------------------------------------- 

          ...................................................
          :                      SETUP                      :
          :.................................................:
          :   optimization level            normal          :
          :   max. optcycles                   315          :
          :   ANC micro-cycles                  20          :
          :   degrees of freedom               309          :
          :.................................................:
          :   RF solver                   davidson          :
          :   input Hessian                  false          :
          :   write xtbopt.log                true          :
          :   linear?                        false          :
          :   energy convergence         0.5000000E-05 Eh   :
          :   grad. convergence          0.1000000E-02 Eh/α :
          :   maximium RF displ.         2.0000000          :
          :   Hlow (freq-cutoff)         0.5000000E-02      :
          :   Hmax (freq-cutoff)         5.0000000          :
          :   S6 in model hess.         20.0000000          :
          ...................................................

generating ANC from model Hessian ...
Using Lindh-Hessian (1995)
 Shifting diagonal of input Hessian by   4.988724615505304E-003
 Lowest  eigenvalues of input Hessian
   -0.000000   -0.000000   -0.000000    0.000000    0.000000    0.000000
    0.005000    0.005007    0.005029    0.005041    0.005077    0.005086
    0.005135    0.005178    0.005235    0.005290    0.005358    0.005399
 Highest eigenvalues
    2.147897    2.259409    2.271195    2.499023    2.510522    2.581238
 

........................................................................
.............................. CYCLE    1 ..............................
........................................................................
   1   -191.5300274 -0.191530E+03  0.229E-04    0.59       0.0  T
   2   -191.5300274  0.598192E-09  0.205E-04    0.59      47.6  T
   3   -191.5300274 -0.253200E-08  0.135E-04    0.59      72.3  T
     SCC iter.                  ...        0 min,  0.054 sec
     gradient                   ...        0 min,  0.019 sec
 * total energy  :  -188.7436447 Eh     change       -0.1762038E-07 Eh
   gradient norm :     0.1903395 Eh/α   predicted     0.0000000E+00 (-100.00%)
   displ. norm   :     0.4689839 α      lambda       -0.4661483E-01
   maximum displ.:     0.1216776 α      in ANC's #57, #55, #45, ...

........................................................................
.............................. CYCLE    2 ..............................
........................................................................
   1   -191.6026524 -0.191603E+03  0.404E-01    0.53       0.0  T
   2   -191.6031325 -0.480126E-03  0.204E-01    0.54       1.0  T
   3   -191.6013058  0.182671E-02  0.150E-01    0.53       1.0  T
   4   -191.6033676 -0.206177E-02  0.583E-02    0.54       1.0  T
   5   -191.6035696 -0.202007E-03  0.325E-02    0.54       1.0  T
   6   -191.6036207 -0.511062E-04  0.187E-02    0.54       1.0  T
   7   -191.6036553 -0.346348E-04  0.644E-03    0.54       1.5  T
   8   -191.6036587 -0.340741E-05  0.217E-03    0.54       4.5  T
   9   -191.6036590 -0.275825E-06  0.106E-03    0.54       9.2  T
     SCC iter.                  ...        0 min,  0.157 sec
     gradient                   ...        0 min,  0.018 sec
 * total energy  :  -188.7770676 Eh     change       -0.3342294E-01 Eh
   gradient norm :     0.0847203 Eh/α   predicted    -0.2843382E-01 ( -14.93%)
   displ. norm   :     0.5251707 α      lambda       -0.1941431E-01
   maximum displ.:     0.1525057 α      in ANC's #45, #57, #55, ...

........................................................................
.............................. CYCLE    3 ..............................
........................................................................
   1   -191.6367393 -0.191637E+03  0.336E-01    0.46       0.0  T
   2   -191.6369566 -0.217352E-03  0.171E-01    0.46       1.0  T
   3   -191.6347869  0.216976E-02  0.138E-01    0.47       1.0  T
   4   -191.6366864 -0.189959E-02  0.683E-02    0.48       1.0  T
   5   -191.6372038 -0.517371E-03  0.246E-02    0.47       1.0  T
   6   -191.6372339 -0.300798E-04  0.113E-02    0.47       1.0  T
   7   -191.6372435 -0.959674E-05  0.457E-03    0.47       2.1  T
   8   -191.6372452 -0.171511E-05  0.184E-03    0.47       5.3  T
   9   -191.6372454 -0.180694E-06  0.101E-03    0.47       9.7  T
     SCC iter.                  ...        0 min,  0.156 sec
     gradient                   ...        0 min,  0.018 sec
 * total energy  :  -188.7894904 Eh     change       -0.1242280E-01 Eh
   gradient norm :     0.0278870 Eh/α   predicted    -0.1238444E-01 (  -0.31%)
   displ. norm   :     0.5772943 α      lambda       -0.7899615E-02
   maximum displ.:     0.1691875 α      in ANC's #19, #45, #57, ...

........................................................................
.............................. CYCLE    4 ..............................
........................................................................
   1   -191.6485800 -0.191649E+03  0.287E-01    0.44       0.0  T
   2   -191.6487299 -0.149854E-03  0.151E-01    0.45       1.0  T
   3   -191.6484995  0.230349E-03  0.584E-02    0.46       1.0  T
   4   -191.6487556 -0.256105E-03  0.256E-02    0.46       1.0  T
   5   -191.6487791 -0.234117E-04  0.163E-02    0.46       1.0  T
   6   -191.6487852 -0.618968E-05  0.112E-02    0.45       1.0  T
   7   -191.6487999 -0.146580E-04  0.456E-03    0.45       2.1  T
   8   -191.6488021 -0.217267E-05  0.190E-03    0.45       5.1  T
   9   -191.6488022 -0.158337E-06  0.982E-04    0.45       9.9  T
     SCC iter.                  ...        0 min,  0.161 sec
     gradient                   ...        0 min,  0.022 sec
 * total energy  :  -188.7946877 Eh     change       -0.5197271E-02 Eh
   gradient norm :     0.0306601 Eh/α   predicted    -0.5266156E-02 (   1.33%)
   displ. norm   :     0.6631854 α      lambda       -0.7062830E-02
   maximum displ.:     0.2131763 α      in ANC's #19, #45, #21, ...

........................................................................
.............................. CYCLE    5 ..............................
........................................................................
   1   -191.6529261 -0.191653E+03  0.313E-01    0.43       0.0  T
   2   -191.6531783 -0.252227E-03  0.167E-01    0.46       1.0  T
   3   -191.6527201  0.458177E-03  0.840E-02    0.45       1.0  T
   4   -191.6531869 -0.466797E-03  0.371E-02    0.46       1.0  T
   5   -191.6532832 -0.963228E-04  0.192E-02    0.46       1.0  T
   6   -191.6532539  0.293686E-04  0.206E-02    0.45       1.0  T
   7   -191.6533124 -0.585464E-04  0.444E-03    0.45       2.2  T
   8   -191.6533140 -0.155179E-05  0.231E-03    0.45       4.2  T
   9   -191.6533142 -0.223591E-06  0.132E-03    0.45       7.4  T
     SCC iter.                  ...        0 min,  0.154 sec
     gradient                   ...        0 min,  0.018 sec
 * total energy  :  -188.7993331 Eh     change       -0.4645367E-02 Eh
   gradient norm :     0.0333759 Eh/α   predicted    -0.5084629E-02 (   9.46%)
   displ. norm   :     0.6227570 α      lambda       -0.4943921E-02
   maximum displ.:     0.2388781 α      in ANC's #19, #21, #33, ...

........................................................................
.............................. CYCLE    6 ..............................
........................................................................
   1   -191.6556765 -0.191656E+03  0.244E-01    0.44       0.0  T
   2   -191.6557408 -0.643144E-04  0.133E-01    0.46       1.0  T
   3   -191.6550276  0.713276E-03  0.763E-02    0.45       1.0  T
   4   -191.6555742 -0.546649E-03  0.418E-02    0.46       1.0  T
   5   -191.6557694 -0.195158E-03  0.171E-02    0.46       1.0  T
   6   -191.6557929 -0.235189E-04  0.785E-03    0.46       1.2  T
   7   -191.6557979 -0.498741E-05  0.317E-03    0.46       3.1  T
   8   -191.6557984 -0.547367E-06  0.191E-03    0.46       5.1  T
     SCC iter.                  ...        0 min,  0.137 sec
     gradient                   ...        0 min,  0.018 sec
 * total energy  :  -188.8029616 Eh     change       -0.3628537E-02 Eh
   gradient norm :     0.0295452 Eh/α   predicted    -0.3430664E-02 (  -5.45%)
   displ. norm   :     0.7052339 α      lambda       -0.5786453E-02
   maximum displ.:     0.2756616 α      in ANC's #19, #21, #33, ...

........................................................................
.............................. CYCLE    7 ..............................
........................................................................
   1   -191.6571639 -0.191657E+03  0.293E-01    0.44       0.0  T
   2   -191.6574233 -0.259352E-03  0.162E-01    0.46       1.0  T
   3   -191.6557802  0.164306E-02  0.125E-01    0.45       1.0  T
   4   -191.6562474 -0.467225E-03  0.100E-01    0.46       1.0  T
   5   -191.6576109 -0.136342E-02  0.199E-02    0.46       1.0  T
   6   -191.6576333 -0.224623E-04  0.115E-02    0.46       1.0  T
   7   -191.6576422 -0.888140E-05  0.438E-03    0.46       2.2  T
   8   -191.6576433 -0.114538E-05  0.245E-03    0.46       4.0  T
   9   -191.6576435 -0.173278E-06  0.158E-03    0.46       6.2  T
     SCC iter.                  ...        0 min,  0.154 sec
     gradient                   ...        0 min,  0.018 sec
 * total energy  :  -188.8061815 Eh     change       -0.3219900E-02 Eh
   gradient norm :     0.0349433 Eh/α   predicted    -0.4332187E-02 (  34.54%)
   displ. norm   :     0.6070902 α      lambda       -0.4315880E-02
   maximum displ.:     0.2404423 α      in ANC's #19, #33, #21, ...

........................................................................
.............................. CYCLE    8 ..............................
........................................................................
   1   -191.6595374 -0.191660E+03  0.273E-01    0.46       0.0  T
   2   -191.6597569 -0.219493E-03  0.148E-01    0.48       1.0  T
   3   -191.6579845  0.177243E-02  0.122E-01    0.48       1.0  T
   4   -191.6591291 -0.114460E-02  0.763E-02    0.47       1.0  T
   5   -191.6598867 -0.757578E-03  0.168E-02    0.48       1.0  T
   6   -191.6598942 -0.750390E-05  0.107E-02    0.47       1.0  T
   7   -191.6599042 -0.996559E-05  0.438E-03    0.47       2.2  T
   8   -191.6599053 -0.112026E-05  0.242E-03    0.48       4.0  T
   9   -191.6599057 -0.424086E-06  0.112E-03    0.47       8.7  T
     SCC iter.                  ...        0 min,  0.154 sec
     gradient                   ...        0 min,  0.018 sec
 * total energy  :  -188.8091159 Eh     change       -0.2934446E-02 Eh
   gradient norm :     0.0352745 Eh/α   predicted    -0.2953267E-02 (   0.64%)
   displ. norm   :     0.5768322 α      lambda       -0.4253470E-02
   maximum displ.:     0.2472992 α      in ANC's #19, #11, #21, ...

........................................................................
.............................. CYCLE    9 ..............................
........................................................................
   1   -191.6730977 -0.191673E+03  0.243E-01    0.48       0.0  T
   2   -191.6734045 -0.306772E-03  0.128E-01    0.47       1.0  T
   3   -191.6731875  0.216975E-03  0.633E-02    0.47       1.0  T
   4   -191.6732482 -0.607117E-04  0.442E-02    0.47       1.0  T
   5   -191.6734231 -0.174910E-03  0.244E-02    0.47       1.0  T
   6   -191.6734700 -0.468998E-04  0.151E-02    0.47       1.0  T
   7   -191.6734931 -0.230775E-04  0.417E-03    0.47       2.3  T
   8   -191.6734938 -0.741830E-06  0.230E-03    0.47       4.2  T
   9   -191.6734941 -0.313619E-06  0.122E-03    0.47       8.0  T
     SCC iter.                  ...        0 min,  0.155 sec
     gradient                   ...        0 min,  0.018 sec
 * total energy  :  -188.8114827 Eh     change       -0.2366789E-02 Eh
   gradient norm :     0.0330646 Eh/α   predicted    -0.2834373E-02 (  19.76%)
   displ. norm   :     0.6162894 α      lambda       -0.3385333E-02
   maximum displ.:     0.2708191 α      in ANC's #19, #11, #21, ...

........................................................................
.............................. CYCLE   10 ..............................
........................................................................
   1   -191.6709558 -0.191671E+03  0.237E-01    0.46       0.0  T
   2   -191.6710675 -0.111608E-03  0.130E-01    0.46       1.0  T
   3   -191.6701079  0.959515E-03  0.944E-02    0.47       1.0  T
   4   -191.6707072 -0.599300E-03  0.588E-02    0.46       1.0  T
   5   -191.6711350 -0.427741E-03  0.164E-02    0.46       1.0  T
   6   -191.6711484 -0.134376E-04  0.105E-02    0.46       1.0  T
   7   -191.6711588 -0.103836E-04  0.365E-03    0.46       2.7  T
   8   -191.6711596 -0.785898E-06  0.197E-03    0.46       4.9  T
   9   -191.6711597 -0.137180E-06  0.130E-03    0.46       7.5  T
     SCC iter.                  ...        0 min,  0.152 sec
     gradient                   ...        0 min,  0.018 sec
 * total energy  :  -188.8141056 Eh     change       -0.2622915E-02 Eh
   gradient norm :     0.0246644 Eh/α   predicted    -0.2335562E-02 ( -10.96%)
   displ. norm   :     0.6629898 α      lambda       -0.3609824E-02
   maximum displ.:     0.2756331 α      in ANC's #19, #11, #27, ...

........................................................................
.............................. CYCLE   11 ..............................
........................................................................
   1   -191.6828908 -0.191683E+03  0.278E-01    0.46       0.0  T
   2   -191.6830746 -0.183769E-03  0.153E-01    0.46       1.0  T
   3   -191.6825455  0.529095E-03  0.837E-02    0.47       1.0  T
   4   -191.6827599 -0.214366E-03  0.582E-02    0.45       1.0  T
   5   -191.6831473 -0.387450E-03  0.201E-02    0.45       1.0  T
   6   -191.6831765 -0.292188E-04  0.120E-02    0.46       1.0  T
   7   -191.6831900 -0.134561E-04  0.422E-03    0.46       2.3  T
   8   -191.6831914 -0.137321E-05  0.211E-03    0.46       4.6  T
   9   -191.6831914 -0.172449E-07  0.150E-03    0.46       6.5  T
     SCC iter.                  ...        0 min,  0.154 sec
     gradient                   ...        0 min,  0.018 sec
 * total energy  :  -188.8159577 Eh     change       -0.1852075E-02 Eh
   gradient norm :     0.0400636 Eh/α   predicted    -0.2598275E-02 (  40.29%)
   displ. norm   :     0.5958924 α      lambda       -0.2720650E-02
   maximum displ.:     0.2594556 α      in ANC's #19, #11, #33, ...

........................................................................
.............................. CYCLE   12 ..............................
........................................................................
   1   -191.6723314 -0.191672E+03  0.222E-01    0.44       0.0  T
   2   -191.6724072 -0.757334E-04  0.121E-01    0.44       1.0  T
   3   -191.6717643  0.642881E-03  0.766E-02    0.44       1.0  T
   4   -191.6720474 -0.283150E-03  0.552E-02    0.44       1.0  T
   5   -191.6724518 -0.404330E-03  0.134E-02    0.44       1.0  T
   6   -191.6724561 -0.437667E-05  0.872E-03    0.44       1.1  T
   7   -191.6724637 -0.760134E-05  0.254E-03    0.44       3.8  T
   8   -191.6724641 -0.390386E-06  0.153E-03    0.44       6.4  T
   9   -191.6724642 -0.486196E-07  0.948E-04    0.44      10.3  T
     SCC iter.                  ...        0 min,  0.155 sec
     gradient                   ...        0 min,  0.018 sec
 * total energy  :  -188.8180369 Eh     change       -0.2079187E-02 Eh
   gradient norm :     0.0258357 Eh/α   predicted    -0.1843360E-02 ( -11.34%)
   displ. norm   :     0.5677872 α      lambda       -0.3273773E-02
   maximum displ.:     0.2246718 α      in ANC's #11, #19, #8, ...

........................................................................
.............................. CYCLE   13 ..............................
........................................................................
   1   -191.6824415 -0.191682E+03  0.234E-01    0.43       0.0  T
   2   -191.6825956 -0.154115E-03  0.126E-01    0.42       1.0  T
   3   -191.6823105  0.285035E-03  0.593E-02    0.42       1.0  T
   4   -191.6825536 -0.243021E-03  0.312E-02    0.42       1.0  T
   5   -191.6825996 -0.460174E-04  0.225E-02    0.42       1.0  T
   6   -191.6826498 -0.502358E-04  0.106E-02    0.42       1.0  T
   7   -191.6826615 -0.116767E-04  0.389E-03    0.42       2.5  T
   8   -191.6826628 -0.134210E-05  0.174E-03    0.42       5.6  T
   9   -191.6826630 -0.182917E-06  0.950E-04    0.42      10.3  T
     SCC iter.                  ...        0 min,  0.154 sec
     gradient                   ...        0 min,  0.018 sec
 * total energy  :  -188.8187778 Eh     change       -0.7408921E-03 Eh
   gradient norm :     0.0503713 Eh/α   predicted    -0.2164598E-02 ( 192.16%)
   displ. norm   :     0.4854352 α      lambda       -0.3602256E-02
   maximum displ.:     0.1889286 α      in ANC's #19, #11, #27, ...

........................................................................
.............................. CYCLE   14 ..............................
........................................................................
   1   -191.6785033 -0.191679E+03  0.179E-01    0.41       0.0  T
   2   -191.6785349 -0.316024E-04  0.991E-02    0.41       1.0  T
   3   -191.6781515  0.383458E-03  0.588E-02    0.42       1.0  T
   4   -191.6784901 -0.338569E-03  0.253E-02    0.41       1.0  T
   5   -191.6785444 -0.543306E-04  0.155E-02    0.41       1.0  T
   6   -191.6785705 -0.261606E-04  0.542E-03    0.41       1.8  T
   7   -191.6785727 -0.220229E-05  0.263E-03    0.41       3.7  T
   8   -191.6785734 -0.671568E-06  0.112E-03    0.41       8.7  T
     SCC iter.                  ...        0 min,  0.139 sec
     gradient                   ...        0 min,  0.021 sec
 * total energy  :  -188.8208380 Eh     change       -0.2060212E-02 Eh
   gradient norm :     0.0251684 Eh/α   predicted    -0.2225564E-02 (   8.03%)
   displ. norm   :     0.5274648 α      lambda       -0.2425052E-02
   maximum displ.:     0.2036552 α      in ANC's #11, #19, #8, ...

........................................................................
.............................. CYCLE   15 ..............................
........................................................................
   1   -191.6683769 -0.191668E+03  0.212E-01    0.40       0.0  T
   2   -191.6685998 -0.222883E-03  0.119E-01    0.40       1.0  T
   3   -191.6680539  0.545925E-03  0.729E-02    0.41       1.0  T
   4   -191.6682178 -0.163972E-03  0.579E-02    0.41       1.0  T
   5   -191.6686049 -0.387018E-03  0.229E-02    0.40       1.0  T
   6   -191.6686689 -0.640709E-04  0.719E-03    0.40       1.4  T
   7   -191.6686719 -0.294151E-05  0.390E-03    0.40       2.5  T
   8   -191.6686727 -0.854674E-06  0.199E-03    0.40       4.9  T
     SCC iter.                  ...        0 min,  0.137 sec
     gradient                   ...        0 min,  0.018 sec
 * total energy  :  -188.8214957 Eh     change       -0.6576414E-03 Eh
   gradient norm :     0.0392767 Eh/α   predicted    -0.1549875E-02 ( 135.67%)
   displ. norm   :     0.4032596 α      lambda       -0.2452150E-02
   maximum displ.:     0.1745607 α      in ANC's #11, #19, #8, ...

........................................................................
.............................. CYCLE   16 ..............................
........................................................................
   1   -191.6761564 -0.191676E+03  0.135E-01    0.40       0.0  T
   2   -191.6761974 -0.409989E-04  0.747E-02    0.40       1.0  T
   3   -191.6749046  0.129278E-02  0.100E-01    0.39       1.0  T
   4   -191.6761698 -0.126519E-02  0.287E-02    0.39       1.0  T
   5   -191.6762588 -0.890310E-04  0.119E-02    0.39       1.0  T
   6   -191.6762719 -0.131486E-04  0.538E-03    0.40       1.8  T
   7   -191.6762742 -0.227581E-05  0.259E-03    0.40       3.8  T
   8   -191.6762746 -0.399425E-06  0.127E-03    0.40       7.7  T
     SCC iter.                  ...        0 min,  0.138 sec
     gradient                   ...        0 min,  0.018 sec
 * total energy  :  -188.8231559 Eh     change       -0.1660287E-02 Eh
   gradient norm :     0.0221697 Eh/α   predicted    -0.1425456E-02 ( -14.14%)
   displ. norm   :     0.5478086 α      lambda       -0.2137364E-02
   maximum displ.:     0.2430836 α      in ANC's #11, #8, #10, ...

........................................................................
.............................. CYCLE   17 ..............................
........................................................................
   1   -191.6866520 -0.191687E+03  0.181E-01    0.39       0.0  T
   2   -191.6867787 -0.126669E-03  0.982E-02    0.37       1.0  T
   3   -191.6861336  0.645073E-03  0.713E-02    0.38       1.0  T
   4   -191.6864921 -0.358413E-03  0.483E-02    0.37       1.0  T
   5   -191.6867953 -0.303219E-03  0.159E-02    0.37       1.0  T
   6   -191.6868213 -0.260409E-04  0.503E-03    0.37       1.9  T
   7   -191.6868219 -0.590210E-06  0.302E-03    0.37       3.2  T
   8   -191.6868224 -0.498475E-06  0.166E-03    0.37       5.9  T
     SCC iter.                  ...        0 min,  0.138 sec
     gradient                   ...        0 min,  0.018 sec
 * total energy  :  -188.8241431 Eh     change       -0.9871784E-03 Eh
   gradient norm :     0.0307554 Eh/α   predicted    -0.1389387E-02 (  40.74%)
   displ. norm   :     0.5686555 α      lambda       -0.2153765E-02
   maximum displ.:     0.2459484 α      in ANC's #11, #8, #10, ...

........................................................................
.............................. CYCLE   18 ..............................
........................................................................
   1   -191.6872866 -0.191687E+03  0.196E-01    0.37       0.0  T
   2   -191.6873642 -0.776008E-04  0.107E-01    0.38       1.0  T
   3   -191.6866476  0.716602E-03  0.727E-02    0.38       1.0  T
   4   -191.6871686 -0.521047E-03  0.423E-02    0.37       1.0  T
   5   -191.6873910 -0.222347E-03  0.121E-02    0.37       1.0  T
   6   -191.6873998 -0.879506E-05  0.581E-03    0.37       1.7  T
   7   -191.6874019 -0.209381E-05  0.301E-03    0.37       3.2  T
   8   -191.6874026 -0.726569E-06  0.149E-03    0.37       6.6  T
     SCC iter.                  ...        0 min,  0.137 sec
     gradient                   ...        0 min,  0.018 sec
 * total energy  :  -188.8256444 Eh     change       -0.1501240E-02 Eh
   gradient norm :     0.0243651 Eh/α   predicted    -0.1425116E-02 (  -5.07%)
   displ. norm   :     0.5667092 α      lambda       -0.2244371E-02
   maximum displ.:     0.2433230 α      in ANC's #11, #8, #10, ...

........................................................................
.............................. CYCLE   19 ..............................
........................................................................
   1   -191.6935348 -0.191694E+03  0.204E-01    0.37       0.0  T
   2   -191.6935829 -0.480797E-04  0.111E-01    0.38       1.0  T
   3   -191.6918629  0.171998E-02  0.114E-01    0.38       1.0  T
   4   -191.6934944 -0.163147E-02  0.372E-02    0.38       1.0  T
   5   -191.6936328 -0.138397E-03  0.180E-02    0.38       1.0  T
   6   -191.6936591 -0.263625E-04  0.810E-03    0.38       1.2  T
   7   -191.6936657 -0.657138E-05  0.292E-03    0.38       3.3  T
   8   -191.6936662 -0.474008E-06  0.141E-03    0.38       6.9  T
   9   -191.6936662 -0.627539E-07  0.963E-04    0.38      10.1  T
     SCC iter.                  ...        0 min,  0.155 sec
     gradient                   ...        0 min,  0.018 sec
 * total energy  :  -188.8263659 Eh     change       -0.7215399E-03 Eh
   gradient norm :     0.0379388 Eh/α   predicted    -0.1482583E-02 ( 105.47%)
   displ. norm   :     0.5041969 α      lambda       -0.2572302E-02
   maximum displ.:     0.2270664 α      in ANC's #11, #8, #10, ...

........................................................................
.............................. CYCLE   20 ..............................
........................................................................
   1   -191.6811488 -0.191681E+03  0.172E-01    0.36       0.0  T
   2   -191.6812419 -0.931663E-04  0.953E-02    0.35       1.0  T
   3   -191.6810728  0.169089E-03  0.434E-02    0.36       1.0  T
   4   -191.6812409 -0.168084E-03  0.190E-02    0.35       1.0  T
   5   -191.6812611 -0.201845E-04  0.115E-02    0.35       1.0  T
   6   -191.6812636 -0.248091E-05  0.957E-03    0.35       1.0  T
   7   -191.6812733 -0.970359E-05  0.476E-03    0.35       2.0  T
   8   -191.6812759 -0.255743E-05  0.146E-03    0.35       6.7  T
   9   -191.6812760 -0.117549E-06  0.804E-04    0.35      12.1  T
     SCC iter.                  ...        0 min,  0.154 sec
     gradient                   ...        0 min,  0.018 sec
 * total energy  :  -188.8275399 Eh     change       -0.1174027E-02 Eh
   gradient norm :     0.0326869 Eh/α   predicted    -0.1613111E-02 (  37.40%)
   displ. norm   :     0.5018961 α      lambda       -0.2282610E-02
   maximum displ.:     0.2158842 α      in ANC's #11, #8, #20, ...
 * RMSD in coord.:     0.8762681 α      energy gain  -0.8389526E-01 Eh

generating ANC from model Hessian ...
Using Lindh-Hessian (1995)
 Shifting diagonal of input Hessian by   5.004793462298862E-003
 Lowest  eigenvalues of input Hessian
    0.005000   -0.000000   -0.000000   -0.000000    0.000000    0.000000
    0.000000    0.005022    0.005043    0.005067    0.005110    0.005117
    0.005151    0.005258    0.005272    0.005321    0.005373    0.005526
 Highest eigenvalues
    2.149774    2.272948    2.275894    2.602658    2.651585    2.683068
 

........................................................................
.............................. CYCLE   21 ..............................
........................................................................
   1   -191.6753321 -0.191675E+03  0.186E-01    0.34       0.0  T
   2   -191.6752923  0.398206E-04  0.104E-01    0.34       1.0  T
   3   -191.6724438  0.284848E-02  0.145E-01    0.34       1.0  T
   4   -191.6752277 -0.278388E-02  0.403E-02    0.34       1.0  T
   5   -191.6754199 -0.192255E-03  0.148E-02    0.33       1.0  T
   6   -191.6754345 -0.146248E-04  0.759E-03    0.34       1.3  T
   7   -191.6754394 -0.491363E-05  0.278E-03    0.34       3.5  T
   8   -191.6754400 -0.560053E-06  0.145E-03    0.34       6.7  T
   9   -191.6754401 -0.793487E-07  0.945E-04    0.34      10.3  T
  10   -191.6754401 -0.506526E-08  0.653E-04    0.34      14.9  T
     SCC iter.                  ...        0 min,  0.172 sec
     gradient                   ...        0 min,  0.019 sec
 * total energy  :  -188.8283043 Eh     change       -0.7643968E-03 Eh
   gradient norm :     0.0271662 Eh/α   predicted     0.0000000E+00 (-100.00%)
   displ. norm   :     0.2715265 α      lambda       -0.2041431E-02
   maximum displ.:     0.0927042 α      in ANC's #8, #20, #10, ...

........................................................................
.............................. CYCLE   22 ..............................
........................................................................
   1   -191.6883560 -0.191688E+03  0.122E-01    0.34       0.0  T
   2   -191.6883693 -0.132950E-04  0.674E-02    0.34       1.0  T
   3   -191.6883062  0.630941E-04  0.261E-02    0.33       1.0  T
   4   -191.6883746 -0.684395E-04  0.841E-03    0.34       1.2  T
   5   -191.6883688  0.577952E-05  0.907E-03    0.34       1.1  T
   6   -191.6883770 -0.811901E-05  0.443E-03    0.34       2.2  T
   7   -191.6883796 -0.266031E-05  0.130E-03    0.34       7.5  T
   8   -191.6883798 -0.135571E-06  0.647E-04    0.34      15.1  T
     SCC iter.                  ...        0 min,  0.138 sec
     gradient                   ...        0 min,  0.018 sec
 * total energy  :  -188.8294038 Eh     change       -0.1099511E-02 Eh
   gradient norm :     0.0110466 Eh/α   predicted    -0.1095970E-02 (  -0.32%)
   displ. norm   :     0.4372022 α      lambda       -0.2442134E-02
   maximum displ.:     0.1702623 α      in ANC's #13, #21, #11, ...

........................................................................
.............................. CYCLE   23 ..............................
........................................................................
   1   -191.7017078 -0.191702E+03  0.269E-01    0.33       0.0  T
   2   -191.7017680 -0.602133E-04  0.149E-01    0.33       1.0  T
   3   -191.7008100  0.957963E-03  0.875E-02    0.33       1.0  T
   4   -191.7017103 -0.900220E-03  0.294E-02    0.33       1.0  T
   5   -191.7018223 -0.112020E-03  0.930E-03    0.33       1.0  T
   6   -191.7018254 -0.315099E-05  0.602E-03    0.33       1.6  T
   7   -191.7018294 -0.401374E-05  0.185E-03    0.33       5.3  T
   8   -191.7018296 -0.142189E-06  0.100E-03    0.33       9.7  T
   9   -191.7018296 -0.418882E-07  0.633E-04    0.33      15.4  T
     SCC iter.                  ...        0 min,  0.152 sec
     gradient                   ...        0 min,  0.018 sec
 * total energy  :  -188.8285855 Eh     change        0.8183123E-03 Eh
   gradient norm :     0.0376284 Eh/α   predicted    -0.1454469E-02 (-277.74%)
   displ. norm   :     0.2603503 α      lambda       -0.3878702E-02
   maximum displ.:     0.1141627 α      in ANC's #13, #21, #58, ...

........................................................................
.............................. CYCLE   24 ..............................
........................................................................
   1   -191.7037137 -0.191704E+03  0.221E-01    0.33       0.0  T
   2   -191.7037585 -0.448630E-04  0.122E-01    0.33       1.0  T
   3   -191.7034865  0.272066E-03  0.449E-02    0.32       1.0  T
   4   -191.7037537 -0.267222E-03  0.164E-02    0.33       1.0  T
   5   -191.7037878 -0.341186E-04  0.525E-03    0.33       1.9  T
   6   -191.7037891 -0.132393E-05  0.218E-03    0.33       4.5  T
   7   -191.7037894 -0.283665E-06  0.897E-04    0.33      10.9  T
     SCC iter.                  ...        0 min,  0.126 sec
     gradient                   ...        0 min,  0.021 sec
 * total energy  :  -188.8300900 Eh     change       -0.1504444E-02 Eh
   gradient norm :     0.0238104 Eh/α   predicted    -0.2070820E-02 (  37.65%)
   displ. norm   :     0.2798092 α      lambda       -0.2972089E-02
   maximum displ.:     0.1523902 α      in ANC's #58, #56, #59, ...

........................................................................
.............................. CYCLE   25 ..............................
........................................................................
   1   -191.6853200 -0.191685E+03  0.226E-01    0.32       0.0  T
   2   -191.6853724 -0.523807E-04  0.125E-01    0.33       1.0  T
   3   -191.6849249  0.447499E-03  0.604E-02    0.32       1.0  T
   4   -191.6853206 -0.395769E-03  0.264E-02    0.32       1.0  T
   5   -191.6854116 -0.909729E-04  0.798E-03    0.33       1.2  T
   6   -191.6854155 -0.393785E-05  0.422E-03    0.32       2.3  T
   7   -191.6854171 -0.159112E-05  0.189E-03    0.32       5.2  T
     SCC iter.                  ...        0 min,  0.121 sec
     gradient                   ...        0 min,  0.018 sec
 * total energy  :  -188.8300683 Eh     change        0.2170765E-04 Eh
   gradient norm :     0.0272526 Eh/α   predicted    -0.1602394E-02 (*******%)
   displ. norm   :     0.2507310 α      lambda       -0.2377003E-02
   maximum displ.:     0.0788693 α      in ANC's #20, #58, #56, ...

........................................................................
.............................. CYCLE   26 ..............................
........................................................................
   1   -191.6953803 -0.191695E+03  0.148E-01    0.32       0.0  T
   2   -191.6953997 -0.194580E-04  0.819E-02    0.32       1.0  T
   3   -191.6951331  0.266617E-03  0.466E-02    0.33       1.0  T
   4   -191.6953707 -0.237615E-03  0.184E-02    0.32       1.0  T
   5   -191.6954170 -0.462443E-04  0.512E-03    0.32       1.9  T
   6   -191.6954182 -0.125584E-05  0.254E-03    0.32       3.8  T
   7   -191.6954189 -0.628755E-06  0.988E-04    0.32       9.9  T
     SCC iter.                  ...        0 min,  0.120 sec
     gradient                   ...        0 min,  0.018 sec
 * total energy  :  -188.8314305 Eh     change       -0.1362239E-02 Eh
   gradient norm :     0.0121651 Eh/α   predicted    -0.1263222E-02 (  -7.27%)
   displ. norm   :     0.3571987 α      lambda       -0.9296412E-03
   maximum displ.:     0.1375813 α      in ANC's #20, #8, #26, ...

........................................................................
.............................. CYCLE   27 ..............................
........................................................................
   1   -191.6946461 -0.191695E+03  0.113E-01    0.31       0.0  T
   2   -191.6946526 -0.647736E-05  0.633E-02    0.31       1.0  T
   3   -191.6945354  0.117204E-03  0.323E-02    0.31       1.0  T
   4   -191.6946305 -0.951413E-04  0.147E-02    0.31       1.0  T
   5   -191.6946487 -0.181772E-04  0.885E-03    0.31       1.1  T
   6   -191.6946590 -0.102928E-04  0.234E-03    0.31       4.2  T
   7   -191.6946595 -0.514250E-06  0.960E-04    0.31      10.2  T
   8   -191.6946596 -0.617908E-07  0.486E-04    0.31      20.1  T
     SCC iter.                  ...        0 min,  0.136 sec
     gradient                   ...        0 min,  0.018 sec
 * total energy  :  -188.8320118 Eh     change       -0.5813271E-03 Eh
   gradient norm :     0.0124425 Eh/α   predicted    -0.5241343E-03 (  -9.84%)
   displ. norm   :     0.5052150 α      lambda       -0.9761378E-03
   maximum displ.:     0.1966109 α      in ANC's #20, #8, #26, ...

........................................................................
.............................. CYCLE   28 ..............................
........................................................................
   1   -191.6890252 -0.191689E+03  0.148E-01    0.30       0.0  T
   2   -191.6890362 -0.109373E-04  0.829E-02    0.30       1.0  T
   3   -191.6889036  0.132595E-03  0.359E-02    0.30       1.0  T
   4   -191.6890033 -0.997578E-04  0.181E-02    0.30       1.0  T
   5   -191.6890189 -0.155337E-04  0.138E-02    0.30       1.0  T
   6   -191.6890463 -0.273911E-04  0.296E-03    0.30       3.3  T
   7   -191.6890470 -0.734699E-06  0.129E-03    0.30       7.6  T
   8   -191.6890471 -0.155341E-06  0.659E-04    0.30      14.8  T
     SCC iter.                  ...        0 min,  0.137 sec
     gradient                   ...        0 min,  0.018 sec
 * total energy  :  -188.8327390 Eh     change       -0.7271618E-03 Eh
   gradient norm :     0.0143487 Eh/α   predicted    -0.6126514E-03 ( -15.75%)
   displ. norm   :     0.5032449 α      lambda       -0.1018364E-02
   maximum displ.:     0.2274988 α      in ANC's #8, #20, #11, ...

........................................................................
.............................. CYCLE   29 ..............................
........................................................................
   1   -191.6936183 -0.191694E+03  0.138E-01    0.29       0.0  T
   2   -191.6936289 -0.106357E-04  0.760E-02    0.29       1.0  T
   3   -191.6934229  0.206028E-03  0.380E-02    0.29       1.0  T
   4   -191.6935708 -0.147906E-03  0.230E-02    0.29       1.0  T
   5   -191.6936317 -0.609208E-04  0.100E-02    0.29       1.0  T
   6   -191.6936395 -0.782130E-05  0.323E-03    0.29       3.0  T
   7   -191.6936405 -0.925205E-06  0.148E-03    0.29       6.6  T
   8   -191.6936407 -0.222343E-06  0.733E-04    0.29      13.3  T
     SCC iter.                  ...        0 min,  0.138 sec
     gradient                   ...        0 min,  0.018 sec
 * total energy  :  -188.8333865 Eh     change       -0.6475646E-03 Eh
   gradient norm :     0.0078057 Eh/α   predicted    -0.6381388E-03 (  -1.46%)
   displ. norm   :     0.5428538 α      lambda       -0.6179658E-03
   maximum displ.:     0.2315678 α      in ANC's #8, #20, #11, ...

........................................................................
.............................. CYCLE   30 ..............................
........................................................................
   1   -191.6902478 -0.191690E+03  0.139E-01    0.29       0.0  T
   2   -191.6902338  0.140017E-04  0.778E-02    0.29       1.0  T
   3   -191.6890101  0.122367E-02  0.911E-02    0.29       1.0  T
   4   -191.6902333 -0.122324E-02  0.177E-02    0.29       1.0  T
   5   -191.6902594 -0.260439E-04  0.105E-02    0.29       1.0  T
   6   -191.6902700 -0.105809E-04  0.359E-03    0.29       2.7  T
   7   -191.6902713 -0.130252E-05  0.143E-03    0.29       6.8  T
   8   -191.6902715 -0.216925E-06  0.676E-04    0.29      14.4  T
     SCC iter.                  ...        0 min,  0.138 sec
     gradient                   ...        0 min,  0.018 sec
 * total energy  :  -188.8336553 Eh     change       -0.2687511E-03 Eh
   gradient norm :     0.0133724 Eh/α   predicted    -0.4000388E-03 (  48.85%)
   displ. norm   :     0.2624317 α      lambda       -0.5288666E-03
   maximum displ.:     0.1388866 α      in ANC's #8, #10, #11, ...

........................................................................
.............................. CYCLE   31 ..............................
........................................................................
   1   -191.6944366 -0.191694E+03  0.685E-02    0.29       0.0  T
   2   -191.6944223  0.142982E-04  0.375E-02    0.28       1.0  T
   3   -191.6937770  0.645300E-03  0.655E-02    0.29       1.0  T
   4   -191.6944417 -0.664704E-03  0.798E-03    0.29       1.2  T
   5   -191.6944451 -0.340523E-05  0.464E-03    0.29       2.1  T
   6   -191.6944464 -0.131202E-05  0.175E-03    0.29       5.6  T
   7   -191.6944466 -0.245535E-06  0.790E-04    0.29      12.4  T
     SCC iter.                  ...        0 min,  0.124 sec
     gradient                   ...        0 min,  0.021 sec
 * total energy  :  -188.8339933 Eh     change       -0.3380027E-03 Eh
   gradient norm :     0.0068592 Eh/α   predicted    -0.2826470E-03 ( -16.38%)
   displ. norm   :     0.4281002 α      lambda       -0.4365073E-03
   maximum displ.:     0.2095152 α      in ANC's #8, #11, #10, ...

........................................................................
.............................. CYCLE   32 ..............................
........................................................................
   1   -191.6961256 -0.191696E+03  0.113E-01    0.28       0.0  T
   2   -191.6961338 -0.825137E-05  0.606E-02    0.28       1.0  T
   3   -191.6959907  0.143111E-03  0.323E-02    0.29       1.0  T
   4   -191.6960955 -0.104787E-03  0.187E-02    0.28       1.0  T
   5   -191.6961352 -0.397551E-04  0.838E-03    0.28       1.2  T
   6   -191.6961415 -0.625156E-05  0.198E-03    0.28       4.9  T
   7   -191.6961417 -0.257587E-06  0.852E-04    0.28      11.5  T
   8   -191.6961418 -0.278584E-07  0.590E-04    0.28      16.5  T
     SCC iter.                  ...        0 min,  0.138 sec
     gradient                   ...        0 min,  0.018 sec
 * total energy  :  -188.8342304 Eh     change       -0.2370658E-03 Eh
   gradient norm :     0.0120244 Eh/α   predicted    -0.2582546E-03 (   8.94%)
   displ. norm   :     0.4537697 α      lambda       -0.4079111E-03
   maximum displ.:     0.2247356 α      in ANC's #8, #11, #10, ...

........................................................................
.............................. CYCLE   33 ..............................
........................................................................
   1   -191.6964047 -0.191696E+03  0.116E-01    0.28       0.0  T
   2   -191.6964102 -0.548998E-05  0.618E-02    0.28       1.0  T
   3   -191.6961358  0.274439E-03  0.432E-02    0.29       1.0  T
   4   -191.6963935 -0.257680E-03  0.160E-02    0.28       1.0  T
   5   -191.6964156 -0.221104E-04  0.820E-03    0.28       1.2  T
   6   -191.6964210 -0.543727E-05  0.170E-03    0.28       5.8  T
   7   -191.6964212 -0.212447E-06  0.863E-04    0.28      11.3  T
   8   -191.6964213 -0.317982E-07  0.573E-04    0.28      17.0  T
     SCC iter.                  ...        0 min,  0.138 sec
     gradient                   ...        0 min,  0.018 sec
 * total energy  :  -188.8345232 Eh     change       -0.2928498E-03 Eh
   gradient norm :     0.0096879 Eh/α   predicted    -0.2459519E-03 ( -16.01%)
   displ. norm   :     0.5035429 α      lambda       -0.4727683E-03
   maximum displ.:     0.2532198 α      in ANC's #8, #11, #10, ...

........................................................................
.............................. CYCLE   34 ..............................
........................................................................
   1   -191.6991106 -0.191699E+03  0.122E-01    0.29       0.0  T
   2   -191.6991215 -0.109553E-04  0.643E-02    0.29       1.0  T
   3   -191.6990131  0.108441E-03  0.291E-02    0.29       1.0  T
   4   -191.6990758 -0.627203E-04  0.205E-02    0.29       1.0  T
   5   -191.6991212 -0.454158E-04  0.939E-03    0.29       1.0  T
   6   -191.6991292 -0.799025E-05  0.261E-03    0.29       3.7  T
   7   -191.6991299 -0.671953E-06  0.119E-03    0.29       8.2  T
   8   -191.6991300 -0.102527E-06  0.661E-04    0.29      14.8  T
     SCC iter.                  ...        0 min,  0.135 sec
     gradient                   ...        0 min,  0.018 sec
 * total energy  :  -188.8348223 Eh     change       -0.2990742E-03 Eh
   gradient norm :     0.0091496 Eh/α   predicted    -0.2963215E-03 (  -0.92%)
   displ. norm   :     0.5139503 α      lambda       -0.3770555E-03
   maximum displ.:     0.2534499 α      in ANC's #8, #11, #10, ...

........................................................................
.............................. CYCLE   35 ..............................
........................................................................
   1   -191.6965562 -0.191697E+03  0.126E-01    0.29       0.0  T
   2   -191.6965672 -0.110522E-04  0.662E-02    0.28       1.0  T
   3   -191.6965338  0.334473E-04  0.198E-02    0.29       1.0  T
   4   -191.6965488 -0.150236E-04  0.143E-02    0.28       1.0  T
   5   -191.6965411  0.766853E-05  0.153E-02    0.28       1.0  T
   6   -191.6965732 -0.321355E-04  0.182E-03    0.28       5.4  T
   7   -191.6965735 -0.268503E-06  0.873E-04    0.29      11.2  T
   8   -191.6965735 -0.974538E-08  0.615E-04    0.29      15.9  T
     SCC iter.                  ...        0 min,  0.136 sec
     gradient                   ...        0 min,  0.018 sec
 * total energy  :  -188.8351403 Eh     change       -0.3180451E-03 Eh
   gradient norm :     0.0080822 Eh/α   predicted    -0.2383339E-03 ( -25.06%)
   displ. norm   :     0.6039739 α      lambda       -0.6176468E-03
   maximum displ.:     0.2881219 α      in ANC's #8, #11, #5, ...

........................................................................
.............................. CYCLE   36 ..............................
........................................................................
   1   -191.6964236 -0.191696E+03  0.145E-01    0.29       0.0  T
   2   -191.6964213  0.223502E-05  0.765E-02    0.28       1.0  T
   3   -191.6955517  0.869584E-03  0.752E-02    0.29       1.0  T
   4   -191.6964242 -0.872485E-03  0.178E-02    0.29       1.0  T
   5   -191.6964446 -0.203369E-04  0.105E-02    0.28       1.0  T
   6   -191.6964517 -0.710727E-05  0.410E-03    0.28       2.4  T
   7   -191.6964534 -0.174430E-05  0.147E-03    0.28       6.6  T
   8   -191.6964536 -0.165645E-06  0.835E-04    0.28      11.7  T
     SCC iter.                  ...        0 min,  0.136 sec
     gradient                   ...        0 min,  0.019 sec
 * total energy  :  -188.8355178 Eh     change       -0.3774473E-03 Eh
   gradient norm :     0.0135337 Eh/α   predicted    -0.4214837E-03 (  11.67%)
   displ. norm   :     0.5407057 α      lambda       -0.5761369E-03
   maximum displ.:     0.2501875 α      in ANC's #8, #5, #11, ...

........................................................................
.............................. CYCLE   37 ..............................
........................................................................
   1   -191.6987130 -0.191699E+03  0.125E-01    0.29       0.0  T
   2   -191.6987229 -0.991556E-05  0.659E-02    0.28       1.0  T
   3   -191.6985978  0.125130E-03  0.303E-02    0.29       1.0  T
   4   -191.6986838 -0.860295E-04  0.193E-02    0.29       1.0  T
   5   -191.6987238 -0.399900E-04  0.905E-03    0.28       1.1  T
   6   -191.6987306 -0.673930E-05  0.225E-03    0.29       4.3  T
   7   -191.6987311 -0.560074E-06  0.975E-04    0.29      10.0  T
   8   -191.6987312 -0.454374E-07  0.648E-04    0.29      15.1  T
     SCC iter.                  ...        0 min,  0.135 sec
     gradient                   ...        0 min,  0.018 sec
 * total energy  :  -188.8359219 Eh     change       -0.4041419E-03 Eh
   gradient norm :     0.0105477 Eh/α   predicted    -0.3722937E-03 (  -7.88%)
   displ. norm   :     0.5949115 α      lambda       -0.4509068E-03
   maximum displ.:     0.2958337 α      in ANC's #8, #11, #5, ...

........................................................................
.............................. CYCLE   38 ..............................
........................................................................
   1   -191.6929707 -0.191693E+03  0.139E-01    0.28       0.0  T
   2   -191.6929766 -0.590840E-05  0.738E-02    0.28       1.0  T
   3   -191.6925375  0.439090E-03  0.552E-02    0.29       1.0  T
   4   -191.6929543 -0.416878E-03  0.190E-02    0.28       1.0  T
   5   -191.6929809 -0.265641E-04  0.116E-02    0.28       1.0  T
   6   -191.6929934 -0.125150E-04  0.452E-03    0.28       2.2  T
   7   -191.6929957 -0.224788E-05  0.129E-03    0.28       7.6  T
   8   -191.6929958 -0.117612E-06  0.769E-04    0.28      12.7  T
     SCC iter.                  ...        0 min,  0.136 sec
     gradient                   ...        0 min,  0.018 sec
 * total energy  :  -188.8362568 Eh     change       -0.3348706E-03 Eh
   gradient norm :     0.0073929 Eh/α   predicted    -0.3052465E-03 (  -8.85%)
   displ. norm   :     0.5277682 α      lambda       -0.3535482E-03
   maximum displ.:     0.2532679 α      in ANC's #8, #5, #11, ...

........................................................................
.............................. CYCLE   39 ..............................
........................................................................
   1   -191.6954240 -0.191695E+03  0.119E-01    0.28       0.0  T
   2   -191.6954319 -0.788299E-05  0.622E-02    0.28       1.0  T
   3   -191.6952780  0.153894E-03  0.338E-02    0.28       1.0  T
   4   -191.6954093 -0.131225E-03  0.160E-02    0.28       1.0  T
   5   -191.6954287 -0.194045E-04  0.977E-03    0.28       1.0  T
   6   -191.6954391 -0.104225E-04  0.279E-03    0.28       3.5  T
   7   -191.6954399 -0.823707E-06  0.102E-03    0.28       9.5  T
   8   -191.6954400 -0.491437E-07  0.687E-04    0.28      14.2  T
     SCC iter.                  ...        0 min,  0.137 sec
     gradient                   ...        0 min,  0.018 sec
 * total energy  :  -188.8365231 Eh     change       -0.2663027E-03 Eh
   gradient norm :     0.0068207 Eh/α   predicted    -0.2260132E-03 ( -15.13%)
   displ. norm   :     0.5271842 α      lambda       -0.3119889E-03
   maximum displ.:     0.2601848 α      in ANC's #8, #5, #10, ...

........................................................................
.............................. CYCLE   40 ..............................
........................................................................
   1   -191.6958451 -0.191696E+03  0.120E-01    0.28       0.0  T
   2   -191.6958533 -0.818056E-05  0.634E-02    0.28       1.0  T
   3   -191.6957103  0.143003E-03  0.335E-02    0.28       1.0  T
   4   -191.6958260 -0.115718E-03  0.168E-02    0.28       1.0  T
   5   -191.6958440 -0.180448E-04  0.113E-02    0.28       1.0  T
   6   -191.6958602 -0.161842E-04  0.322E-03    0.28       3.0  T
   7   -191.6958613 -0.105884E-05  0.106E-03    0.28       9.2  T
   8   -191.6958613 -0.466063E-07  0.708E-04    0.28      13.8  T
     SCC iter.                  ...        0 min,  0.137 sec
     gradient                   ...        0 min,  0.019 sec
 * total energy  :  -188.8367750 Eh     change       -0.2518629E-03 Eh
   gradient norm :     0.0064588 Eh/α   predicted    -0.1993498E-03 ( -20.85%)
   displ. norm   :     0.5408107 α      lambda       -0.3206884E-03
   maximum displ.:     0.2643570 α      in ANC's #5, #8, #10, ...

........................................................................
.............................. CYCLE   41 ..............................
........................................................................
   1   -191.6991063 -0.191699E+03  0.123E-01    0.28       0.0  T
   2   -191.6991084 -0.217622E-05  0.650E-02    0.27       1.0  T
   3   -191.6986158  0.492609E-03  0.571E-02    0.28       1.0  T
   4   -191.6991105 -0.494642E-03  0.126E-02    0.28       1.0  T
   5   -191.6991163 -0.584097E-05  0.803E-03    0.27       1.2  T
   6   -191.6991226 -0.627729E-05  0.293E-03    0.28       3.3  T
   7   -191.6991235 -0.888860E-06  0.110E-03    0.28       8.9  T
   8   -191.6991235 -0.455508E-07  0.756E-04    0.28      12.9  T
     SCC iter.                  ...        0 min,  0.139 sec
     gradient                   ...        0 min,  0.021 sec
 * total energy  :  -188.8370378 Eh     change       -0.2628293E-03 Eh
   gradient norm :     0.0068499 Eh/α   predicted    -0.2072433E-03 ( -21.15%)
   displ. norm   :     0.6174954 α      lambda       -0.3236201E-03
   maximum displ.:     0.3017014 α      in ANC's #5, #8, #10, ...

........................................................................
.............................. CYCLE   42 ..............................
........................................................................
   1   -191.6988532 -0.191699E+03  0.138E-01    0.28       0.0  T
   2   -191.6988604 -0.718586E-05  0.734E-02    0.28       1.0  T
   3   -191.6984837  0.376763E-03  0.503E-02    0.28       1.0  T
   4   -191.6988544 -0.370747E-03  0.146E-02    0.28       1.0  T
   5   -191.6988641 -0.973079E-05  0.917E-03    0.28       1.1  T
   6   -191.6988724 -0.830331E-05  0.252E-03    0.28       3.9  T
   7   -191.6988731 -0.672868E-06  0.108E-03    0.28       9.1  T
   8   -191.6988731 -0.330099E-07  0.732E-04    0.28      13.3  T
     SCC iter.                  ...        0 min,  0.137 sec
     gradient                   ...        0 min,  0.018 sec
 * total energy  :  -188.8373119 Eh     change       -0.2741192E-03 Eh
   gradient norm :     0.0068578 Eh/α   predicted    -0.2235098E-03 ( -18.46%)
   displ. norm   :     0.5971423 α      lambda       -0.3593899E-03
   maximum displ.:     0.3094882 α      in ANC's #5, #8, #11, ...
 * RMSD in coord.:     0.8245612 α      energy gain  -0.9771986E-02 Eh

generating ANC from model Hessian ...
Using Lindh-Hessian (1995)
 Shifting diagonal of input Hessian by   5.029538582255264E-003
 Lowest  eigenvalues of input Hessian
    0.005000   -0.000000   -0.000000   -0.000000    0.000000    0.000000
    0.000000    0.005052    0.005065    0.005086    0.005097    0.005163
    0.005221    0.005234    0.005264    0.005312    0.005340    0.005563
 Highest eigenvalues
    2.151756    2.280663    2.281909    2.606669    2.644586    2.688574
 

........................................................................
.............................. CYCLE   43 ..............................
........................................................................
   1   -191.7019300 -0.191702E+03  0.136E-01    0.28       0.0  T
   2   -191.7019408 -0.107512E-04  0.717E-02    0.28       1.0  T
   3   -191.7017224  0.218423E-03  0.390E-02    0.28       1.0  T
   4   -191.7019160 -0.193658E-03  0.174E-02    0.28       1.0  T
   5   -191.7019448 -0.287438E-04  0.813E-03    0.28       1.2  T
   6   -191.7019502 -0.545520E-05  0.195E-03    0.28       5.0  T
   7   -191.7019505 -0.281240E-06  0.989E-04    0.28       9.9  T
   8   -191.7019505 -0.196209E-07  0.731E-04    0.28      13.3  T
     SCC iter.                  ...        0 min,  0.137 sec
     gradient                   ...        0 min,  0.019 sec
 * total energy  :  -188.8375955 Eh     change       -0.2836340E-03 Eh
   gradient norm :     0.0057080 Eh/α   predicted     0.0000000E+00 (-100.00%)
   displ. norm   :     0.1259245 α      lambda       -0.1467090E-03
   maximum displ.:     0.0611278 α      in ANC's #13, #6, #8, ...

........................................................................
.............................. CYCLE   44 ..............................
........................................................................
   1   -191.6999084 -0.191700E+03  0.288E-02    0.28       0.0  T
   2   -191.6999090 -0.583460E-06  0.158E-02    0.28       1.0  T
   3   -191.6998950  0.140169E-04  0.102E-02    0.28       1.0  T
   4   -191.6999044 -0.939460E-05  0.594E-03    0.28       1.6  T
   5   -191.6999092 -0.486438E-05  0.226E-03    0.28       4.3  T
   6   -191.6999096 -0.373496E-06  0.104E-03    0.28       9.3  T
   7   -191.6999097 -0.124457E-06  0.398E-04    0.28      24.5  T
     SCC iter.                  ...        0 min,  0.119 sec
     gradient                   ...        0 min,  0.019 sec
 * total energy  :  -188.8377195 Eh     change       -0.1239048E-03 Eh
   gradient norm :     0.0030059 Eh/α   predicted    -0.7453896E-04 ( -39.84%)
   displ. norm   :     0.1528737 α      lambda       -0.1428612E-03
   maximum displ.:     0.0627025 α      in ANC's #21, #13, #6, ...

........................................................................
.............................. CYCLE   45 ..............................
........................................................................
   1   -191.6981300 -0.191698E+03  0.451E-02    0.28       0.0  T
   2   -191.6981317 -0.171532E-05  0.246E-02    0.28       1.0  T
   3   -191.6981007  0.309804E-04  0.152E-02    0.28       1.0  T
   4   -191.6981241 -0.233883E-04  0.782E-03    0.28       1.2  T
   5   -191.6981327 -0.857980E-05  0.271E-03    0.28       3.6  T
   6   -191.6981333 -0.571849E-06  0.106E-03    0.28       9.2  T
   7   -191.6981334 -0.883867E-07  0.577E-04    0.28      16.9  T
   8   -191.6981334 -0.282759E-07  0.295E-04    0.28      33.1  T
     SCC iter.                  ...        0 min,  0.137 sec
     gradient                   ...        0 min,  0.020 sec
 * total energy  :  -188.8378067 Eh     change       -0.8722047E-04 Eh
   gradient norm :     0.0032471 Eh/α   predicted    -0.7310093E-04 ( -16.19%)
   displ. norm   :     0.4326041 α      lambda       -0.3648330E-03
   maximum displ.:     0.2040884 α      in ANC's #13, #21, #6, ...

........................................................................
.............................. CYCLE   46 ..............................
........................................................................
   1   -191.6940166 -0.191694E+03  0.118E-01    0.29       0.0  T
   2   -191.6940302 -0.136275E-04  0.640E-02    0.29       1.0  T
   3   -191.6939959  0.342963E-04  0.205E-02    0.28       1.0  T
   4   -191.6940274 -0.314077E-04  0.103E-02    0.29       1.0  T
   5   -191.6940114  0.159614E-04  0.127E-02    0.29       1.0  T
   6   -191.6940365 -0.250677E-04  0.356E-03    0.29       2.7  T
   7   -191.6940377 -0.121454E-05  0.141E-03    0.29       6.9  T
   8   -191.6940378 -0.136315E-06  0.776E-04    0.29      12.6  T
   9   -191.6940378 -0.174989E-07  0.528E-04    0.29      18.5  T
     SCC iter.                  ...        0 min,  0.153 sec
     gradient                   ...        0 min,  0.019 sec
 * total energy  :  -188.8378744 Eh     change       -0.6774206E-04 Eh
   gradient norm :     0.0103726 Eh/α   predicted    -0.2165781E-03 ( 219.71%)
   displ. norm   :     0.1691528 α      lambda       -0.3451861E-03
   maximum displ.:     0.0654262 α      in ANC's #13, #8, #6, ...

........................................................................
.............................. CYCLE   47 ..............................
........................................................................
   1   -191.6953122 -0.191695E+03  0.786E-02    0.29       0.0  T
   2   -191.6953182 -0.606709E-05  0.432E-02    0.29       1.0  T
   3   -191.6953176  0.660879E-06  0.635E-03    0.29       1.5  T
   4   -191.6953197 -0.210023E-05  0.359E-03    0.29       2.7  T
   5   -191.6953180  0.169109E-05  0.448E-03    0.29       2.2  T
   6   -191.6953209 -0.295478E-05  0.868E-04    0.29      11.2  T
   7   -191.6953210 -0.618461E-07  0.461E-04    0.29      21.2  T
     SCC iter.                  ...        0 min,  0.120 sec
     gradient                   ...        0 min,  0.018 sec
 * total energy  :  -188.8379893 Eh     change       -0.1148625E-03 Eh
   gradient norm :     0.0091692 Eh/α   predicted    -0.1775315E-03 (  54.56%)
   displ. norm   :     0.1042474 α      lambda       -0.3076994E-03
   maximum displ.:     0.0366038 α      in ANC's #58, #8, #13, ...

........................................................................
.............................. CYCLE   48 ..............................
........................................................................
   1   -191.7000563 -0.191700E+03  0.570E-02    0.29       0.0  T
   2   -191.7000606 -0.425966E-05  0.313E-02    0.29       1.0  T
   3   -191.7000477  0.128738E-04  0.110E-02    0.29       1.0  T
   4   -191.7000534 -0.573523E-05  0.766E-03    0.29       1.3  T
   5   -191.7000619 -0.846412E-05  0.251E-03    0.29       3.9  T
   6   -191.7000626 -0.743931E-06  0.909E-04    0.29      10.7  T
   7   -191.7000627 -0.333296E-07  0.503E-04    0.29      19.4  T
     SCC iter.                  ...        0 min,  0.119 sec
     gradient                   ...        0 min,  0.019 sec
 * total energy  :  -188.8381129 Eh     change       -0.1236185E-03 Eh
   gradient norm :     0.0050276 Eh/α   predicted    -0.1555260E-03 (  25.81%)
   displ. norm   :     0.1979323 α      lambda       -0.1856317E-03
   maximum displ.:     0.0954742 α      in ANC's #13, #21, #6, ...

........................................................................
.............................. CYCLE   49 ..............................
........................................................................
   1   -191.7003520 -0.191700E+03  0.428E-02    0.29       0.0  T
   2   -191.7003534 -0.143198E-05  0.234E-02    0.29       1.0  T
   3   -191.7003487  0.467241E-05  0.757E-03    0.29       1.3  T
   4   -191.7003523 -0.358859E-05  0.435E-03    0.29       2.2  T
   5   -191.7003507  0.164477E-05  0.491E-03    0.29       2.0  T
   6   -191.7003542 -0.349121E-05  0.106E-03    0.29       9.2  T
   7   -191.7003543 -0.129574E-06  0.403E-04    0.29      24.2  T
   8   -191.7003543 -0.113609E-07  0.237E-04    0.29      41.2  T
     SCC iter.                  ...        0 min,  0.137 sec
     gradient                   ...        0 min,  0.018 sec
 * total energy  :  -188.8382504 Eh     change       -0.1375348E-03 Eh
   gradient norm :     0.0034485 Eh/α   predicted    -0.9645391E-04 ( -29.87%)
   displ. norm   :     0.4462740 α      lambda       -0.2348342E-03
   maximum displ.:     0.2278458 α      in ANC's #13, #8, #6, ...

........................................................................
.............................. CYCLE   50 ..............................
........................................................................
   1   -191.6989245 -0.191699E+03  0.949E-02    0.29       0.0  T
   2   -191.6989302 -0.575981E-05  0.514E-02    0.29       1.0  T
   3   -191.6989075  0.227545E-04  0.167E-02    0.29       1.0  T
   4   -191.6989267 -0.192232E-04  0.913E-03    0.29       1.1  T
   5   -191.6989156  0.110822E-04  0.110E-02    0.29       1.0  T
   6   -191.6989329 -0.172896E-04  0.294E-03    0.29       3.3  T
   7   -191.6989341 -0.122545E-05  0.714E-04    0.29      13.7  T
   8   -191.6989342 -0.197867E-07  0.469E-04    0.29      20.8  T
   9   -191.6989342 -0.290419E-08  0.293E-04    0.29      33.3  T
     SCC iter.                  ...        0 min,  0.154 sec
     gradient                   ...        0 min,  0.019 sec
 * total energy  :  -188.8384198 Eh     change       -0.1693531E-03 Eh
   gradient norm :     0.0031509 Eh/α   predicted    -0.1408033E-03 ( -16.86%)
   displ. norm   :     0.4144962 α      lambda       -0.1723326E-03
   maximum displ.:     0.2115050 α      in ANC's #13, #8, #6, ...

........................................................................
.............................. CYCLE   51 ..............................
........................................................................
   1   -191.6990973 -0.191699E+03  0.853E-02    0.29       0.0  T
   2   -191.6991025 -0.518264E-05  0.466E-02    0.29       1.0  T
   3   -191.6990792  0.232836E-04  0.166E-02    0.29       1.0  T
   4   -191.6990928 -0.136095E-04  0.107E-02    0.29       1.0  T
   5   -191.6990928  0.404366E-07  0.935E-03    0.29       1.0  T
   6   -191.6991049 -0.121146E-04  0.289E-03    0.29       3.4  T
   7   -191.6991059 -0.105844E-05  0.956E-04    0.29      10.2  T
   8   -191.6991060 -0.721564E-07  0.498E-04    0.29      19.6  T
   9   -191.6991060 -0.250401E-08  0.309E-04    0.29      31.6  T
     SCC iter.                  ...        0 min,  0.153 sec
     gradient                   ...        0 min,  0.020 sec
 * total energy  :  -188.8385347 Eh     change       -0.1149598E-03 Eh
   gradient norm :     0.0040013 Eh/α   predicted    -0.1009725E-03 ( -12.17%)
   displ. norm   :     0.3275651 α      lambda       -0.1340469E-03
   maximum displ.:     0.1601248 α      in ANC's #13, #6, #8, ...

........................................................................
.............................. CYCLE   52 ..............................
........................................................................
   1   -191.7005442 -0.191701E+03  0.687E-02    0.29       0.0  T
   2   -191.7005471 -0.287311E-05  0.377E-02    0.29       1.0  T
   3   -191.7005239  0.232665E-04  0.156E-02    0.29       1.0  T
   4   -191.7005393 -0.154653E-04  0.926E-03    0.29       1.1  T
   5   -191.7005410 -0.169288E-05  0.766E-03    0.29       1.3  T
   6   -191.7005493 -0.826791E-05  0.214E-03    0.29       4.6  T
   7   -191.7005498 -0.547975E-06  0.696E-04    0.29      14.0  T
   8   -191.7005499 -0.237856E-07  0.440E-04    0.29      22.2  T
     SCC iter.                  ...        0 min,  0.136 sec
     gradient                   ...        0 min,  0.018 sec
 * total energy  :  -188.8386217 Eh     change       -0.8698255E-04 Eh
   gradient norm :     0.0040564 Eh/α   predicted    -0.7421619E-04 ( -14.68%)
   displ. norm   :     0.2533480 α      lambda       -0.9170263E-04
   maximum displ.:     0.1247063 α      in ANC's #6, #8, #13, ...

........................................................................
.............................. CYCLE   53 ..............................
........................................................................
   1   -191.7006899 -0.191701E+03  0.533E-02    0.29       0.0  T
   2   -191.7006915 -0.161144E-05  0.292E-02    0.29       1.0  T
   3   -191.7006743  0.171275E-04  0.128E-02    0.29       1.0  T
   4   -191.7006841 -0.979150E-05  0.822E-03    0.29       1.2  T
   5   -191.7006897 -0.552786E-05  0.509E-03    0.29       1.9  T
   6   -191.7006929 -0.319988E-05  0.134E-03    0.29       7.3  T
   7   -191.7006931 -0.235879E-06  0.515E-04    0.29      19.0  T
   8   -191.7006931 -0.153806E-07  0.300E-04    0.29      32.5  T
     SCC iter.                  ...        0 min,  0.137 sec
     gradient                   ...        0 min,  0.018 sec
 * total energy  :  -188.8386916 Eh     change       -0.6988541E-04 Eh
   gradient norm :     0.0031526 Eh/α   predicted    -0.4879726E-04 ( -30.18%)
   displ. norm   :     0.2481940 α      lambda       -0.8448516E-04
   maximum displ.:     0.1255347 α      in ANC's #6, #8, #13, ...

........................................................................
.............................. CYCLE   54 ..............................
........................................................................
   1   -191.7012642 -0.191701E+03  0.578E-02    0.29       0.0  T
   2   -191.7012657 -0.155094E-05  0.314E-02    0.29       1.0  T
   3   -191.7012110  0.546838E-04  0.202E-02    0.29       1.0  T
   4   -191.7012544 -0.433343E-04  0.102E-02    0.29       1.0  T
   5   -191.7012669 -0.124755E-04  0.432E-03    0.29       2.3  T
   6   -191.7012684 -0.153415E-05  0.124E-03    0.29       7.9  T
   7   -191.7012686 -0.177512E-06  0.616E-04    0.29      15.9  T
   8   -191.7012686 -0.273737E-07  0.351E-04    0.29      27.8  T
     SCC iter.                  ...        0 min,  0.137 sec
     gradient                   ...        0 min,  0.019 sec
 * total energy  :  -188.8387533 Eh     change       -0.6168364E-04 Eh
   gradient norm :     0.0026435 Eh/α   predicted    -0.4484542E-04 ( -27.30%)
   displ. norm   :     0.2335708 α      lambda       -0.5676410E-04
   maximum displ.:     0.1227304 α      in ANC's #6, #8, #13, ...

........................................................................
.............................. CYCLE   55 ..............................
........................................................................
   1   -191.7005442 -0.191701E+03  0.541E-02    0.30       0.0  T
   2   -191.7005455 -0.127195E-05  0.291E-02    0.30       1.0  T
   3   -191.7004844  0.611238E-04  0.209E-02    0.29       1.0  T
   4   -191.7005358 -0.514658E-04  0.970E-03    0.30       1.0  T
   5   -191.7005472 -0.113158E-04  0.394E-03    0.30       2.5  T
   6   -191.7005482 -0.108488E-05  0.131E-03    0.30       7.4  T
   7   -191.7005484 -0.199902E-06  0.614E-04    0.30      15.9  T
   8   -191.7005485 -0.320399E-07  0.315E-04    0.30      31.0  T
     SCC iter.                  ...        0 min,  0.137 sec
     gradient                   ...        0 min,  0.019 sec
 * total energy  :  -188.8387949 Eh     change       -0.4157318E-04 Eh
   gradient norm :     0.0020303 Eh/α   predicted    -0.2993159E-04 ( -28.00%)
   displ. norm   :     0.1824668 α      lambda       -0.4276701E-04
   maximum displ.:     0.0961235 α      in ANC's #6, #8, #12, ...

........................................................................
.............................. CYCLE   56 ..............................
........................................................................
   1   -191.7010941 -0.191701E+03  0.463E-02    0.30       0.0  T
   2   -191.7010946 -0.575469E-06  0.245E-02    0.30       1.0  T
   3   -191.7010352  0.594781E-04  0.203E-02    0.30       1.0  T
   4   -191.7010906 -0.554139E-04  0.729E-03    0.30       1.3  T
   5   -191.7010964 -0.578516E-05  0.326E-03    0.30       3.0  T
   6   -191.7010971 -0.712409E-06  0.972E-04    0.30      10.0  T
   7   -191.7010972 -0.103121E-06  0.454E-04    0.30      21.5  T
     SCC iter.                  ...        0 min,  0.119 sec
     gradient                   ...        0 min,  0.020 sec
 * total energy  :  -188.8388270 Eh     change       -0.3208926E-04 Eh
   gradient norm :     0.0018482 Eh/α   predicted    -0.2210013E-04 ( -31.13%)
   displ. norm   :     0.2916641 α      lambda       -0.4465907E-04
   maximum displ.:     0.1577795 α      in ANC's #6, #8, #12, ...

........................................................................
.............................. CYCLE   57 ..............................
........................................................................
   1   -191.7004643 -0.191700E+03  0.742E-02    0.30       0.0  T
   2   -191.7004661 -0.182434E-05  0.389E-02    0.30       1.0  T
   3   -191.7003318  0.134344E-03  0.307E-02    0.30       1.0  T
   4   -191.7004556 -0.123825E-03  0.115E-02    0.30       1.0  T
   5   -191.7004698 -0.142546E-04  0.530E-03    0.30       1.8  T
[...]
    36   6 C      3.030     0.018    27.575     8.613
    37   6 C      2.907    -0.038    28.936     8.820
    38   6 C      2.937    -0.044    29.083     8.844
    39   6 C      2.989     0.020    27.560     8.612
    40  16 S      2.284    -0.046   142.971    20.125
    41   6 C      2.938    -0.028    28.711     8.788
    42   6 C      3.128     0.001    27.799     8.633
    43   6 C      3.757    -0.103    22.529     6.767
    44   6 C      3.125    -0.011    28.092     8.679
    45   6 C      2.901    -0.033    28.819     8.802
    46   6 C      2.894    -0.039    28.978     8.826
    47   6 C      2.902    -0.033    28.826     8.803
    48   6 C      2.899    -0.031    28.784     8.797
    49   6 C      2.933    -0.043    29.064     8.841
    50   6 C      2.982     0.036    27.181     8.552
    51   6 C      3.067    -0.041    28.951     8.823
    52   6 C      3.065    -0.040    28.933     8.820
    53   6 C      3.019     0.028    27.356     8.579
    54  16 S      2.312    -0.066   143.775    20.181
    55   6 C      3.022     0.025    27.415     8.589
    56   6 C      3.058    -0.039    28.903     8.817
    57   6 C      3.067    -0.043    28.986     8.828
    58   6 C      2.978     0.039    27.123     8.543
    59  16 S      2.412    -0.058   143.475    20.160
    60   6 C      2.947    -0.054    29.349     8.885
    61   6 C      2.962     0.002    27.973     8.675
    62  16 S      2.476     0.036   139.604    19.886
    63   6 C      2.923    -0.039    28.961     8.825
    64   6 C      3.280    -0.018    26.968     8.356
    65   6 C      3.346     0.111    23.101     7.585
    66   8 O      1.715    -0.179    16.999     5.567
    67   6 C      3.087     0.120    25.278     8.242
    68   7 N      2.756     0.533    13.664     5.490
    69   8 O      0.933    -0.395    21.538     6.224
    70   8 O      0.931    -0.370    21.063     6.155
    71   6 C      2.973    -0.048    29.190     8.862
    72   1 H      0.926     0.070     2.088     2.260
    73   1 H      0.926     0.066     2.130     2.282
    74   1 H      0.926     0.070     2.083     2.257
    75   1 H      0.926     0.078     1.999     2.211
    76   1 H      0.926     0.065     2.137     2.286
    77   1 H      0.924     0.039     2.461     2.453
    78   1 H      0.924     0.041     2.434     2.440
    79   1 H      0.925     0.043     2.414     2.430
    80   1 H      0.925     0.036     2.507     2.476
    81   1 H      0.925     0.045     2.382     2.414
    82   1 H      0.925     0.047     2.353     2.399
    83   1 H      0.925     0.045     2.385     2.415
    84   1 H      0.925     0.037     2.487     2.466
    85   1 H      0.925     0.037     2.482     2.464
    86   1 H      0.925     0.041     2.439     2.442
    87   1 H      0.926     0.050     2.316     2.380
    88   1 H      0.926     0.057     2.229     2.334
    89   1 H      0.926     0.042     2.419     2.432
    90   1 H      0.926     0.043     2.415     2.430
    91   1 H      0.925     0.042     2.416     2.431
    92   1 H      0.925     0.053     2.282     2.362
    93   1 H      0.925     0.049     2.327     2.385
    94   1 H      0.926     0.040     2.453     2.449
    95   1 H      0.926     0.043     2.408     2.427
    96   1 H      0.925     0.035     2.518     2.482
    97   1 H      0.925     0.045     2.389     2.417
    98   1 H      0.925     0.044     2.393     2.419
    99   1 H      0.926     0.043     2.412     2.429
   100   1 H      0.926     0.041     2.434     2.440
   101   1 H      0.926     0.044     2.395     2.420
   102   1 H      0.926     0.047     2.359     2.402
   103   1 H      0.925     0.065     2.140     2.287
   104   1 H      0.927     0.071     2.076     2.253
   105   1 H      0.927     0.083     1.943     2.180

 Mol. C6AA /au·bohr⁶  :     223906.121366
 Mol. C8AA /au·bohr⁸  :    6715709.518951
 Mol. α(0) /au        :        762.672392


Wiberg/Mayer (AO) data.
largest (>0.10) Wiberg bond orders for each atom
          total WBO             WBO to atom ...
     1  C   3.969        C    2 1.491    C   19 1.121    C    7 1.098
     2  C   3.955        C    1 1.491    C    5 1.097    C    3 1.095
     3  C   3.945        N    4 2.766    C    2 1.095
     4  N   2.973        C    3 2.766
     5  C   3.946        N    6 2.758    C    2 1.097
     6  N   2.967        C    5 2.758
     7  C   3.980        C   12 1.421    C    8 1.246    C    1 1.098
     8  C   3.979        C    9 1.471    C    7 1.246    C   17 1.022
     9  C   3.972        C    8 1.471    C   10 1.317    H   72 0.962
    10  C   3.974        C    9 1.317    C   11 1.264    C   15 1.205
    11  C   3.950        C   12 1.382    C   10 1.264    S   13 1.119
    12  C   3.972        C    7 1.421    C   11 1.382    H   73 0.958
    13  S   2.560        C   14 1.133    C   11 1.119
    14  C   3.901        C   15 1.608    S   13 1.133    Br  16 1.030
    15  C   3.974        C   14 1.608    C   10 1.205    H   74 0.959
    16  Br  1.171        C   14 1.030
    17  C   3.927        O   18 1.776    C    8 1.022    C   19 1.019
    18  O   2.057        C   17 1.776
    19  C   3.975        C   20 1.603    C    1 1.121    C   17 1.019
    20  C   3.953        C   19 1.603    C   21 1.138    H   75 0.933
    21  C   3.977        C   22 1.529    C   25 1.139    C   20 1.138
    22  C   3.936        C   21 1.529    S   23 1.215    H   76 0.967
    23  S   2.609        C   22 1.215    C   24 1.091
    24  C   3.951        C   36 1.329    C   25 1.321    S   23 1.091
    25  C   3.977        C   24 1.321    C   26 1.279    C   21 1.139
    26  C   3.979        C   29 1.465    C   25 1.279    C   27 1.012
    27  C   3.995        C   26 1.012    C   28 1.001    H   78 0.962    H   77 0.954
    28  C   3.992        C   27 1.001    H   80 0.986    H   81 0.982    H   79 0.982
    29  C   3.978        C   26 1.465    C   32 1.279    C   30 1.014
    30  C   3.994        C   29 1.014    C   31 1.000    H   82 0.965    H   83 0.956
    31  C   3.992        C   30 1.000    H   84 0.986    H   85 0.986    H   86 0.980
    32  C   3.971        C   36 1.311    C   29 1.279    C   33 1.146
    33  C   3.980        C   34 1.566    C   32 1.146    C   37 1.108
    34  C   3.903        C   33 1.566    S   35 1.172    H   87 0.967
    35  S   2.585        C   34 1.172    C   36 1.108
    36  C   3.952        C   24 1.329    C   32 1.311    S   35 1.108
    37  C   3.937        C   38 1.690    C   33 1.108    H   88 0.940
    38  C   3.986        C   37 1.690    C   39 1.198    H   89 0.949
    39  C   3.909        C   44 1.371    C   38 1.198    S   40 1.138
    40  S   2.585        C   41 1.162    C   39 1.138
    41  C   3.929        C   42 1.619    S   40 1.162    H   90 0.969
    42  C   3.973        C   41 1.619    C   44 1.190    C   43 1.023
    43  C   3.996        C   42 1.023    H   91 0.983    H   92 0.971    H   93 0.966
    44  C   3.959        C   39 1.371    C   45 1.193    C   42 1.190
    45  C   3.884        C   46 1.596    C   44 1.193    H   94 0.951
    46  C   3.956        C   45 1.596    C   47 1.255    H   95 0.961
    47  C   3.873        C   48 1.531    C   46 1.255    H   96 0.966
    48  C   3.963        C   47 1.531    C   49 1.320    H   97 0.952
    49  C   3.892        C   50 1.446    C   48 1.320    H   98 0.956
    50  C   3.910        C   49 1.446    C   51 1.248    S   54 1.073
    51  C   3.927        C   52 1.568    C   50 1.248    H   99 0.964
    52  C   3.939        C   51 1.568    C   53 1.256    H  100 0.962
    53  C   3.919        C   55 1.378    C   52 1.256    S   54 1.097
    54  S   2.463        C   53 1.097    C   50 1.073
    55  C   3.902        C   53 1.378    C   56 1.251    S   59 1.085
    56  C   3.952        C   57 1.582    C   55 1.251    H  101 0.962
    57  C   3.917        C   56 1.582    C   58 1.225    H  102 0.963
    58  C   3.955        C   60 1.477    C   57 1.225    S   59 1.082
    59  S   2.495        C   55 1.085    C   58 1.082
    60  C   3.878        C   58 1.477    C   61 1.264    H  103 0.948
    61  C   3.945        C   65 1.357    C   60 1.264    S   62 1.112
    62  S   2.630        C   63 1.229    C   61 1.112
    63  C   3.837        C   64 1.424    S   62 1.229    H  104 0.963
    64  C   3.980        C   63 1.424    C   71 1.217    C   65 1.187
    65  C   3.861        C   61 1.357    C   64 1.187    O   66 1.081
    66  O   2.399        C   65 1.081    C   67 1.079    C   71 0.103
    67  C   3.899        C   71 1.533    O   66 1.079    N   68 1.013
    68  N   3.909        O   70 1.434    O   69 1.411    C   67 1.013
    69  O   1.889        N   68 1.411    O   70 0.353
    70  O   1.918        N   68 1.434    O   69 0.353
    71  C   3.964        C   67 1.533    C   64 1.217    H  105 0.967    O   66 0.103
    72  H   0.995        C    9 0.962
    73  H   0.995        C   12 0.958
    74  H   0.995        C   15 0.959
    75  H   0.993        C   20 0.933
    76  H   0.995        C   22 0.967
    77  H   0.998        C   27 0.954
    78  H   0.997        C   27 0.962
    79  H   0.998        C   28 0.982
    80  H   0.998        C   28 0.986
    81  H   0.997        C   28 0.982
    82  H   0.997        C   30 0.965
    83  H   0.997        C   30 0.956
    84  H   0.999        C   31 0.986
    85  H   0.998        C   31 0.986
    86  H   0.998        C   31 0.980
    87  H   0.997        C   34 0.967
    88  H   0.997        C   37 0.940
    89  H   0.998        C   38 0.949
    90  H   0.997        C   41 0.969
    91  H   0.998        C   43 0.983
    92  H   0.997        C   43 0.971
    93  H   0.997        C   43 0.966
    94  H   0.998        C   45 0.951
    95  H   0.998        C   46 0.961
    96  H   0.998        C   47 0.966
    97  H   0.998        C   48 0.952
    98  H   0.998        C   49 0.956
    99  H   0.997        C   51 0.964
   100  H   0.998        C   52 0.962
   101  H   0.997        C   56 0.962
   102  H   0.997        C   57 0.963
   103  H   0.995        C   60 0.948
   104  H   0.994        C   63 0.963
   105  H   0.993        C   71 0.967

molecular dipole:
                 x           y           z       tot (Debye)
 q only:       -4.202       2.038       2.390
   full:       -4.612       1.526       2.352      13.719
molecular quadrupole (traceless):
                xx          xy          yy          xz          yz          zz
 q only:      214.376     -63.736     -83.146      -2.841       3.084    -131.230
  q+dip:      237.341     -54.037     -90.862       2.593      21.967    -146.478
   full:      231.342     -55.882     -92.883       3.472      21.681    -138.459

           -------------------------------------------------
          |                Geometry Summary                 |
           -------------------------------------------------

      molecular mass/u    :     1117.2263000
   center of mass at/Å    :       -9.4013715       2.8674810      -4.4373874
  moments of inertia/u·Å² :        0.1836431E+05   0.5489501E+05   0.6875476E+05
rotational constants/cm⁻¹ :        0.9179563E-03   0.3070886E-03   0.2451850E-03

 * 106 selected distances

     #   Z        #   Z                                     value/Å
     1   6 C      2   6 C                                 1.3702009
     3   6 C      4   7 N                                 1.1480126
     5   6 C      6   7 N                                 1.1485764
     7   6 C      8   6 C                                 1.4167513
     8   6 C      9   6 C                                 1.3738787
     9   6 C     10   6 C                                 1.3985341
    10   6 C     11   6 C                                 1.4159674
     7   6 C     12   6 C                                 1.3833871
    11   6 C     12   6 C                                 1.3887023
    11   6 C     13  16 S                                 1.7375605
    13  16 S     14   6 C                                 1.7437614
    10   6 C     15   6 C                                 1.4215543
    14   6 C     15   6 C                                 1.3543693
    14   6 C     16  35 Br                                1.8752533 (max)
    17   6 C     18   8 O                                 1.2110626
    19   6 C     20   6 C                                 1.3583907
    20   6 C     21   6 C                                 1.4378457
    21   6 C     22   6 C                                 1.3686607
    22   6 C     23  16 S                                 1.7065745
    23  16 S     24   6 C                                 1.7409618
    21   6 C     25   6 C                                 1.4466704
    24   6 C     25   6 C                                 1.3999224
    25   6 C     26   6 C                                 1.4144668
    27   6 C     28   6 C                                 1.5307110
    26   6 C     29   6 C                                 1.3918324
    30   6 C     31   6 C                                 1.5306679
    29   6 C     32   6 C                                 1.4188559
    32   6 C     33   6 C                                 1.4502153
    33   6 C     34   6 C                                 1.3655125
    34   6 C     35  16 S                                 1.7135863
    24   6 C     36   6 C                                 1.3837194
    32   6 C     36   6 C                                 1.4060257
    35  16 S     36   6 C                                 1.7347480
    37   6 C     38   6 C                                 1.3473676
    38   6 C     39   6 C                                 1.4243467
    39   6 C     40  16 S                                 1.7381305
    40  16 S     41   6 C                                 1.7167748
    41   6 C     42   6 C                                 1.3563984
    42   6 C     43   6 C                                 1.4933943
    39   6 C     44   6 C                                 1.4001664
    42   6 C     44   6 C                                 1.4369464
    44   6 C     45   6 C                                 1.4279571
    45   6 C     46   6 C                                 1.3595090
    46   6 C     47   6 C                                 1.4178368
    47   6 C     48   6 C                                 1.3676832
    48   6 C     49   6 C                                 1.3997330
    49   6 C     50   6 C                                 1.3746521
    50   6 C     51   6 C                                 1.4140827
    51   6 C     52   6 C                                 1.3622693
    52   6 C     53   6 C                                 1.4128119
    50   6 C     54  16 S                                 1.7595005
    53   6 C     54  16 S                                 1.7489930
    53   6 C     55   6 C                                 1.3813690
    55   6 C     56   6 C                                 1.4130674
    56   6 C     57   6 C                                 1.3599593
    57   6 C     58   6 C                                 1.4190805
    55   6 C     59  16 S                                 1.7549836
    58   6 C     59  16 S                                 1.7546170
    58   6 C     60   6 C                                 1.3688588
    60   6 C     61   6 C                                 1.4055854
    61   6 C     62  16 S                                 1.7567624
    62  16 S     63   6 C                                 1.7174167
    63   6 C     64   6 C                                 1.3749822
    61   6 C     65   6 C                                 1.3850488
    64   6 C     65   6 C                                 1.4277112
    65   6 C     66   8 O                                 1.3499379
    66   8 O     67   6 C                                 1.3614294
    67   6 C     68   7 N                                 1.4129598
    68   7 N     69   8 O                                 1.2180609
    68   7 N     70   8 O                                 1.2128763
    64   6 C     71   6 C                                 1.4213846
    67   6 C     71   6 C                                 1.3699146
     9   6 C     72   1 H                                 1.0787541
    12   6 C     73   1 H                                 1.0771592
    15   6 C     74   1 H                                 1.0746866
    20   6 C     75   1 H                                 1.0808528
    22   6 C     76   1 H                                 1.0720414
    27   6 C     77   1 H                                 1.0924924
    27   6 C     78   1 H                                 1.0915398
    28   6 C     79   1 H                                 1.0877867
    28   6 C     80   1 H                                 1.0880042
    28   6 C     81   1 H                                 1.0861625
    30   6 C     82   1 H                                 1.0863904
    30   6 C     83   1 H                                 1.0891929
    31   6 C     84   1 H                                 1.0878226
    31   6 C     85   1 H                                 1.0875944
    31   6 C     86   1 H                                 1.0863250
    34   6 C     87   1 H                                 1.0722463
    37   6 C     88   1 H                                 1.0789232
    38   6 C     89   1 H                                 1.0805361
    41   6 C     90   1 H                                 1.0726044
    43   6 C     91   1 H                                 1.0879822
    43   6 C     92   1 H                                 1.0884138
    43   6 C     93   1 H                                 1.0896546
    45   6 C     94   1 H                                 1.0801455
    46   6 C     95   1 H                                 1.0774037
    47   6 C     96   1 H                                 1.0833891
    48   6 C     97   1 H                                 1.0816490
    49   6 C     98   1 H                                 1.0826297
    51   6 C     99   1 H                                 1.0759558
    52   6 C    100   1 H                                 1.0750500
    56   6 C    101   1 H                                 1.0750535
    57   6 C    102   1 H                                 1.0754855
    60   6 C    103   1 H                                 1.0822130
    63   6 C    104   1 H                                 1.0691709 (min)
    71   6 C    105   1 H                                 1.0700613

 * 7 distinct bonds (by element types)

   Z      Z             #   av. dist./Å        max./Å        min./Å
   1 H    6 C          34     1.0813345     1.0924924     1.0691709
   6 C    6 C          49     1.4030400     1.5307110     1.3473676
   6 C    7 N           3     1.2365163     1.4129598     1.1480126
   6 C    8 O           3     1.3074766     1.3614294     1.2110626
   7 N    8 O           2     1.2154686     1.2180609     1.2128763
   6 C   16 S          14     1.7374551     1.7595005     1.7065745
   6 C   35 Br          1     1.8752533     1.8752533     1.8752533


optimized geometry written to: xtbopt.xyz


           -------------------------------------------------
          | TOTAL ENERGY             -188.839960956112 Eh   |
          | GRADIENT NORM               0.000799031976 Eh/α |
          | HOMO-LUMO GAP               0.310742060752 eV   |
           -------------------------------------------------

------------------------------------------------------------------------
 * finished run on 2021/06/04 at 23:33:52.044     
------------------------------------------------------------------------
 total:
 * wall-time:     0 d,  0 h,  0 min, 21.169 sec
 *  cpu-time:     0 d,  0 h,  4 min, 13.705 sec
 * ratio c/w:    11.985 speedup
 SCF:
 * wall-time:     0 d,  0 h,  0 min,  0.354 sec
 *  cpu-time:     0 d,  0 h,  0 min,  4.234 sec
 * ratio c/w:    11.971 speedup
 ANC optimizer:
 * wall-time:     0 d,  0 h,  0 min, 20.742 sec
 *  cpu-time:     0 d,  0 h,  4 min,  8.866 sec
 * ratio c/w:    11.998 speedup

