      -----------------------------------------------------------      
     |                   =====================                   |     
     |                           x T B                           |     
     |                   =====================                   |     
     |                         S. Grimme                         |     
     |          Mulliken Center for Theoretical Chemistry        |     
     |                    University of Bonn                     |     
     |                Version 6.2 RC2 (SAW190805)                |     
      -----------------------------------------------------------      

   This program is distributed in the hope that it will be useful,
   but WITHOUT ANY WARRANTY; without even the implied warranty of
   MERCHANTABILITY or FITNESS FOR A PARTICULAR PURPOSE.
   
   FOR NON-COMMERCIAL, ACADEMIA USE ONLY.
   
   Cite this work as:
   * S. Grimme, C. Bannwarth, P. Shushkov, J. Chem. Theory Comput., 2017,
     13, 1989-2009. DOI: 10.1021/acs.jctc.7b00118
   * C. Bannwarth, S. Ehlert and S. Grimme., J. Chem. Theory Comput., 2019,
     15, 1652-1671. DOI: 10.1021/acs.jctc.8b01176
   * P. Pracht, E. Caldeweyher, S. Ehlert, S. Grimme, ChemRxiv, 2019, preprint.
     DOI: 10.26434/chemrxiv.8326202.v1
   
   for DFT-D4:
   * E. Caldeweyher, C. Bannwarth and S. Grimme, J. Chem. Phys., 2017,
     147, 034112. DOI: 10.1063/1.4993215
   * E. Caldeweyher, S. Ehlert, A. Hansen, H. Neugebauer, S. Spicher,
     C. Bannwarth and S. Grimme, J. Chem. Phys., 2019, 150, 154122.
     DOI: 10.1063/1.5090222
   
   for sTDA-xTB:
   * S. Grimme and C. Bannwarth, J. Chem. Phys., 2016, 145, 054103.
     DOI: 10.1063/1.4959605
   
   in the mass-spec context:
   * V. Asgeirsson, C. Bauer and S. Grimme, Chem. Sci., 2017, 8, 4879.
     DOI: 10.1039/c7sc00601b
   
   for metadynamics refer to:
   * S. Grimme, J. Chem. Theory Comput., 2019, 155, 2847-2862
     DOI: 10.1021/acs.jctc.9b00143
   
   with help from (in alphabetical order)
   C. Bannwarth, F. Bohle, G. Brandenburg, E. Caldeweyher, M. Checinski,
   S. Dohm, S. Ehlert, S. Ehrlich, F. März, H. Neugebauer, J. Pisarek,
   P. Pracht, P. Shushkov, and S. Spicher.
   
 * started run on 2021/06/06 at 17:05:32.438     

           -------------------------------------------------
          |                Calculation Setup                |
           -------------------------------------------------

          program call               : /ihome/ghutchison/geoffh/xtb/xtb /ihome/ghutchison/blp62/GA/running_GA/sequence/generations/54/275_117_178_47_269_13507.xyz -opt
          hostname                   : smp-n170
          coordinate file            : /ihome/ghutchison/blp62/GA/running_GA/sequence/generations/54/275_117_178_47_269_13507.xyz
          omp threads                :                    12
          number of atoms            :                   100
          number of electrons        :                   344
          charge                     :                     0
          spin                       :                   0.0
          first test random number   :      0.69623852343311


########################################################################
# WARNING! Please study the warnings concerning your input carefully
#  - XTBPATH is not set, using XTBHOME instead
#  - the use of '-opt' is discouraged, please use '--opt' next time
########################################################################

           ------------------------------------------------- 
          |                 G F N 2 - x T B                 |
          | Geometry, Frequencies, Noncovalent interactions |
          |            JCTC 2019 parametrisation            |
           ------------------------------------------------- 
             KAB for C  - Si     :                1.0500
             KAB for H  - Pd     :                0.9500
             k(s)              :                1.8500
             k(p)              :                2.2300
             k(d)              :                2.2300
             k(f)              :                2.0000
             kEN (H0ij)        :               -2.0000
             D4 a1             :                0.5200
             D4 a2             :                5.0000
             D4 s6             :                1.0000
             D4 s8             :                2.7000
             D4 s9             :                5.0000
             alphaj            :                2.0000

  Z AO/shell   Hii/eV     exponent
  1     Wed Apr 25 08:07:45 CEST 2018   EN: 2.200 GM2: 0.406  GM3: 0.0800  RAES: 1.40
     1s    -10.707211    1.230000
  6     Wed Apr 25 08:07:45 CEST 2018   EN: 2.550 GM2: 0.538  GM3: 0.1500  RAES: 3.00
     2s    -13.970922    2.096432
     2p    -10.063292    1.800000
  7     Wed Apr 25 08:07:45 CEST 2018   EN: 3.040 GM2: 0.461  GM3:-0.0640  RAES: 1.90
     2s    -16.686243    2.339881
     2p    -12.523956    2.014332
  8     Wed Apr 25 08:07:45 CEST 2018   EN: 3.440 GM2: 0.452  GM3:-0.0517  RAES: 1.80
     2s    -20.229985    2.439742
     2p    -15.503117    2.137023
  9     Mon Apr 23 13:58:50 CEST 2018   EN: 3.980 GM2: 0.532  GM3: 0.1426  RAES: 2.40
     2s    -23.458179    2.416361
     2p    -15.746583    2.308399
 16     Tue Apr 24 11:44:34 CEST 2018   EN: 2.580 GM2: 0.340  GM3:-0.0502  RAES: 3.10
     3s    -20.029654    1.981333
     3p    -11.377694    2.025643
     3d     -0.420282    1.702555
 35     Tue Apr 24 12:21:41 CEST 2018   EN: 2.960 GM2: 0.261  GM3: 0.1300  RAES: 4.00
     4s    -23.583718    2.077587
     4p    -12.588824    2.263120
     4d      0.047980    1.845038

           ------------------------------------------------- 
          |        Self-Consistent Charge Iterations        |
           ------------------------------------------------- 

          ...................................................
          :                      SETUP                      :
          :.................................................:
          :  # basis functions                 340          :
          :  # atomic orbitals                 336          :
          :  # shells                          176          :
          :  # electrons                       344          :
          :  max. iterations                   250          :
          :  Hamiltonian                  GFN2-xTB          :
          :  restarted?                      false          :
          :  GBSA solvation                  false          :
          :  PC potential                    false          :
          :  electronic temp.          300.0000000     K    :
          :  accuracy                    1.0000000          :
          :  -> integral cutoff          0.2500000E+02      :
          :  -> integral neglect         0.1000000E-07      :
          :  -> SCF convergence          0.1000000E-05 Eh   :
          :  -> wf. convergence          0.1000000E-03 e    :
          :  Broyden damping             0.4000000          :
          ...................................................

 iter      E             dE          RMSdq      gap      omega  full diag
   1   -192.9112754 -0.192911E+03  0.556E+00    0.95       0.0  T
   2   -193.0386003 -0.127325E+00  0.356E+00    0.55       1.0  T
   3   -192.2715490  0.767051E+00  0.259E+00    0.15       1.0  T
   4   -191.5902277  0.681321E+00  0.244E+00    0.24       1.0  T
   5   -193.2437661 -0.165354E+01  0.734E-01    0.92       1.0  T
   6   -193.2676217 -0.238555E-01  0.363E-01    0.73       1.0  T
   7   -193.2709775 -0.335588E-02  0.275E-01    0.72       1.0  T
   8   -193.2730568 -0.207927E-02  0.170E-01    0.50       1.0  T
   9   -193.2749944 -0.193757E-02  0.842E-02    0.20       1.0  T
  10   -193.2717872  0.320714E-02  0.141E-01    0.10       1.0  T
  11   -193.2756630 -0.387577E-02  0.529E-02    0.19       1.0  T
  12   -193.2757178 -0.547799E-04  0.455E-02    0.13       1.0  T
  13   -193.2760257 -0.307976E-03  0.177E-02    0.15       1.0  T
  14   -193.2760251  0.625385E-06  0.138E-02    0.15       1.0  T
  15   -193.2759879  0.371716E-04  0.159E-02    0.15       1.0  T
  16   -193.2760275 -0.395317E-04  0.709E-03    0.15       1.4  T
  17   -193.2760341 -0.662521E-05  0.275E-03    0.15       3.6  T
  18   -193.2760352 -0.107229E-05  0.128E-03    0.15       7.8  T
  19   -193.2760352  0.187885E-07  0.103E-03    0.15       9.7  T
  20   -193.2760352 -0.831860E-07  0.582E-04    0.15      17.2  T
  21   -193.2760353 -0.169860E-07  0.363E-04    0.15      27.5  T

   *** convergence criteria satisfied after 21 iterations ***

         #    Occupation            Energy/Eh            Energy/eV
      -------------------------------------------------------------
         1        2.0000           -0.8647850             -23.5320
       ...           ...                  ...                  ...
       166        2.0000           -0.4122342             -11.2175
       167        2.0000           -0.4052293             -11.0269
       168        2.0000           -0.4006087             -10.9011
       169        2.0000           -0.3988668             -10.8537
       170        2.0000           -0.3960470             -10.7770
       171        2.0000           -0.3781311             -10.2895
       172        1.9028           -0.3475790              -9.4581 (HOMO)
       173        0.0972           -0.3419271              -9.3043 (LUMO)
       174                         -0.3274252              -8.9097
       175                         -0.3245129              -8.8304
       176                         -0.3130045              -8.5173
       177                         -0.3101108              -8.4385
       ...                                ...                  ...
       336                          1.1026420              30.0044
      -------------------------------------------------------------
                  HL-Gap            0.0056518 Eh            0.1538 eV
             Fermi-level           -0.3447530 Eh           -9.3812 eV

 SCC (total)                   0 d,  0 h,  0 min,  0.796 sec
 SCC setup                      ...        0 min,  0.002 sec (  0.257%)
 Dispersion                     ...        0 min,  0.004 sec (  0.510%)
 integral evaluation            ...        0 min,  0.028 sec (  3.506%)
 zeroth order Hamiltonian       ...        0 min,  0.001 sec (  0.124%)
 iterations                     ...        0 min,  0.739 sec ( 92.850%)
 molecular gradient             ...        0 min,  0.019 sec (  2.447%)
 printout                       ...        0 min,  0.002 sec (  0.294%)

         :::::::::::::::::::::::::::::::::::::::::::::::::::::
         ::                     SUMMARY                     ::
         :::::::::::::::::::::::::::::::::::::::::::::::::::::
         :: total energy            -190.296349658693 Eh    ::
         :: gradient norm              0.185829325165 Eh/a0 ::
         :: HOMO-LUMO gap              0.153794306648 eV    ::
         ::.................................................::
         :: SCC energy              -193.276035259499 Eh    ::
         :: -> isotropic ES            0.179373125975 Eh    ::
         :: -> anisotropic ES          0.008856871066 Eh    ::
         :: -> anisotropic XC          0.121754965300 Eh    ::
         :: -> dispersion             -0.139516719878 Eh    ::
         :: repulsion energy           2.980175921346 Eh    ::
         :: add. restraining           0.000000000000 Eh    ::
         :::::::::::::::::::::::::::::::::::::::::::::::::::::

      ----------------------------------------------------------- 
     |                   =====================                   |
     |                        A N C O P T                        |
     |                   =====================                   |
     |               Approximate Normal Coordinate               |
     |                Rational Function Optimizer                |
      ----------------------------------------------------------- 

          ...................................................
          :                      SETUP                      :
          :.................................................:
          :   optimization level            normal          :
          :   max. optcycles                   300          :
          :   ANC micro-cycles                  20          :
          :   degrees of freedom               294          :
          :.................................................:
          :   RF solver                   davidson          :
          :   input Hessian                  false          :
          :   write xtbopt.log                true          :
          :   linear?                        false          :
          :   energy convergence         0.5000000E-05 Eh   :
          :   grad. convergence          0.1000000E-02 Eh/α :
          :   maximium RF displ.         2.0000000          :
          :   Hlow (freq-cutoff)         0.5000000E-02      :
          :   Hmax (freq-cutoff)         5.0000000          :
          :   S6 in model hess.         20.0000000          :
          ...................................................

generating ANC from model Hessian ...
Using Lindh-Hessian (1995)
 Shifting diagonal of input Hessian by   4.995114748029229E-003
 Lowest  eigenvalues of input Hessian
   -0.000000   -0.000000   -0.000000   -0.000000    0.000000    0.000000
    0.005000    0.005008    0.005021    0.005044    0.005051    0.005084
    0.005169    0.005241    0.005252    0.005447    0.005594    0.005776
 Highest eigenvalues
    2.423552    2.513372    2.519001    2.529997    2.569929    2.571734
 

........................................................................
.............................. CYCLE    1 ..............................
........................................................................
   1   -193.2760353 -0.193276E+03  0.134E-04    0.15       0.0  T
   2   -193.2760353  0.169798E-07  0.275E-04    0.15      36.4  T
   3   -193.2760353 -0.112536E-07  0.179E-04    0.15      56.0  T
     SCC iter.                  ...        0 min,  0.079 sec
     gradient                   ...        0 min,  0.025 sec
 * total energy  :  -190.2963495 Eh     change        0.1584287E-06 Eh
   gradient norm :     0.1858372 Eh/α   predicted     0.0000000E+00 (-100.00%)
   displ. norm   :     0.4345761 α      lambda       -0.3784774E-01
   maximum displ.:     0.0843870 α      in ANC's #114, #55, #70, ...

........................................................................
.............................. CYCLE    2 ..............................
........................................................................
   1   -193.3555387 -0.193356E+03  0.337E-01    0.11       0.0  T
   2   -193.3527611  0.277767E-02  0.261E-01    0.52       1.0  T
   3   -193.3544868 -0.172574E-02  0.188E-01    0.11       1.0  T
   4   -193.3573285 -0.284166E-02  0.108E-01    0.29       1.0  T
   5   -193.3590483 -0.171985E-02  0.612E-02    0.13       1.0  T
   6   -193.3593467 -0.298428E-03  0.453E-02    0.18       1.0  T
   7   -193.3593418  0.489728E-05  0.410E-02    0.13       1.0  T
   8   -193.3597424 -0.400547E-03  0.669E-03    0.15       1.5  T
   9   -193.3597436 -0.115957E-05  0.432E-03    0.15       2.3  T
  10   -193.3597467 -0.313952E-05  0.154E-03    0.15       6.5  T
     SCC iter.                  ...        0 min,  0.228 sec
     gradient                   ...        0 min,  0.018 sec
 * total energy  :  -190.3233513 Eh     change       -0.2700177E-01 Eh
   gradient norm :     0.0864786 Eh/α   predicted    -0.2249799E-01 ( -16.68%)
   displ. norm   :     0.5417384 α      lambda       -0.1984609E-01
   maximum displ.:     0.2131133 α      in ANC's #55, #50, #52, ...

........................................................................
.............................. CYCLE    3 ..............................
........................................................................
   1   -193.3780857 -0.193378E+03  0.407E-01    0.09       0.0  T
   2   -193.3738602  0.422555E-02  0.346E-01    0.77       1.0  T
   3   -193.3831383 -0.927808E-02  0.226E-01    0.29       1.0  T
   4   -193.2646570  0.118481E+00  0.681E-01    0.00       1.0  T
   5   -193.3841222 -0.119465E+00  0.147E-01    0.50       1.0  T
   6   -193.3857568 -0.163457E-02  0.123E-01    0.43       1.0  T
   7   -193.3859225 -0.165709E-03  0.110E-01    0.37       1.0  T
   8   -193.3864106 -0.488121E-03  0.952E-02    0.29       1.0  T
   9   -193.3870450 -0.634455E-03  0.742E-02    0.23       1.0  T
  10   -193.3880299 -0.984899E-03  0.325E-02    0.13       1.0  T
  11   -193.3882627 -0.232768E-03  0.163E-02    0.16       1.0  T
  12   -193.3883251 -0.624106E-04  0.253E-03    0.15       4.0  T
  13   -193.3883250  0.152233E-06  0.218E-03    0.15       4.6  T
  14   -193.3883218  0.313261E-05  0.395E-03    0.15       2.5  T
     SCC iter.                  ...        0 min,  0.320 sec
     gradient                   ...        0 min,  0.023 sec
 * total energy  :  -190.3351693 Eh     change       -0.1181800E-01 Eh
   gradient norm :     0.0352385 Eh/α   predicted    -0.1283527E-01 (   8.61%)
   displ. norm   :     0.6899184 α      lambda       -0.1272973E-01
   maximum displ.:     0.2200016 α      in ANC's #36, #32, #31, ...

........................................................................
.............................. CYCLE    4 ..............................
........................................................................
   1   -193.3670765 -0.193367E+03  0.472E-01    0.11       0.0  T
   2   -193.3576266  0.944992E-02  0.369E-01    0.42       1.0  T
   3   -193.3337531  0.238735E-01  0.427E-01    0.06       1.0  T
   4   -193.3599586 -0.262055E-01  0.260E-01    0.69       1.0  T
   5   -193.3689988 -0.904011E-02  0.125E-01    0.43       1.0  T
   6   -193.3692933 -0.294543E-03  0.104E-01    0.33       1.0  T
   7   -193.3711018 -0.180848E-02  0.517E-02    0.19       1.0  T
   8   -193.3687956  0.230613E-02  0.105E-01    0.10       1.0  T
   9   -193.3712425 -0.244687E-02  0.432E-02    0.18       1.0  T
  10   -193.3716828 -0.440292E-03  0.533E-03    0.14       1.9  T
  11   -193.3716850 -0.221220E-05  0.212E-03    0.15       4.7  T
  12   -193.3716853 -0.242242E-06  0.124E-03    0.15       8.1  T
     SCC iter.                  ...        0 min,  0.259 sec
     gradient                   ...        0 min,  0.018 sec
 * total energy  :  -190.3379001 Eh     change       -0.2730800E-02 Eh
   gradient norm :     0.0701685 Eh/α   predicted    -0.9394567E-02 ( 244.02%)
   displ. norm   :     0.4338069 α      lambda       -0.1137455E-01
   maximum displ.:     0.1584722 α      in ANC's #11, #55, #14, ...

........................................................................
.............................. CYCLE    5 ..............................
........................................................................
   1   -193.3932269 -0.193393E+03  0.277E-01    0.17       0.0  T
   2   -193.3780672  0.151596E-01  0.279E-01    0.07       1.0  T
   3   -193.3882155 -0.101482E-01  0.205E-01    0.56       1.0  T
   4   -193.3909712 -0.275572E-02  0.141E-01    0.52       1.0  T
   5   -193.3907826  0.188587E-03  0.121E-01    0.46       1.0  T
   6   -193.3915129 -0.730351E-03  0.106E-01    0.38       1.0  T
   7   -193.3917667 -0.253722E-03  0.970E-02    0.33       1.0  T
   8   -193.3922119 -0.445270E-03  0.810E-02    0.27       1.0  T
   9   -193.3937175 -0.150561E-02  0.109E-02    0.15       1.0  T
  10   -193.3936320  0.855307E-04  0.205E-02    0.17       1.0  T
  11   -193.3936513 -0.192411E-04  0.180E-02    0.14       1.0  T
  12   -193.3937161 -0.648837E-04  0.887E-03    0.16       1.1  T
  13   -193.3937353 -0.191605E-04  0.215E-03    0.15       4.6  T
  14   -193.3937352  0.922658E-07  0.216E-03    0.15       4.6  T
  15   -193.3937362 -0.104555E-05  0.803E-04    0.15      12.4  T
     SCC iter.                  ...        0 min,  0.323 sec
     gradient                   ...        0 min,  0.018 sec
 * total energy  :  -190.3445253 Eh     change       -0.6625235E-02 Eh
   gradient norm :     0.0413576 Eh/α   predicted    -0.6757570E-02 (   2.00%)
   displ. norm   :     0.5442408 α      lambda       -0.6338794E-02
   maximum displ.:     0.1800288 α      in ANC's #29, #32, #30, ...

........................................................................
.............................. CYCLE    6 ..............................
........................................................................
   1   -193.3830307 -0.193383E+03  0.276E-01    0.17       0.0  T
   2   -193.3787018  0.432894E-02  0.203E-01    0.10       1.0  T
   3   -193.3735460  0.515580E-02  0.243E-01    0.53       1.0  T
   4   -193.3812066 -0.766058E-02  0.124E-01    0.43       1.0  T
   5   -193.3816852 -0.478673E-03  0.977E-02    0.31       1.0  T
   6   -193.3825695 -0.884217E-03  0.699E-02    0.24       1.0  T
   7   -193.3836049 -0.103540E-02  0.164E-02    0.15       1.0  T
   8   -193.3834112  0.193674E-03  0.312E-02    0.18       1.0  T
   9   -193.3835851 -0.173870E-03  0.173E-02    0.14       1.0  T
  10   -193.3836625 -0.774320E-04  0.290E-03    0.15       3.4  T
  11   -193.3836617  0.807530E-06  0.268E-03    0.16       3.7  T
  12   -193.3836634 -0.175204E-05  0.669E-04    0.15      15.0  T
     SCC iter.                  ...        0 min,  0.460 sec
     gradient                   ...        0 min,  0.018 sec
 * total energy  :  -190.3475005 Eh     change       -0.2975181E-02 Eh
   gradient norm :     0.0254105 Eh/α   predicted    -0.4108167E-02 (  38.08%)
   displ. norm   :     0.6030585 α      lambda       -0.6570437E-02
   maximum displ.:     0.1969534 α      in ANC's #31, #24, #55, ...

........................................................................
.............................. CYCLE    7 ..............................
........................................................................
   1   -193.3791424 -0.193379E+03  0.303E-01    0.19       0.0  T
   2   -193.3637910  0.153514E-01  0.295E-01    0.08       1.0  T
   3   -193.3731169 -0.932586E-02  0.224E-01    0.56       1.0  T
   4   -193.3780169 -0.490004E-02  0.136E-01    0.52       1.0  T
   5   -193.3775481  0.468814E-03  0.116E-01    0.42       1.0  T
   6   -193.3786880 -0.113988E-02  0.897E-02    0.35       1.0  T
   7   -193.3789945 -0.306513E-03  0.785E-02    0.30       1.0  T
   8   -193.3800072 -0.101269E-02  0.322E-02    0.19       1.0  T
   9   -193.3801027 -0.955001E-04  0.232E-02    0.14       1.0  T
  10   -193.3800149  0.878266E-04  0.305E-02    0.19       1.0  T
  11   -193.3802490 -0.234160E-03  0.511E-03    0.16       2.0  T
  12   -193.3802543 -0.528300E-05  0.174E-03    0.16       5.8  T
  13   -193.3802548 -0.435650E-06  0.582E-04    0.16      17.2  T
     SCC iter.                  ...        0 min,  0.289 sec
     gradient                   ...        0 min,  0.021 sec
 * total energy  :  -190.3503092 Eh     change       -0.2808763E-02 Eh
   gradient norm :     0.0525410 Eh/α   predicted    -0.4479986E-02 (  59.50%)
   displ. norm   :     0.4139233 α      lambda       -0.4653826E-02
   maximum displ.:     0.1129735 α      in ANC's #24, #9, #15, ...

........................................................................
.............................. CYCLE    8 ..............................
........................................................................
   1   -193.3971361 -0.193397E+03  0.205E-01    0.17       0.0  T
   2   -193.3956624  0.147369E-02  0.143E-01    0.14       1.0  T
   3   -193.3883187  0.734373E-02  0.216E-01    0.28       1.0  T
   4   -193.3974276 -0.910895E-02  0.303E-02    0.16       1.0  T
   5   -193.3974763 -0.486294E-04  0.148E-02    0.17       1.0  T
   6   -193.3972376  0.238664E-03  0.315E-02    0.14       1.0  T
   7   -193.3975082 -0.270609E-03  0.681E-03    0.16       1.5  T
   8   -193.3975130 -0.479096E-05  0.321E-03    0.16       3.1  T
   9   -193.3975148 -0.177402E-05  0.131E-03    0.16       7.6  T
     SCC iter.                  ...        0 min,  0.195 sec
     gradient                   ...        0 min,  0.018 sec
 * total energy  :  -190.3528123 Eh     change       -0.2503091E-02 Eh
   gradient norm :     0.0300162 Eh/α   predicted    -0.2725588E-02 (   8.89%)
   displ. norm   :     0.4491687 α      lambda       -0.2432718E-02
   maximum displ.:     0.1625526 α      in ANC's #9, #14, #15, ...

........................................................................
.............................. CYCLE    9 ..............................
........................................................................
   1   -193.3989654 -0.193399E+03  0.185E-01    0.17       0.0  T
   2   -193.3984822  0.483203E-03  0.107E-01    0.14       1.0  T
   3   -193.3918788  0.660345E-02  0.184E-01    0.36       1.0  T
   4   -193.3982294 -0.635061E-02  0.632E-02    0.24       1.0  T
   5   -193.3989118 -0.682455E-03  0.292E-02    0.18       1.0  T
   6   -193.3990558 -0.143971E-03  0.110E-02    0.17       1.0  T
   7   -193.3989115  0.144276E-03  0.236E-02    0.14       1.0  T
   8   -193.3990609 -0.149381E-03  0.571E-03    0.17       1.8  T
   9   -193.3990683 -0.742728E-05  0.171E-03    0.16       5.9  T
  10   -193.3990687 -0.397290E-06  0.961E-04    0.16      10.4  T
  11   -193.3990685  0.191042E-06  0.113E-03    0.16       8.9  T
     SCC iter.                  ...        0 min,  0.321 sec
     gradient                   ...        0 min,  0.027 sec
 * total energy  :  -190.3546041 Eh     change       -0.1791771E-02 Eh
   gradient norm :     0.0262156 Eh/α   predicted    -0.1461763E-02 ( -18.42%)
   displ. norm   :     0.6685430 α      lambda       -0.3041369E-02
   maximum displ.:     0.2417460 α      in ANC's #9, #14, #8, ...

........................................................................
.............................. CYCLE   10 ..............................
........................................................................
   1   -193.4009302 -0.193401E+03  0.273E-01    0.18       0.0  T
   2   -193.3983523  0.257791E-02  0.171E-01    0.11       1.0  T
   3   -193.3914183  0.693403E-02  0.228E-01    0.60       1.0  T
   4   -193.3985178 -0.709957E-02  0.128E-01    0.46       1.0  T
   5   -193.3995274 -0.100960E-02  0.899E-02    0.35       1.0  T
   6   -193.4001029 -0.575408E-03  0.684E-02    0.29       1.0  T
   7   -193.4009647 -0.861805E-03  0.308E-02    0.19       1.0  T
   8   -193.3997125  0.125214E-02  0.739E-02    0.12       1.0  T
   9   -193.4011034 -0.139087E-02  0.154E-02    0.18       1.0  T
  10   -193.4011297 -0.263545E-04  0.110E-02    0.17       1.0  T
  11   -193.4011476 -0.178246E-04  0.687E-03    0.17       1.5  T
  12   -193.4011578 -0.102287E-04  0.246E-03    0.17       4.1  T
  13   -193.4011591 -0.127171E-05  0.941E-04    0.16      10.6  T
  14   -193.4011590  0.408693E-07  0.992E-04    0.16      10.1  T
     SCC iter.                  ...        0 min,  0.481 sec
     gradient                   ...        0 min,  0.019 sec
 * total energy  :  -190.3560660 Eh     change       -0.1461854E-02 Eh
   gradient norm :     0.0286387 Eh/α   predicted    -0.2200354E-02 (  50.52%)
   displ. norm   :     0.5382287 α      lambda       -0.2550620E-02
   maximum displ.:     0.2054557 α      in ANC's #9, #15, #13, ...

........................................................................
.............................. CYCLE   11 ..............................
........................................................................
   1   -193.3941180 -0.193394E+03  0.216E-01    0.17       0.0  T
   2   -193.3936104  0.507596E-03  0.125E-01    0.14       1.0  T
   3   -193.3876145  0.599595E-02  0.179E-01    0.41       1.0  T
   4   -193.3930333 -0.541885E-02  0.820E-02    0.28       1.0  T
   5   -193.3938895 -0.856105E-03  0.422E-02    0.21       1.0  T
   6   -193.3942007 -0.311296E-03  0.154E-02    0.18       1.0  T
   7   -193.3940271  0.173632E-03  0.279E-02    0.14       1.0  T
   8   -193.3942203 -0.193147E-03  0.855E-03    0.17       1.2  T
   9   -193.3942364 -0.161192E-04  0.300E-03    0.16       3.3  T
  10   -193.3942383 -0.190903E-05  0.111E-03    0.17       9.0  T
  11   -193.3942379  0.404751E-06  0.152E-03    0.17       6.6  T
     SCC iter.                  ...        0 min,  0.445 sec
     gradient                   ...        0 min,  0.018 sec
 * total energy  :  -190.3576361 Eh     change       -0.1570120E-02 Eh
   gradient norm :     0.0252769 Eh/α   predicted    -0.1644757E-02 (   4.75%)
   displ. norm   :     0.5132635 α      lambda       -0.2191651E-02
   maximum displ.:     0.2185082 α      in ANC's #9, #13, #8, ...

........................................................................
.............................. CYCLE   12 ..............................
........................................................................
   1   -193.3983068 -0.193398E+03  0.172E-01    0.18       0.0  T
   2   -193.3970512  0.125556E-02  0.111E-01    0.12       1.0  T
   3   -193.3943538  0.269746E-02  0.143E-01    0.45       1.0  T
   4   -193.3967711 -0.241734E-02  0.975E-02    0.33       1.0  T
   5   -193.3973495 -0.578410E-03  0.677E-02    0.27       1.0  T
   6   -193.3978739 -0.524370E-03  0.466E-02    0.23       1.0  T
   7   -193.3983941 -0.520256E-03  0.106E-02    0.17       1.0  T
   8   -193.3983622  0.319794E-04  0.132E-02    0.16       1.0  T
   9   -193.3984028 -0.406586E-04  0.369E-03    0.16       2.7  T
  10   -193.3984052 -0.237519E-05  0.223E-03    0.17       4.5  T
  11   -193.3984061 -0.874892E-06  0.117E-03    0.17       8.6  T
     SCC iter.                  ...        0 min,  0.242 sec
     gradient                   ...        0 min,  0.021 sec
 * total energy  :  -190.3587884 Eh     change       -0.1152269E-02 Eh
   gradient norm :     0.0268823 Eh/α   predicted    -0.1384512E-02 (  20.16%)
   displ. norm   :     0.5300378 α      lambda       -0.1704281E-02
   maximum displ.:     0.2368917 α      in ANC's #9, #14, #8, ...

........................................................................
.............................. CYCLE   13 ..............................
........................................................................
   1   -193.3966435 -0.193397E+03  0.171E-01    0.17       0.0  T
   2   -193.3966719 -0.284741E-04  0.894E-02    0.17       1.0  T
   3   -193.3964693  0.202673E-03  0.402E-02    0.16       1.0  T
   4   -193.3966191 -0.149809E-03  0.225E-02    0.17       1.0  T
   5   -193.3966574 -0.383062E-04  0.146E-02    0.16       1.0  T
   6   -193.3966721 -0.146855E-04  0.853E-03    0.17       1.2  T
   7   -193.3966817 -0.966684E-05  0.582E-03    0.16       1.7  T
   8   -193.3966904 -0.867468E-05  0.121E-03    0.17       8.3  T
   9   -193.3966906 -0.207803E-06  0.592E-04    0.17      16.9  T
  10   -193.3966906 -0.296174E-08  0.412E-04    0.17      24.3  T
     SCC iter.                  ...        0 min,  0.244 sec
     gradient                   ...        0 min,  0.016 sec
 * total energy  :  -190.3601562 Eh     change       -0.1367837E-02 Eh
   gradient norm :     0.0178845 Eh/α   predicted    -0.1091546E-02 ( -20.20%)
   displ. norm   :     0.6520026 α      lambda       -0.2114477E-02
   maximum displ.:     0.3147781 α      in ANC's #9, #8, #14, ...

........................................................................
.............................. CYCLE   14 ..............................
........................................................................
   1   -193.4061465 -0.193406E+03  0.191E-01    0.16       0.0  T
   2   -193.4055089  0.637599E-03  0.117E-01    0.19       1.0  T
   3   -193.3439516  0.615572E-01  0.474E-01    0.03       1.0  T
   4   -193.4011509 -0.571992E-01  0.170E-01    0.31       1.0  T
   5   -193.4057530 -0.460214E-02  0.499E-02    0.23       1.0  T
   6   -193.4059125 -0.159511E-03  0.400E-02    0.21       1.0  T
   7   -193.4061852 -0.272726E-03  0.218E-02    0.19       1.0  T
   8   -193.4062802 -0.949314E-04  0.832E-03    0.17       1.2  T
   9   -193.4062929 -0.127796E-04  0.277E-03    0.17       3.6  T
  10   -193.4062938 -0.885820E-06  0.114E-03    0.16       8.8  T
  11   -193.4062940 -0.156581E-06  0.606E-04    0.16      16.5  T
     SCC iter.                  ...        0 min,  0.167 sec
     gradient                   ...        0 min,  0.016 sec
 * total energy  :  -190.3614077 Eh     change       -0.1251533E-02 Eh
   gradient norm :     0.0179601 Eh/α   predicted    -0.1506679E-02 (  20.39%)
   displ. norm   :     0.6633689 α      lambda       -0.1631762E-02
   maximum displ.:     0.3115675 α      in ANC's #9, #8, #14, ...

........................................................................
.............................. CYCLE   15 ..............................
........................................................................
   1   -193.4003160 -0.193400E+03  0.200E-01    0.17       0.0  T
   2   -193.4000886  0.227416E-03  0.110E-01    0.16       1.0  T
   3   -193.3925990  0.748956E-02  0.205E-01    0.21       1.0  T
   4   -193.4002859 -0.768691E-02  0.315E-02    0.18       1.0  T
   5   -193.4000381  0.247826E-03  0.384E-02    0.14       1.0  T
   6   -193.4003149 -0.276841E-03  0.222E-02    0.18       1.0  T
   7   -193.4004135 -0.985452E-04  0.814E-03    0.17       1.2  T
   8   -193.4004264 -0.129233E-04  0.329E-03    0.17       3.0  T
   9   -193.4004286 -0.220432E-05  0.709E-04    0.17      14.1  T
  10   -193.4004286 -0.262553E-07  0.456E-04    0.17      21.9  T
     SCC iter.                  ...        0 min,  0.151 sec
     gradient                   ...        0 min,  0.016 sec
 * total energy  :  -190.3624967 Eh     change       -0.1088959E-02 Eh
   gradient norm :     0.0147353 Eh/α   predicted    -0.1174919E-02 (   7.89%)
   displ. norm   :     0.6300983 α      lambda       -0.1272757E-02
   maximum displ.:     0.3249755 α      in ANC's #9, #8, #14, ...

........................................................................
.............................. CYCLE   16 ..............................
........................................................................
   1   -193.3972900 -0.193397E+03  0.193E-01    0.18       0.0  T
   2   -193.3967058  0.584166E-03  0.109E-01    0.13       1.0  T
   3   -193.3945085  0.219728E-02  0.130E-01    0.41       1.0  T
   4   -193.3964384 -0.192983E-02  0.683E-02    0.28       1.0  T
   5   -193.3969324 -0.494083E-03  0.500E-02    0.22       1.0  T
   6   -193.3971911 -0.258675E-03  0.290E-02    0.20       1.0  T
   7   -193.3971425  0.486695E-04  0.301E-02    0.15       1.0  T
   8   -193.3973862 -0.243716E-03  0.428E-03    0.17       2.3  T
   9   -193.3973853  0.867637E-06  0.356E-03    0.16       2.8  T
  10   -193.3973885 -0.314712E-05  0.111E-03    0.17       9.0  T
  11   -193.3973883  0.193625E-06  0.134E-03    0.17       7.5  T
  12   -193.3973886 -0.338973E-06  0.570E-04    0.17      17.5  T
     SCC iter.                  ...        0 min,  0.185 sec
     gradient                   ...        0 min,  0.020 sec
 * total energy  :  -190.3633156 Eh     change       -0.8188729E-03 Eh
   gradient norm :     0.0137955 Eh/α   predicted    -0.8890437E-03 (   8.57%)
   displ. norm   :     0.5783212 α      lambda       -0.1178982E-02
   maximum displ.:     0.3107934 α      in ANC's #9, #8, #14, ...

........................................................................
.............................. CYCLE   17 ..............................
........................................................................
   1   -193.3969723 -0.193397E+03  0.138E-01    0.17       0.0  T
   2   -193.3966777  0.294592E-03  0.860E-02    0.16       1.0  T
   3   -193.3912498  0.542786E-02  0.170E-01    0.21       1.0  T
   4   -193.3967512 -0.550134E-02  0.342E-02    0.14       1.0  T
   5   -193.3968741 -0.122960E-03  0.272E-02    0.19       1.0  T
   6   -193.3970350 -0.160829E-03  0.794E-03    0.17       1.3  T
   7   -193.3970415 -0.654856E-05  0.331E-03    0.17       3.0  T
   8   -193.3970429 -0.139621E-05  0.103E-03    0.17       9.8  T
   9   -193.3970430 -0.746477E-07  0.648E-04    0.17      15.4  T
     SCC iter.                  ...        0 min,  0.136 sec
     gradient                   ...        0 min,  0.016 sec
 * total energy  :  -190.3640597 Eh     change       -0.7441286E-03 Eh
   gradient norm :     0.0144865 Eh/α   predicted    -0.7866531E-03 (   5.71%)
   displ. norm   :     0.5554500 α      lambda       -0.1101908E-02
   maximum displ.:     0.3149871 α      in ANC's #9, #8, #14, ...

........................................................................
.............................. CYCLE   18 ..............................
........................................................................
   1   -193.4121043 -0.193412E+03  0.131E-01    0.17       0.0  T
   2   -193.4117772  0.327145E-03  0.844E-02    0.16       1.0  T
   3   -193.4075848  0.419245E-02  0.162E-01    0.19       1.0  T
   4   -193.4121083 -0.452354E-02  0.267E-02    0.18       1.0  T
   5   -193.4120230  0.852733E-04  0.261E-02    0.15       1.0  T
   6   -193.4121491 -0.126122E-03  0.157E-02    0.18       1.0  T
   7   -193.4122024 -0.532596E-04  0.476E-03    0.17       2.1  T
   8   -193.4122059 -0.352585E-05  0.175E-03    0.17       5.7  T
   9   -193.4122064 -0.488661E-06  0.636E-04    0.17      15.7  T
  10   -193.4122064 -0.235441E-07  0.393E-04    0.17      25.4  T
     SCC iter.                  ...        0 min,  0.150 sec
     gradient                   ...        0 min,  0.016 sec
 * total energy  :  -190.3646678 Eh     change       -0.6080879E-03 Eh
   gradient norm :     0.0145729 Eh/α   predicted    -0.7209401E-03 (  18.56%)
   displ. norm   :     0.6093122 α      lambda       -0.1173481E-02
   maximum displ.:     0.3322799 α      in ANC's #9, #8, #19, ...

........................................................................
.............................. CYCLE   19 ..............................
........................................................................
   1   -193.4007276 -0.193401E+03  0.189E-01    0.18       0.0  T
   2   -193.4004483  0.279243E-03  0.104E-01    0.15       1.0  T
   3   -193.3963395  0.410877E-02  0.159E-01    0.32       1.0  T
   4   -193.4000293 -0.368979E-02  0.592E-02    0.24       1.0  T
   5   -193.4007889 -0.759527E-03  0.190E-02    0.18       1.0  T
   6   -193.4008170 -0.280975E-04  0.101E-02    0.17       1.0  T
   7   -193.4007734  0.435677E-04  0.135E-02    0.16       1.0  T
   8   -193.4008212 -0.478289E-04  0.323E-03    0.17       3.1  T
   9   -193.4008232 -0.198397E-05  0.852E-04    0.17      11.7  T
  10   -193.4008232 -0.167177E-07  0.611E-04    0.17      16.4  T
     SCC iter.                  ...        0 min,  0.150 sec
     gradient                   ...        0 min,  0.016 sec
 * total energy  :  -190.3651669 Eh     change       -0.4991340E-03 Eh
   gradient norm :     0.0183098 Eh/α   predicted    -0.8045798E-03 (  61.20%)
   displ. norm   :     0.4058162 α      lambda       -0.9109634E-03
   maximum displ.:     0.2374368 α      in ANC's #9, #8, #7, ...

........................................................................
.............................. CYCLE   20 ..............................
........................................................................
   1   -193.4062345 -0.193406E+03  0.963E-02    0.17       0.0  T
   2   -193.4061356  0.988538E-04  0.571E-02    0.16       1.0  T
   3   -193.4043561  0.177951E-02  0.103E-01    0.22       1.0  T
   4   -193.4062098 -0.185372E-02  0.184E-02    0.18       1.0  T
   5   -193.4061701  0.397715E-04  0.198E-02    0.16       1.0  T
   6   -193.4062557 -0.856449E-04  0.850E-03    0.18       1.2  T
   7   -193.4062697 -0.139605E-04  0.200E-03    0.17       5.0  T
   8   -193.4062700 -0.290932E-06  0.101E-03    0.17       9.9  T
   9   -193.4062701 -0.111266E-06  0.487E-04    0.17      20.5  T
     SCC iter.                  ...        0 min,  0.135 sec
     gradient                   ...        0 min,  0.016 sec
 * total energy  :  -190.3657187 Eh     change       -0.5518225E-03 Eh
   gradient norm :     0.0141562 Eh/α   predicted    -0.5304970E-03 (  -3.86%)
   displ. norm   :     0.5019072 α      lambda       -0.8700117E-03
   maximum displ.:     0.3056103 α      in ANC's #9, #8, #7, ...
 * RMSD in coord.:     0.8563271 α      energy gain  -0.6936907E-01 Eh

generating ANC from model Hessian ...
Using Lindh-Hessian (1995)
 Shifting diagonal of input Hessian by   5.037633503236568E-003
 Lowest  eigenvalues of input Hessian
    0.005000   -0.000000   -0.000000   -0.000000   -0.000000    0.000000
    0.000000    0.005044    0.005055    0.005069    0.005094    0.005098
    0.005168    0.005271    0.005349    0.005493    0.005530    0.005770
 Highest eigenvalues
    2.406320    2.497194    2.599067    2.604105    2.646354    2.646509
 

........................................................................
.............................. CYCLE   21 ..............................
........................................................................
   1   -193.4082910 -0.193408E+03  0.118E-01    0.17       0.0  T
   2   -193.4079485  0.342511E-03  0.766E-02    0.17       1.0  T
   3   -193.4050657  0.288278E-02  0.134E-01    0.17       1.0  T
   4   -193.4079906 -0.292488E-02  0.387E-02    0.14       1.0  T
   5   -193.4082054 -0.214820E-03  0.279E-02    0.20       1.0  T
   6   -193.4083665 -0.161150E-03  0.936E-03    0.17       1.1  T
   7   -193.4083753 -0.878425E-05  0.447E-03    0.17       2.2  T
   8   -193.4083783 -0.295980E-05  0.135E-03    0.17       7.4  T
   9   -193.4083785 -0.184970E-06  0.654E-04    0.17      15.3  T
  10   -193.4083785 -0.269917E-07  0.366E-04    0.17      27.3  T
     SCC iter.                  ...        0 min,  0.150 sec
     gradient                   ...        0 min,  0.017 sec
 * total energy  :  -190.3662120 Eh     change       -0.4933228E-03 Eh
   gradient norm :     0.0140031 Eh/α   predicted     0.0000000E+00 (-100.00%)
   displ. norm   :     0.2118480 α      lambda       -0.5984838E-03
   maximum displ.:     0.1118899 α      in ANC's #8, #9, #25, ...

........................................................................
.............................. CYCLE   22 ..............................
........................................................................
   1   -193.4073226 -0.193407E+03  0.804E-02    0.17       0.0  T
   2   -193.4072770  0.455789E-04  0.447E-02    0.16       1.0  T
   3   -193.4062568  0.102020E-02  0.684E-02    0.26       1.0  T
   4   -193.4072671 -0.101031E-02  0.198E-02    0.18       1.0  T
   5   -193.4073288 -0.616629E-04  0.947E-03    0.17       1.1  T
   6   -193.4073380 -0.920618E-05  0.477E-03    0.17       2.1  T
   7   -193.4073323  0.570597E-05  0.546E-03    0.17       1.8  T
   8   -193.4073398 -0.753443E-05  0.134E-03    0.17       7.5  T
   9   -193.4073401 -0.260451E-06  0.497E-04    0.17      20.1  T
  10   -193.4073401 -0.102694E-07  0.305E-04    0.17      32.8  T
     SCC iter.                  ...        0 min,  0.150 sec
     gradient                   ...        0 min,  0.016 sec
 * total energy  :  -190.3666429 Eh     change       -0.4308870E-03 Eh
   gradient norm :     0.0053040 Eh/α   predicted    -0.3130589E-03 ( -27.35%)
   displ. norm   :     0.2605040 α      lambda       -0.5425258E-03
   maximum displ.:     0.1258916 α      in ANC's #9, #8, #23, ...

........................................................................
.............................. CYCLE   23 ..............................
........................................................................
   1   -193.4056760 -0.193406E+03  0.127E-01    0.18       0.0  T
   2   -193.4055908  0.851705E-04  0.713E-02    0.16       1.0  T
   3   -193.4039602  0.163067E-02  0.891E-02    0.30       1.0  T
   4   -193.4054578 -0.149766E-02  0.359E-02    0.20       1.0  T
   5   -193.4056768 -0.218935E-03  0.147E-02    0.18       1.0  T
   6   -193.4057095 -0.327330E-04  0.660E-03    0.17       1.5  T
   7   -193.4057063  0.315887E-05  0.541E-03    0.17       1.8  T
   8   -193.4057132 -0.688451E-05  0.121E-03    0.17       8.2  T
   9   -193.4057132  0.237390E-07  0.108E-03    0.17       9.2  T
  10   -193.4057134 -0.167356E-06  0.693E-04    0.17      14.4  T
     SCC iter.                  ...        0 min,  0.150 sec
     gradient                   ...        0 min,  0.016 sec
 * total energy  :  -190.3667293 Eh     change       -0.8635541E-04 Eh
   gradient norm :     0.0119359 Eh/α   predicted    -0.2896790E-03 ( 235.45%)
   displ. norm   :     0.2391615 α      lambda       -0.6837670E-03
   maximum displ.:     0.1087562 α      in ANC's #8, #9, #25, ...

........................................................................
.............................. CYCLE   24 ..............................
........................................................................
   1   -193.4060637 -0.193406E+03  0.110E-01    0.17       0.0  T
   2   -193.4060680 -0.430895E-05  0.608E-02    0.17       1.0  T
   3   -193.4055521  0.515869E-03  0.514E-02    0.17       1.0  T
   4   -193.4060520 -0.499829E-03  0.146E-02    0.18       1.0  T
   5   -193.4060647 -0.126943E-04  0.988E-03    0.16       1.0  T
   6   -193.4060653 -0.651158E-06  0.964E-03    0.18       1.0  T
   7   -193.4060864 -0.211164E-04  0.166E-03    0.17       6.0  T
   8   -193.4060867 -0.321149E-06  0.781E-04    0.17      12.8  T
   9   -193.4060868 -0.574637E-07  0.356E-04    0.17      28.1  T
     SCC iter.                  ...        0 min,  0.135 sec
     gradient                   ...        0 min,  0.016 sec
 * total energy  :  -190.3670133 Eh     change       -0.2840573E-03 Eh
   gradient norm :     0.0115520 Eh/α   predicted    -0.3614387E-03 (  27.24%)
   displ. norm   :     0.2873814 α      lambda       -0.9137242E-03
   maximum displ.:     0.1481374 α      in ANC's #9, #8, #25, ...

........................................................................
.............................. CYCLE   25 ..............................
........................................................................
   1   -193.4054396 -0.193405E+03  0.156E-01    0.17       0.0  T
   2   -193.4054439 -0.428281E-05  0.871E-02    0.17       1.0  T
   3   -193.4041352  0.130866E-02  0.846E-02    0.17       1.0  T
   4   -193.4054411 -0.130588E-02  0.171E-02    0.18       1.0  T
   5   -193.4054632 -0.221334E-04  0.101E-02    0.16       1.0  T
   6   -193.4054712 -0.795005E-05  0.812E-03    0.18       1.2  T
   7   -193.4054862 -0.150479E-04  0.170E-03    0.17       5.9  T
   8   -193.4054865 -0.255079E-06  0.821E-04    0.17      12.2  T
   9   -193.4054865 -0.627071E-07  0.431E-04    0.17      23.2  T
     SCC iter.                  ...        0 min,  0.135 sec
     gradient                   ...        0 min,  0.016 sec
 * total energy  :  -190.3669577 Eh     change        0.5567871E-04 Eh
   gradient norm :     0.0133444 Eh/α   predicted    -0.4945942E-03 (-988.30%)
   displ. norm   :     0.1380560 α      lambda       -0.9150986E-03
   maximum displ.:     0.0538953 α      in ANC's #9, #8, #23, ...

........................................................................
.............................. CYCLE   26 ..............................
........................................................................
   1   -193.4089961 -0.193409E+03  0.996E-02    0.17       0.0  T
   2   -193.4090044 -0.832829E-05  0.549E-02    0.17       1.0  T
   3   -193.4088515  0.152920E-03  0.294E-02    0.18       1.0  T
   4   -193.4089698 -0.118311E-03  0.142E-02    0.16       1.0  T
   5   -193.4090083 -0.384257E-04  0.514E-03    0.17       1.9  T
   6   -193.4090113 -0.309433E-05  0.353E-03    0.17       2.8  T
   7   -193.4090135 -0.218109E-05  0.126E-03    0.17       7.9  T
   8   -193.4090138 -0.234702E-06  0.399E-04    0.17      25.0  T
     SCC iter.                  ...        0 min,  0.121 sec
     gradient                   ...        0 min,  0.016 sec
 * total energy  :  -190.3674920 Eh     change       -0.5342934E-03 Eh
   gradient norm :     0.0070142 Eh/α   predicted    -0.4662710E-03 ( -12.73%)
   displ. norm   :     0.2944564 α      lambda       -0.6441841E-03
   maximum displ.:     0.1632892 α      in ANC's #9, #8, #53, ...

........................................................................
.............................. CYCLE   27 ..............................
........................................................................
   1   -193.4058721 -0.193406E+03  0.133E-01    0.17       0.0  T
   2   -193.4058818 -0.969975E-05  0.726E-02    0.18       1.0  T
   3   -193.4038427  0.203915E-02  0.886E-02    0.12       1.0  T
   4   -193.4058092 -0.196657E-02  0.204E-02    0.19       1.0  T
   5   -193.4058795 -0.702629E-04  0.121E-02    0.18       1.0  T
   6   -193.4058944 -0.149194E-04  0.678E-03    0.17       1.5  T
   7   -193.4059028 -0.840416E-05  0.139E-03    0.17       7.2  T
   8   -193.4059031 -0.283669E-06  0.646E-04    0.17      15.5  T
   9   -193.4059031 -0.133043E-07  0.373E-04    0.17      26.8  T
     SCC iter.                  ...        0 min,  0.136 sec
     gradient                   ...        0 min,  0.016 sec
 * total energy  :  -190.3675193 Eh     change       -0.2737918E-04 Eh
   gradient norm :     0.0111625 Eh/α   predicted    -0.3500240E-03 (1178.43%)
   displ. norm   :     0.2409361 α      lambda       -0.7045196E-03
   maximum displ.:     0.1375013 α      in ANC's #9, #8, #23, ...

........................................................................
.............................. CYCLE   28 ..............................
........................................................................
   1   -193.4075564 -0.193408E+03  0.898E-02    0.17       0.0  T
   2   -193.4075624 -0.593607E-05  0.492E-02    0.17       1.0  T
   3   -193.4074253  0.137066E-03  0.259E-02    0.19       1.0  T
   4   -193.4075564 -0.131033E-03  0.798E-03    0.17       1.3  T
   5   -193.4075543  0.203638E-05  0.812E-03    0.18       1.2  T
   6   -193.4075649 -0.105772E-04  0.463E-03    0.17       2.2  T
   7   -193.4075687 -0.379574E-05  0.922E-04    0.17      10.8  T
   8   -193.4075688 -0.101250E-06  0.467E-04    0.17      21.4  T
   9   -193.4075688 -0.692350E-08  0.282E-04    0.17      35.5  T
     SCC iter.                  ...        0 min,  0.135 sec
     gradient                   ...        0 min,  0.016 sec
 * total energy  :  -190.3679970 Eh     change       -0.4776958E-03 Eh
   gradient norm :     0.0065219 Eh/α   predicted    -0.3727111E-03 ( -21.98%)
   displ. norm   :     0.3980797 α      lambda       -0.4527805E-03
   maximum displ.:     0.2415160 α      in ANC's #9, #8, #23, ...

........................................................................
.............................. CYCLE   29 ..............................
........................................................................
   1   -193.4085330 -0.193409E+03  0.105E-01    0.17       0.0  T
   2   -193.4085196  0.134105E-04  0.572E-02    0.18       1.0  T
   3   -193.4045913  0.392834E-02  0.120E-01    0.11       1.0  T
   4   -193.4084413 -0.385008E-02  0.241E-02    0.19       1.0  T
   5   -193.4085157 -0.743586E-04  0.134E-02    0.18       1.0  T
   6   -193.4085368 -0.211558E-04  0.848E-03    0.18       1.2  T
   7   -193.4085493 -0.124286E-04  0.121E-03    0.17       8.2  T
   8   -193.4085494 -0.878048E-07  0.650E-04    0.17      15.4  T
   9   -193.4085494 -0.635271E-08  0.393E-04    0.17      25.4  T
     SCC iter.                  ...        0 min,  0.135 sec
     gradient                   ...        0 min,  0.016 sec
 * total energy  :  -190.3683367 Eh     change       -0.3396894E-03 Eh
   gradient norm :     0.0054665 Eh/α   predicted    -0.2622679E-03 ( -22.79%)
   displ. norm   :     0.5316447 α      lambda       -0.5060612E-03
   maximum displ.:     0.3230951 α      in ANC's #9, #8, #23, ...

........................................................................
.............................. CYCLE   30 ..............................
........................................................................
   1   -193.4084874 -0.193408E+03  0.139E-01    0.17       0.0  T
   2   -193.4085015 -0.140466E-04  0.741E-02    0.17       1.0  T
   3   -193.4083546  0.146854E-03  0.299E-02    0.16       1.0  T
   4   -193.4084445 -0.898478E-04  0.203E-02    0.18       1.0  T
   5   -193.4084913 -0.468448E-04  0.102E-02    0.16       1.0  T
   6   -193.4084749  0.164412E-04  0.122E-02    0.18       1.0  T
   7   -193.4085113 -0.363685E-04  0.124E-03    0.17       8.0  T
   8   -193.4085113 -0.366352E-07  0.886E-04    0.17      11.3  T
   9   -193.4085113 -0.307558E-07  0.542E-04    0.17      18.4  T
     SCC iter.                  ...        0 min,  0.135 sec
     gradient                   ...        0 min,  0.016 sec
 * total energy  :  -190.3687273 Eh     change       -0.3905828E-03 Eh
   gradient norm :     0.0067644 Eh/α   predicted    -0.3245570E-03 ( -16.90%)
   displ. norm   :     0.5715023 α      lambda       -0.5040905E-03
   maximum displ.:     0.3467975 α      in ANC's #9, #8, #6, ...

........................................................................
.............................. CYCLE   31 ..............................
........................................................................
   1   -193.4081034 -0.193408E+03  0.142E-01    0.17       0.0  T
   2   -193.4081172 -0.137285E-04  0.753E-02    0.17       1.0  T
   3   -193.4079296  0.187538E-03  0.337E-02    0.17       1.0  T
   4   -193.4080456 -0.115960E-03  0.218E-02    0.16       1.0  T
   5   -193.4080778 -0.322392E-04  0.157E-02    0.18       1.0  T
   6   -193.4080948 -0.169755E-04  0.115E-02    0.16       1.0  T
   7   -193.4081272 -0.324050E-04  0.188E-03    0.17       5.3  T
   8   -193.4081278 -0.569546E-06  0.911E-04    0.17      11.0  T
   9   -193.4081278 -0.493250E-07  0.525E-04    0.17      19.0  T
     SCC iter.                  ...        0 min,  0.137 sec
     gradient                   ...        0 min,  0.020 sec
 * total energy  :  -190.3691739 Eh     change       -0.4465838E-03 Eh
   gradient norm :     0.0051907 Eh/α   predicted    -0.3343681E-03 ( -25.13%)
   displ. norm   :     0.6763784 α      lambda       -0.5729102E-03
   maximum displ.:     0.4119993 α      in ANC's #9, #8, #6, ...

........................................................................
.............................. CYCLE   32 ..............................
........................................................................
   1   -193.4091180 -0.193409E+03  0.158E-01    0.17       0.0  T
   2   -193.4091246 -0.659452E-05  0.835E-02    0.17       1.0  T
   3   -193.4084781  0.646486E-03  0.612E-02    0.16       1.0  T
   4   -193.4091022 -0.624157E-03  0.193E-02    0.17       1.0  T
   5   -193.4091063 -0.406278E-05  0.153E-02    0.18       1.0  T
   6   -193.4090877  0.185756E-04  0.152E-02    0.16       1.0  T
   7   -193.4091488 -0.610683E-04  0.266E-03    0.17       3.8  T
   8   -193.4091501 -0.133817E-05  0.111E-03    0.17       9.0  T
   9   -193.4091502 -0.935677E-07  0.630E-04    0.17      15.9  T
     SCC iter.                  ...        0 min,  0.135 sec
     gradient                   ...        0 min,  0.016 sec
 * total energy  :  -190.3696631 Eh     change       -0.4892506E-03 Eh
   gradient norm :     0.0042825 Eh/α   predicted    -0.4175051E-03 ( -14.66%)
   displ. norm   :     0.7425631 α      lambda       -0.5259377E-03
   maximum displ.:     0.4420916 α      in ANC's #8, #9, #6, ...

........................................................................
.............................. CYCLE   33 ..............................
........................................................................
   1   -193.4053279 -0.193405E+03  0.177E-01    0.17       0.0  T
   2   -193.4053331 -0.520797E-05  0.942E-02    0.17       1.0  T
   3   -193.4043352  0.997912E-03  0.679E-02    0.23       1.0  T
   4   -193.4053201 -0.984883E-03  0.197E-02    0.17       1.0  T
   5   -193.4053380 -0.179514E-04  0.133E-02    0.17       1.0  T
   6   -193.4053336  0.440086E-05  0.122E-02    0.18       1.0  T
   7   -193.4053659 -0.322982E-04  0.232E-03    0.17       4.3  T
   8   -193.4053667 -0.766794E-06  0.104E-03    0.17       9.6  T
   9   -193.4053667 -0.500841E-07  0.630E-04    0.17      15.9  T
     SCC iter.                  ...        0 min,  0.135 sec
     gradient                   ...        0 min,  0.016 sec
 * total energy  :  -190.3701059 Eh     change       -0.4427099E-03 Eh
   gradient norm :     0.0057657 Eh/α   predicted    -0.4079716E-03 (  -7.85%)
   displ. norm   :     0.6954231 α      lambda       -0.5307957E-03
   maximum displ.:     0.4249524 α      in ANC's #8, #9, #6, ...

........................................................................
.............................. CYCLE   34 ..............................
........................................................................
   1   -193.4096325 -0.193410E+03  0.149E-01    0.18       0.0  T
   2   -193.4095891  0.434337E-04  0.808E-02    0.16       1.0  T
   3   -193.4073717  0.221743E-02  0.101E-01    0.26       1.0  T
   4   -193.4095952 -0.222352E-02  0.220E-02    0.19       1.0  T
   5   -193.4095823  0.128575E-04  0.197E-02    0.16       1.0  T
   6   -193.4096468 -0.644450E-04  0.112E-02    0.18       1.0  T
   7   -193.4096649 -0.180872E-04  0.319E-03    0.17       3.1  T
   8   -193.4096668 -0.197776E-05  0.121E-03    0.17       8.3  T
   9   -193.4096670 -0.160098E-06  0.684E-04    0.17      14.6  T
     SCC iter.                  ...        0 min,  0.139 sec
     gradient                   ...        0 min,  0.016 sec
 * total energy  :  -190.3705670 Eh     change       -0.4611296E-03 Eh
   gradient norm :     0.0055086 Eh/α   predicted    -0.3937484E-03 ( -14.61%)
   displ. norm   :     0.7877322 α      lambda       -0.5302638E-03
   maximum displ.:     0.4873686 α      in ANC's #8, #9, #6, ...

........................................................................
.............................. CYCLE   35 ..............................
........................................................................
   1   -193.4099804 -0.193410E+03  0.172E-01    0.18       0.0  T
   2   -193.4099598  0.205920E-04  0.924E-02    0.16       1.0  T
   3   -193.4089787  0.981126E-03  0.675E-02    0.28       1.0  T
   4   -193.4099458 -0.967149E-03  0.247E-02    0.18       1.0  T
   5   -193.4099723 -0.264420E-04  0.180E-02    0.17       1.0  T
   6   -193.4100055 -0.331812E-04  0.108E-02    0.17       1.0  T
   7   -193.4100169 -0.114402E-04  0.443E-03    0.17       2.3  T
   8   -193.4100214 -0.450592E-05  0.174E-03    0.18       5.7  T
   9   -193.4100220 -0.572814E-06  0.653E-04    0.18      15.3  T
  10   -193.4100220 -0.100861E-07  0.377E-04    0.18      26.5  T
     SCC iter.                  ...        0 min,  0.150 sec
     gradient                   ...        0 min,  0.016 sec
 * total energy  :  -190.3710515 Eh     change       -0.4845222E-03 Eh
   gradient norm :     0.0046745 Eh/α   predicted    -0.4296554E-03 ( -11.32%)
   displ. norm   :     0.7501848 α      lambda       -0.5119271E-03
   maximum displ.:     0.4708375 α      in ANC's #8, #9, #6, ...

........................................................................
.............................. CYCLE   36 ..............................
........................................................................
   1   -193.4126572 -0.193413E+03  0.163E-01    0.18       0.0  T
   2   -193.4126456  0.116003E-04  0.873E-02    0.17       1.0  T
   3   -193.4114630  0.118267E-02  0.740E-02    0.26       1.0  T
   4   -193.4126084 -0.114544E-02  0.256E-02    0.18       1.0  T
   5   -193.4126480 -0.396442E-04  0.167E-02    0.17       1.0  T
   6   -193.4126668 -0.187565E-04  0.127E-02    0.19       1.0  T
   7   -193.4126943 -0.275368E-04  0.371E-03    0.17       2.7  T
   8   -193.4126973 -0.291050E-05  0.108E-03    0.18       9.2  T
   9   -193.4126974 -0.104046E-06  0.590E-04    0.18      17.0  T
     SCC iter.                  ...        0 min,  0.141 sec
     gradient                   ...        0 min,  0.020 sec
 * total energy  :  -190.3715047 Eh     change       -0.4531804E-03 Eh
   gradient norm :     0.0035623 Eh/α   predicted    -0.4000166E-03 ( -11.73%)
   displ. norm   :     0.7807308 α      lambda       -0.4722236E-03
   maximum displ.:     0.4889600 α      in ANC's #8, #9, #6, ...

........................................................................
.............................. CYCLE   37 ..............................
........................................................................
   1   -193.4102352 -0.193410E+03  0.175E-01    0.19       0.0  T
   2   -193.4102479 -0.126861E-04  0.933E-02    0.17       1.0  T
   3   -193.4097988  0.449177E-03  0.519E-02    0.24       1.0  T
   4   -193.4102225 -0.423785E-03  0.200E-02    0.17       1.0  T
   5   -193.4102461 -0.235598E-04  0.149E-02    0.19       1.0  T
   6   -193.4102682 -0.220681E-04  0.842E-03    0.17       1.2  T
   7   -193.4102793 -0.110880E-04  0.448E-03    0.18       2.2  T
   8   -193.4102829 -0.366385E-05  0.135E-03    0.18       7.4  T
   9   -193.4102832 -0.306523E-06  0.543E-04    0.18      18.4  T
  10   -193.4102832  0.269679E-08  0.388E-04    0.18      25.7  T
     SCC iter.                  ...        0 min,  0.152 sec
     gradient                   ...        0 min,  0.017 sec
 * total energy  :  -190.3719174 Eh     change       -0.4127485E-03 Eh
   gradient norm :     0.0050988 Eh/α   predicted    -0.3800380E-03 (  -7.93%)
   displ. norm   :     0.7763597 α      lambda       -0.4903807E-03
   maximum displ.:     0.4887197 α      in ANC's #8, #9, #6, ...

........................................................................
.............................. CYCLE   38 ..............................
........................................................................
   1   -193.4130185 -0.193413E+03  0.177E-01    0.19       0.0  T
   2   -193.4130415 -0.229407E-04  0.943E-02    0.18       1.0  T
   3   -193.4126039  0.437563E-03  0.513E-02    0.20       1.0  T
   4   -193.4128116 -0.207707E-03  0.363E-02    0.17       1.0  T
   5   -193.4130438 -0.232169E-03  0.140E-02    0.19       1.0  T
   6   -193.4130386  0.521993E-05  0.118E-02    0.17       1.0  T
   7   -193.4130658 -0.272303E-04  0.387E-03    0.19       2.6  T
   8   -193.4130691 -0.332776E-05  0.899E-04    0.18      11.1  T
   9   -193.4130692 -0.286571E-07  0.524E-04    0.18      19.1  T
  10   -193.4130692 -0.407707E-08  0.311E-04    0.18      32.2  T
     SCC iter.                  ...        0 min,  0.150 sec
     gradient                   ...        0 min,  0.016 sec
 * total energy  :  -190.3723394 Eh     change       -0.4220016E-03 Eh
   gradient norm :     0.0048721 Eh/α   predicted    -0.3929796E-03 (  -6.88%)
   displ. norm   :     0.7756052 α      lambda       -0.4628784E-03
   maximum displ.:     0.4803652 α      in ANC's #8, #9, #6, ...

........................................................................
.............................. CYCLE   39 ..............................
........................................................................
   1   -193.4110737 -0.193411E+03  0.178E-01    0.19       0.0  T
   2   -193.4111002 -0.264936E-04  0.952E-02    0.19       1.0  T
   3   -193.4107360  0.364210E-03  0.503E-02    0.19       1.0  T
   4   -193.4109061 -0.170070E-03  0.356E-02    0.18       1.0  T
   5   -193.4111054 -0.199269E-03  0.141E-02    0.20       1.0  T
   6   -193.4110941  0.112497E-04  0.124E-02    0.18       1.0  T
   7   -193.4111266 -0.325044E-04  0.425E-03    0.19       2.4  T
   8   -193.4111307 -0.412002E-05  0.927E-04    0.19      10.8  T
   9   -193.4111308 -0.329570E-07  0.561E-04    0.19      17.8  T
  10   -193.4111308 -0.547925E-08  0.354E-04    0.19      28.2  T
     SCC iter.                  ...        0 min,  0.150 sec
     gradient                   ...        0 min,  0.016 sec
 * total energy  :  -190.3727356 Eh     change       -0.3961635E-03 Eh
   gradient norm :     0.0065408 Eh/α   predicted    -0.3706718E-03 (  -6.43%)
   displ. norm   :     0.7371359 α      lambda       -0.5066432E-03
   maximum displ.:     0.4325560 α      in ANC's #8, #6, #5, ...

........................................................................
.............................. CYCLE   40 ..............................
........................................................................
   1   -193.4136019 -0.193414E+03  0.178E-01    0.19       0.0  T
   2   -193.4136215 -0.195874E-04  0.957E-02    0.20       1.0  T
   3   -193.4127688  0.852745E-03  0.675E-02    0.15       1.0  T
   4   -193.4133402 -0.571456E-03  0.387E-02    0.24       1.0  T
   5   -193.4136299 -0.289641E-03  0.164E-02    0.20       1.0  T
   6   -193.4136297  0.163476E-06  0.140E-02    0.19       1.0  T
   7   -193.4136623 -0.325521E-04  0.441E-03    0.19       2.3  T
   8   -193.4136641 -0.188873E-05  0.157E-03    0.19       6.4  T
   9   -193.4136646 -0.409314E-06  0.700E-04    0.19      14.3  T
     SCC iter.                  ...        0 min,  0.135 sec
     gradient                   ...        0 min,  0.016 sec
 * total energy  :  -190.3731558 Eh     change       -0.4202411E-03 Eh
   gradient norm :     0.0059973 Eh/α   predicted    -0.3909726E-03 (  -6.96%)
   displ. norm   :     0.7524304 α      lambda       -0.4765510E-03
   maximum displ.:     0.4186384 α      in ANC's #8, #6, #5, ...

........................................................................
.............................. CYCLE   41 ..............................
........................................................................
   1   -193.4111177 -0.193411E+03  0.182E-01    0.20       0.0  T
   2   -193.4111343 -0.165699E-04  0.991E-02    0.21       1.0  T
   3   -193.4096734  0.146085E-02  0.836E-02    0.15       1.0  T
   4   -193.4107907 -0.111731E-02  0.434E-02    0.26       1.0  T
   5   -193.4111286 -0.337903E-03  0.212E-02    0.22       1.0  T
   6   -193.4111738 -0.452075E-04  0.127E-02    0.20       1.0  T
   7   -193.4111929 -0.191041E-04  0.570E-03    0.20       1.8  T
   8   -193.4111952 -0.230334E-05  0.248E-03    0.20       4.0  T
   9   -193.4111966 -0.135504E-05  0.795E-04    0.20      12.6  T
     SCC iter.                  ...        0 min,  0.140 sec
     gradient                   ...        0 min,  0.020 sec
 * total energy  :  -190.3735452 Eh     change       -0.3893381E-03 Eh
   gradient norm :     0.0071569 Eh/α   predicted    -0.3731776E-03 (  -4.15%)
   displ. norm   :     0.6931660 α      lambda       -0.5043685E-03
   maximum displ.:     0.3284190 α      in ANC's #8, #6, #5, ...

........................................................................
.............................. CYCLE   42 ..............................
........................................................................
   1   -193.4106761 -0.193411E+03  0.164E-01    0.20       0.0  T
   2   -193.4106796 -0.349050E-05  0.910E-02    0.22       1.0  T
   3   -193.4090144  0.166515E-02  0.868E-02    0.15       1.0  T
   4   -193.4103932 -0.137873E-02  0.404E-02    0.26       1.0  T
   5   -193.4106728 -0.279681E-03  0.210E-02    0.23       1.0  T
   6   -193.4107261 -0.532492E-04  0.114E-02    0.21       1.0  T
   7   -193.4107427 -0.165907E-04  0.526E-03    0.21       1.9  T
   8   -193.4107442 -0.148218E-05  0.258E-03    0.20       3.9  T
   9   -193.4107456 -0.145392E-05  0.838E-04    0.21      11.9  T
     SCC iter.                  ...        0 min,  0.135 sec
     gradient                   ...        0 min,  0.016 sec
 * total energy  :  -190.3739471 Eh     change       -0.4018739E-03 Eh
   gradient norm :     0.0079392 Eh/α   predicted    -0.3733555E-03 (  -7.10%)
   displ. norm   :     0.6584626 α      lambda       -0.5406907E-03
   maximum displ.:     0.2369739 α      in ANC's #5, #8, #6, ...
 * RMSD in coord.:     1.0629992 α      energy gain  -0.8228327E-02 Eh

generating ANC from model Hessian ...
Using Lindh-Hessian (1995)
 Shifting diagonal of input Hessian by   5.017749657608477E-003
 Lowest  eigenvalues of input Hessian
    0.005000   -0.000000   -0.000000   -0.000000    0.000000    0.000000
    0.000000    0.005025    0.005030    0.005047    0.005078    0.005082
    0.005144    0.005246    0.005374    0.005470    0.005638    0.005709
 Highest eigenvalues
    2.408408    2.500652    2.598467    2.602948    2.642989    2.650558
 

........................................................................
.............................. CYCLE   43 ..............................
........................................................................
   1   -193.4170787 -0.193417E+03  0.150E-01    0.21       0.0  T
   2   -193.4170523  0.263515E-04  0.860E-02    0.22       1.0  T
   3   -193.4146438  0.240853E-02  0.112E-01    0.17       1.0  T
   4   -193.4168111 -0.216732E-02  0.416E-02    0.24       1.0  T
   5   -193.4171325 -0.321366E-03  0.105E-02    0.22       1.0  T
   6   -193.4171338 -0.133837E-05  0.782E-03    0.21       1.3  T
   7   -193.4171437 -0.987734E-05  0.324E-03    0.22       3.1  T
   8   -193.4171446 -0.927949E-06  0.148E-03    0.21       6.8  T
   9   -193.4171449 -0.332388E-06  0.635E-04    0.21      15.7  T
  10   -193.4171450 -0.536750E-08  0.459E-04    0.21      21.8  T
     SCC iter.                  ...        0 min,  0.150 sec
     gradient                   ...        0 min,  0.017 sec
 * total energy  :  -190.3743421 Eh     change       -0.3950007E-03 Eh
   gradient norm :     0.0089393 Eh/α   predicted     0.0000000E+00 (-100.00%)
   displ. norm   :     0.1663740 α      lambda       -0.3454331E-03
   maximum displ.:     0.0742730 α      in ANC's #5, #23, #13, ...

........................................................................
.............................. CYCLE   44 ..............................
........................................................................
   1   -193.4160527 -0.193416E+03  0.594E-02    0.21       0.0  T
   2   -193.4160561 -0.335558E-05  0.327E-02    0.22       1.0  T
   3   -193.4159996  0.564594E-04  0.212E-02    0.21       1.0  T
   4   -193.4160468 -0.471580E-04  0.931E-03    0.22       1.1  T
   5   -193.4160554 -0.856394E-05  0.586E-03    0.22       1.7  T
   6   -193.4160602 -0.479999E-05  0.259E-03    0.21       3.9  T
   7   -193.4160612 -0.109640E-05  0.899E-04    0.22      11.1  T
   8   -193.4160614 -0.130317E-06  0.421E-04    0.21      23.7  T
     SCC iter.                  ...        0 min,  0.120 sec
     gradient                   ...        0 min,  0.016 sec
 * total energy  :  -190.3745762 Eh     change       -0.2341271E-03 Eh
   gradient norm :     0.0051065 Eh/α   predicted    -0.1774977E-03 ( -24.19%)
   displ. norm   :     0.2430479 α      lambda       -0.4479924E-03
   maximum displ.:     0.1053637 α      in ANC's #30, #23, #5, ...

........................................................................
.............................. CYCLE   45 ..............................
........................................................................
   1   -193.4143650 -0.193414E+03  0.943E-02    0.21       0.0  T
   2   -193.4143699 -0.487625E-05  0.524E-02    0.22       1.0  T
   3   -193.4140526  0.317284E-03  0.421E-02    0.19       1.0  T
   4   -193.4143220 -0.269455E-03  0.181E-02    0.23       1.0  T
   5   -193.4143761 -0.540969E-04  0.965E-03    0.22       1.0  T
   6   -193.4143878 -0.117046E-04  0.430E-03    0.21       2.3  T
   7   -193.4143903 -0.242611E-05  0.167E-03    0.22       6.0  T
   8   -193.4143906 -0.332545E-06  0.772E-04    0.21      13.0  T
     SCC iter.                  ...        0 min,  0.120 sec
     gradient                   ...        0 min,  0.016 sec
 * total energy  :  -190.3747669 Eh     change       -0.1907315E-03 Eh
   gradient norm :     0.0074186 Eh/α   predicted    -0.2372292E-03 (  24.38%)
   displ. norm   :     0.2229663 α      lambda       -0.3380242E-03
   maximum displ.:     0.0859258 α      in ANC's #5, #23, #10, ...

........................................................................
.............................. CYCLE   46 ..............................
........................................................................
   1   -193.4136416 -0.193414E+03  0.903E-02    0.21       0.0  T
   2   -193.4136437 -0.210508E-05  0.498E-02    0.22       1.0  T
   3   -193.4132988  0.344980E-03  0.403E-02    0.18       1.0  T
   4   -193.4136059 -0.307117E-03  0.164E-02    0.23       1.0  T
   5   -193.4136506 -0.447258E-04  0.831E-03    0.22       1.2  T
   6   -193.4136590 -0.844502E-05  0.411E-03    0.21       2.4  T
   7   -193.4136612 -0.212480E-05  0.127E-03    0.21       7.9  T
   8   -193.4136613 -0.140635E-06  0.636E-04    0.22      15.7  T
     SCC iter.                  ...        0 min,  0.120 sec
     gradient                   ...        0 min,  0.016 sec
 * total energy  :  -190.3748949 Eh     change       -0.1280333E-03 Eh
   gradient norm :     0.0088733 Eh/α   predicted    -0.1774158E-03 (  38.57%)
   displ. norm   :     0.3600915 α      lambda       -0.6544308E-03
   maximum displ.:     0.1428451 α      in ANC's #23, #5, #13, ...

........................................................................
.............................. CYCLE   47 ..............................
........................................................................
   1   -193.4129811 -0.193413E+03  0.149E-01    0.21       0.0  T
   2   -193.4129893 -0.819358E-05  0.812E-02    0.23       1.0  T
   3   -193.4119840  0.100538E-02  0.665E-02    0.17       1.0  T
   4   -193.4128602 -0.876225E-03  0.291E-02    0.24       1.0  T
   5   -193.4130046 -0.144449E-03  0.129E-02    0.23       1.0  T
   6   -193.4130235 -0.188523E-04  0.714E-03    0.22       1.4  T
   7   -193.4130291 -0.559616E-05  0.270E-03    0.22       3.7  T
   8   -193.4130296 -0.531670E-06  0.139E-03    0.22       7.2  T
   9   -193.4130298 -0.218739E-06  0.744E-04    0.22      13.4  T
     SCC iter.                  ...        0 min,  0.135 sec
     gradient                   ...        0 min,  0.016 sec
 * total energy  :  -190.3750973 Eh     change       -0.2023231E-03 Eh
   gradient norm :     0.0098730 Eh/α   predicted    -0.3696474E-03 (  82.70%)
   displ. norm   :     0.2372593 α      lambda       -0.5518735E-03
   maximum displ.:     0.0940091 α      in ANC's #5, #23, #13, ...

........................................................................
.............................. CYCLE   48 ..............................
........................................................................
   1   -193.4149181 -0.193415E+03  0.103E-01    0.22       0.0  T
   2   -193.4149272 -0.904557E-05  0.577E-02    0.22       1.0  T
   3   -193.4146643  0.262853E-03  0.388E-02    0.20       1.0  T
   4   -193.4148510 -0.186662E-03  0.215E-02    0.23       1.0  T
   5   -193.4149415 -0.905031E-04  0.497E-03    0.22       2.0  T
   6   -193.4149424 -0.905217E-06  0.357E-03    0.22       2.8  T
   7   -193.4149444 -0.200061E-05  0.114E-03    0.22       8.8  T
   8   -193.4149445 -0.787336E-07  0.565E-04    0.22      17.7  T
     SCC iter.                  ...        0 min,  0.120 sec
     gradient                   ...        0 min,  0.016 sec
 * total energy  :  -190.3752784 Eh     change       -0.1811051E-03 Eh
   gradient norm :     0.0088044 Eh/α   predicted    -0.2914725E-03 (  60.94%)
   displ. norm   :     0.2349873 α      lambda       -0.5946203E-03
   maximum displ.:     0.0975417 α      in ANC's #5, #13, #10, ...

........................................................................
.............................. CYCLE   49 ..............................
........................................................................
   1   -193.4163085 -0.193416E+03  0.976E-02    0.22       0.0  T
   2   -193.4163129 -0.433555E-05  0.549E-02    0.23       1.0  T
   3   -193.4158869  0.426024E-03  0.477E-02    0.19       1.0  T
   4   -193.4162253 -0.338432E-03  0.235E-02    0.23       1.0  T
   5   -193.4163319 -0.106610E-03  0.467E-03    0.23       2.1  T
   6   -193.4163334 -0.155362E-05  0.310E-03    0.22       3.2  T
   7   -193.4163348 -0.135357E-05  0.122E-03    0.22       8.2  T
   8   -193.4163349 -0.837524E-07  0.558E-04    0.22      17.9  T
     SCC iter.                  ...        0 min,  0.120 sec
     gradient                   ...        0 min,  0.016 sec
 * total energy  :  -190.3755489 Eh     change       -0.2705402E-03 Eh
   gradient norm :     0.0078183 Eh/α   predicted    -0.3137273E-03 (  15.96%)
   displ. norm   :     0.3232194 α      lambda       -0.4201699E-03
   maximum displ.:     0.1450386 α      in ANC's #5, #13, #10, ...

........................................................................
.............................. CYCLE   50 ..............................
........................................................................
   1   -193.4171248 -0.193417E+03  0.107E-01    0.22       0.0  T
   2   -193.4171140  0.108205E-04  0.602E-02    0.23       1.0  T
   3   -193.4160141  0.109993E-02  0.727E-02    0.18       1.0  T
   4   -193.4170372 -0.102318E-02  0.256E-02    0.23       1.0  T
   5   -193.4171496 -0.112358E-03  0.679E-03    0.23       1.5  T
   6   -193.4171512 -0.163653E-05  0.492E-03    0.22       2.0  T
   7   -193.4171551 -0.381672E-05  0.152E-03    0.22       6.6  T
   8   -193.4171553 -0.224312E-06  0.738E-04    0.22      13.5  T
   9   -193.4171553 -0.438005E-07  0.401E-04    0.22      25.0  T
     SCC iter.                  ...        0 min,  0.139 sec
     gradient                   ...        0 min,  0.020 sec
 * total energy  :  -190.3757517 Eh     change       -0.2027845E-03 Eh
   gradient norm :     0.0071682 Eh/α   predicted    -0.2320336E-03 (  14.42%)
   displ. norm   :     0.3881848 α      lambda       -0.3988891E-03
   maximum displ.:     0.1839203 α      in ANC's #5, #13, #10, ...

........................................................................
.............................. CYCLE   51 ..............................
........................................................................
   1   -193.4156573 -0.193416E+03  0.126E-01    0.22       0.0  T
   2   -193.4156655 -0.817391E-05  0.682E-02    0.24       1.0  T
   3   -193.4152529  0.412576E-03  0.458E-02    0.19       1.0  T
   4   -193.4155688 -0.315810E-03  0.252E-02    0.25       1.0  T
   5   -193.4156756 -0.106827E-03  0.114E-02    0.23       1.0  T
   6   -193.4156881 -0.125608E-04  0.653E-03    0.22       1.5  T
   7   -193.4156936 -0.550941E-05  0.203E-03    0.22       4.9  T
   8   -193.4156941 -0.431651E-06  0.968E-04    0.22      10.3  T
   9   -193.4156941 -0.509620E-07  0.625E-04    0.23      16.0  T
     SCC iter.                  ...        0 min,  0.135 sec
     gradient                   ...        0 min,  0.016 sec
 * total energy  :  -190.3760142 Eh     change       -0.2624639E-03 Eh
   gradient norm :     0.0055234 Eh/α   predicted    -0.2294986E-03 ( -12.56%)
   displ. norm   :     0.3702353 α      lambda       -0.2660178E-03
   maximum displ.:     0.1902373 α      in ANC's #5, #10, #13, ...

........................................................................
.............................. CYCLE   52 ..............................
........................................................................
   1   -193.4177578 -0.193418E+03  0.101E-01    0.22       0.0  T
   2   -193.4177671 -0.935876E-05  0.549E-02    0.23       1.0  T
   3   -193.4176463  0.120784E-03  0.292E-02    0.20       1.0  T
[...]
     9   6 C      2.910    -0.014    28.367     8.733
    10   6 C      3.147     0.010    27.521     8.582
    11   6 C      3.008     0.031    27.296     8.570
    12   6 C      2.934    -0.034    28.842     8.808
    13  16 S      2.397     0.021   140.195    19.928
    14   6 C      2.933     0.090    25.988     8.361
    15   6 C      3.101    -0.055    29.237     8.861
    16  35 Br     1.141    -0.106   187.970    22.106
    17   6 C      2.863     0.239    23.026     7.865
    18   8 O      0.856    -0.356    20.813     6.117
    19   6 C      3.007    -0.018    28.438     8.748
    20   6 C      2.893    -0.023    28.583     8.766
    21   6 C      3.033     0.147    24.776     8.164
    22   8 O      1.731    -0.184    17.079     5.580
    23   6 C      3.123    -0.038    28.757     8.782
    24   6 C      2.806     0.302    21.885     7.664
    25   8 O      0.857    -0.369    21.069     6.154
    26   7 N      2.773    -0.180    24.896     7.411
    27   6 C      2.806     0.293    22.038     7.691
    28   8 O      0.857    -0.371    21.101     6.159
    29   6 C      3.128    -0.059    29.263     8.857
    30   6 C      3.032     0.146    24.807     8.170
    31   6 C      2.897    -0.047    29.177     8.856
    32   6 C      2.903    -0.017    28.422     8.741
    33   6 C      2.903    -0.046    29.150     8.853
    34   6 C      2.946     0.009    27.807     8.649
    35   6 C      3.756    -0.117    22.802     6.808
    36   6 C      3.746    -0.010    20.825     6.509
    37   7 N      2.690    -0.123    23.668     7.225
    38   6 C      2.832     0.029    27.350     8.570
    39   6 C      2.902    -0.068    29.688     8.934
    40   6 C      2.936    -0.032    28.808     8.803
    41   6 C      2.983     0.029    27.352     8.579
    42   6 C      3.067    -0.037    28.858     8.809
    43   6 C      3.068    -0.042    28.962     8.824
    44   6 C      3.024     0.033    27.229     8.559
    45  16 S      2.335    -0.043   142.852    20.116
    46   6 C      3.029     0.019    27.544     8.609
    47   6 C      3.066    -0.035    28.809     8.801
    48   6 C      3.077    -0.040    28.913     8.816
    49   6 C      2.986     0.047    26.929     8.512
    50  16 S      2.337    -0.029   142.238    20.073
    51   6 C      2.931    -0.042    29.053     8.840
    52   6 C      2.904    -0.010    28.275     8.719
    53   6 C      3.012    -0.038    28.913     8.820
    54   6 C      2.873     0.221    23.354     7.922
    55   8 O      0.856    -0.381    21.311     6.189
    56   6 C      3.034    -0.021    28.507     8.758
    57   6 C      2.913    -0.020    28.507     8.755
    58   6 C      2.987     0.011    27.753     8.642
    59   6 C      2.991     0.019    27.581     8.615
    60   6 C      2.917    -0.054    29.344     8.883
    61   6 C      2.782     0.173    24.280     8.071
    62   6 C      2.913    -0.045    29.127     8.850
    63   6 C      2.923    -0.031    28.776     8.797
    64   9 F      0.787    -0.221    11.458     3.999
    65   6 C      2.915    -0.034    28.855     8.809
    66   6 C      3.031     0.005    27.887     8.662
    67   6 C      3.014     0.028    27.352     8.579
    68   6 C      2.947    -0.004    28.121     8.697
    69   6 C      1.939     0.120    28.125     8.564
    70   7 N      0.911    -0.254    26.609     7.461
    71   6 C      1.940     0.120    28.139     8.566
    72   7 N      0.911    -0.252    26.561     7.454
    73   1 H      0.926     0.073     2.048     2.238
    74   1 H      0.926     0.068     2.109     2.271
    75   1 H      0.926     0.071     2.071     2.250
    76   1 H      0.925     0.085     1.930     2.173
    77   1 H      0.860     0.204     1.087     1.633
    78   1 H      0.926     0.073     2.056     2.242
    79   1 H      0.926     0.066     2.130     2.282
    80   1 H      0.925     0.046     2.372     2.409
    81   1 H      0.925     0.064     2.157     2.297
    82   1 H      0.925     0.065     2.136     2.285
    83   1 H      0.925     0.049     2.333     2.389
    84   1 H      0.924     0.063     2.163     2.300
    85   1 H      0.924     0.064     2.147     2.292
    86   1 H      0.860     0.180     1.215     1.726
    87   1 H      0.925     0.057     2.230     2.335
    88   1 H      0.925     0.049     2.327     2.386
    89   1 H      0.925     0.049     2.336     2.390
    90   1 H      0.926     0.047     2.357     2.401
    91   1 H      0.926     0.046     2.365     2.405
    92   1 H      0.926     0.046     2.367     2.406
    93   1 H      0.926     0.053     2.279     2.361
    94   1 H      0.926     0.053     2.282     2.362
    95   1 H      0.925     0.071     2.077     2.254
    96   1 H      0.926     0.059     2.213     2.326
    97   1 H      0.926     0.067     2.123     2.279
    98   1 H      0.926     0.062     2.180     2.309
    99   1 H      0.926     0.052     2.290     2.367
   100   1 H      0.926     0.057     2.239     2.340

 Mol. C6AA /au·bohr⁶  :     192527.108108
 Mol. C8AA /au·bohr⁸  :    5433866.070900
 Mol. α(0) /au        :        702.539820


Wiberg/Mayer (AO) data.
largest (>0.10) Wiberg bond orders for each atom
          total WBO             WBO to atom ...
     1  C   3.962        C    2 1.481    C   19 1.130    C    7 1.098
     2  C   3.926        C    1 1.481    C    5 1.099    C    3 1.096
     3  C   3.946        N    4 2.766    C    2 1.096
     4  N   2.968        C    3 2.766
     5  C   3.945        N    6 2.759    C    2 1.099
     6  N   2.962        C    5 2.759
     7  C   3.980        C   12 1.421    C    8 1.241    C    1 1.098
     8  C   3.978        C    9 1.471    C    7 1.241    C   17 1.027
     9  C   3.971        C    8 1.471    C   10 1.316    H   73 0.961
    10  C   3.972        C    9 1.316    C   11 1.262    C   15 1.206
    11  C   3.950        C   12 1.382    C   10 1.262    S   13 1.122
    12  C   3.969        C    7 1.421    C   11 1.382    H   74 0.957
    13  S   2.562        C   14 1.133    C   11 1.122
    14  C   3.899        C   15 1.607    S   13 1.133    Br  16 1.031
    15  C   3.974        C   14 1.607    C   10 1.206    H   75 0.959
    16  Br  1.171        C   14 1.031
    17  C   3.922        O   18 1.790    C    8 1.027    C   19 1.003
    18  O   2.062        C   17 1.790
    19  C   3.952        C   20 1.591    C    1 1.130    C   17 1.003
    20  C   3.935        C   19 1.591    C   21 1.186    H   76 0.941
    21  C   3.905        C   23 1.406    C   20 1.186    O   22 1.090
    22  O   2.424        C   30 1.107    C   21 1.090
    23  C   3.949        C   21 1.406    C   29 1.267    C   24 1.010
    24  C   3.941        O   25 1.750    N   26 1.115    C   23 1.010
    25  O   2.071        C   24 1.750    N   26 0.136
    26  N   3.497        C   24 1.115    C   27 1.110    H   77 0.926    O   25 0.136    O   28 0.135
    27  C   3.942        O   28 1.743    N   26 1.110    C   29 1.020
    28  O   2.062        C   27 1.743    N   26 0.135
    29  C   3.945        C   30 1.394    C   23 1.267    C   27 1.020
    30  C   3.902        C   29 1.394    C   31 1.180    O   22 1.107
    31  C   3.972        C   32 1.658    C   30 1.180    H   78 0.959    C   34 0.109
    32  C   3.954        C   31 1.658    C   33 1.185    H   79 0.959
    33  C   3.983        C   34 1.725    C   32 1.185    H   80 0.960
    34  C   3.913        C   33 1.725    C   35 1.033    C   36 0.995    C   31 0.109
    35  C   3.993        C   34 1.033    H   83 0.983    H   82 0.965    H   81 0.962
    36  C   3.965        C   34 0.995    N   37 0.985    H   85 0.968    H   84 0.959
    37  N   3.393        C   38 1.282    C   36 0.985    H   86 0.934
    38  C   3.862        C   39 1.513    N   37 1.282    H   87 0.956
    39  C   3.959        C   38 1.513    C   40 1.312    H   88 0.954
    40  C   3.883        C   41 1.450    C   39 1.312    H   89 0.957
    41  C   3.943        C   40 1.450    C   42 1.254    S   45 1.065
    42  C   3.925        C   43 1.560    C   41 1.254    H   90 0.963
    43  C   3.947        C   42 1.560    C   44 1.266    H   91 0.962
    44  C   3.908        C   46 1.347    C   43 1.266    S   45 1.123
    45  S   2.483        C   44 1.123    C   41 1.065
    46  C   3.916        C   44 1.347    C   47 1.284    S   50 1.097
    47  C   3.948        C   48 1.537    C   46 1.284    H   92 0.962
    48  C   3.925        C   47 1.537    C   49 1.273    H   93 0.963
    49  C   3.937        C   51 1.379    C   48 1.273    S   50 1.114
    50  S   2.521        C   49 1.114    C   46 1.097
    51  C   3.892        C   52 1.391    C   49 1.379    H   94 0.950
    52  C   3.947        C   53 1.419    C   51 1.391    H   95 0.947
    53  C   3.876        C   52 1.419    C   67 1.188    C   54 1.039
    54  C   3.920        O   55 1.751    C   53 1.039    C   56 1.015
    55  O   2.014        C   54 1.751
    56  C   3.975        C   57 1.531    C   66 1.202    C   54 1.015
    57  C   3.975        C   56 1.531    C   58 1.266    H   96 0.963
    58  C   3.981        C   63 1.290    C   57 1.266    C   59 1.245
    59  C   3.984        C   60 1.292    C   65 1.265    C   58 1.245
    60  C   3.977        C   61 1.490    C   59 1.292    H   97 0.963    C   63 0.111
    61  C   3.879        C   60 1.490    C   62 1.295    F   64 0.962
    62  C   3.977        C   63 1.544    C   61 1.295    H   98 0.966
    63  C   3.981        C   62 1.544    C   58 1.290    H   99 0.967    C   60 0.111
    64  F   1.090        C   61 0.962
    65  C   3.969        C   66 1.517    C   59 1.265    H  100 0.959
    66  C   3.982        C   65 1.517    C   56 1.202    C   67 1.072
    67  C   3.964        C   68 1.440    C   53 1.188    C   66 1.072
    68  C   3.915        C   67 1.440    C   71 1.107    C   69 1.107
    69  C   3.944        N   70 2.750    C   68 1.107
    70  N   2.962        C   69 2.750
    71  C   3.944        N   72 2.750    C   68 1.107
    72  N   2.952        C   71 2.750
    73  H   0.994        C    9 0.961
    74  H   0.995        C   12 0.957
    75  H   0.995        C   15 0.959
    76  H   0.991        C   20 0.941
    77  H   0.958        N   26 0.926
    78  H   0.994        C   31 0.959
    79  H   0.996        C   32 0.959
    80  H   0.998        C   33 0.960
    81  H   0.993        C   35 0.962
    82  H   0.993        C   35 0.965
    83  H   0.997        C   35 0.983
    84  H   0.989        C   36 0.959
    85  H   0.996        C   36 0.968
    86  H   0.967        N   37 0.934
    87  H   0.996        C   38 0.956
    88  H   0.997        C   39 0.954
    89  H   0.997        C   40 0.957
    90  H   0.997        C   42 0.963
    91  H   0.997        C   43 0.962
    92  H   0.997        C   47 0.962
    93  H   0.996        C   48 0.963
    94  H   0.997        C   51 0.950
    95  H   0.993        C   52 0.947
    96  H   0.995        C   57 0.963
    97  H   0.995        C   60 0.963
    98  H   0.995        C   62 0.966
    99  H   0.997        C   63 0.967
   100  H   0.996        C   65 0.959

molecular dipole:
                 x           y           z       tot (Debye)
 q only:       -1.918       3.999       5.281
   full:       -2.523       4.262       5.191      18.237
molecular quadrupole (traceless):
                xx          xy          yy          xz          yz          zz
 q only:       64.837     -52.829     202.998     114.733     -61.933    -267.836
  q+dip:       75.837     -83.182     185.970     138.304     -67.848    -261.807
   full:       80.593     -78.089     178.915     145.025     -69.186    -259.507

           -------------------------------------------------
          |                Geometry Summary                 |
           -------------------------------------------------

      molecular mass/u    :     1059.9568000
   center of mass at/Å    :       -4.3874759       0.9424343     -10.1419474
  moments of inertia/u·Å² :        0.2474558E+05   0.7119666E+05   0.9180006E+05
rotational constants/cm⁻¹ :        0.6812382E-03   0.2367756E-03   0.1836342E-03

 * 92 selected distances

     #   Z        #   Z                                     value/Å
     1   6 C      2   6 C                                 1.3719042
     3   6 C      4   7 N                                 1.1479209
     5   6 C      6   7 N                                 1.1485853
     7   6 C      8   6 C                                 1.4174779
     8   6 C      9   6 C                                 1.3734982
     9   6 C     10   6 C                                 1.3987011
    10   6 C     11   6 C                                 1.4162651
     7   6 C     12   6 C                                 1.3835053
    11   6 C     12   6 C                                 1.3888807
    11   6 C     13  16 S                                 1.7370202
    13  16 S     14   6 C                                 1.7437591
    10   6 C     15   6 C                                 1.4213266
    14   6 C     15   6 C                                 1.3545722
    14   6 C     16  35 Br                                1.8743962 (max)
    17   6 C     18   8 O                                 1.2089697
    19   6 C     20   6 C                                 1.3599623
    20   6 C     21   6 C                                 1.4198814
    21   6 C     22   8 O                                 1.3624438
    21   6 C     23   6 C                                 1.3820260
    24   6 C     25   8 O                                 1.2017254
    24   6 C     26   7 N                                 1.3923437
    26   7 N     27   6 C                                 1.3933303
    27   6 C     28   8 O                                 1.2025310
    23   6 C     29   6 C                                 1.4128823
    22   8 O     30   6 C                                 1.3569502
    29   6 C     30   6 C                                 1.3836520
    30   6 C     31   6 C                                 1.4215905
    31   6 C     32   6 C                                 1.3514202
    32   6 C     33   6 C                                 1.4286359
    33   6 C     34   6 C                                 1.3451378
    36   6 C     37   7 N                                 1.4477490
    37   7 N     38   6 C                                 1.3443810
    38   6 C     39   6 C                                 1.3630739
    39   6 C     40   6 C                                 1.4019212
    40   6 C     41   6 C                                 1.3736285
    41   6 C     42   6 C                                 1.4129689
    42   6 C     43   6 C                                 1.3641662
    43   6 C     44   6 C                                 1.4113578
    44   6 C     45  16 S                                 1.7412700
    44   6 C     46   6 C                                 1.3872257
    46   6 C     47   6 C                                 1.4067943
    47   6 C     48   6 C                                 1.3673507
    48   6 C     49   6 C                                 1.4098600
    46   6 C     50  16 S                                 1.7509258
    49   6 C     50  16 S                                 1.7448797
    49   6 C     51   6 C                                 1.3856634
    51   6 C     52   6 C                                 1.3861712
    52   6 C     53   6 C                                 1.3819547
    54   6 C     55   8 O                                 1.2142139
    56   6 C     57   6 C                                 1.3634232
    57   6 C     58   6 C                                 1.4139799
    58   6 C     59   6 C                                 1.4243167
    59   6 C     60   6 C                                 1.4080575
    60   6 C     61   6 C                                 1.3671155
    61   6 C     62   6 C                                 1.4004691
    58   6 C     63   6 C                                 1.4091388
    62   6 C     63   6 C                                 1.3676409
    59   6 C     65   6 C                                 1.4159689
    56   6 C     66   6 C                                 1.4240973
    65   6 C     66   6 C                                 1.3672744
    53   6 C     67   6 C                                 1.4336395
    67   6 C     68   6 C                                 1.3777181
    69   6 C     70   7 N                                 1.1493059
    71   6 C     72   7 N                                 1.1493372
     9   6 C     73   1 H                                 1.0783825
    12   6 C     74   1 H                                 1.0771431
    15   6 C     75   1 H                                 1.0746535
    20   6 C     76   1 H                                 1.0817075
    26   7 N     77   1 H                                 1.0102466 (min)
    31   6 C     78   1 H                                 1.0803351
    32   6 C     79   1 H                                 1.0800969
    33   6 C     80   1 H                                 1.0822791
    35   6 C     81   1 H                                 1.0900104
    35   6 C     82   1 H                                 1.0884173
    35   6 C     83   1 H                                 1.0874143
    36   6 C     84   1 H                                 1.0954886
    36   6 C     85   1 H                                 1.0911852
    37   7 N     86   1 H                                 1.0115359
    38   6 C     87   1 H                                 1.0816724
    39   6 C     88   1 H                                 1.0823170
    40   6 C     89   1 H                                 1.0820318
    42   6 C     90   1 H                                 1.0759101
    43   6 C     91   1 H                                 1.0749245
    47   6 C     92   1 H                                 1.0752744
    48   6 C     93   1 H                                 1.0752929
    51   6 C     94   1 H                                 1.0796456
    52   6 C     95   1 H                                 1.0869735
    57   6 C     96   1 H                                 1.0797892
    60   6 C     97   1 H                                 1.0788872
    62   6 C     98   1 H                                 1.0785261
    63   6 C     99   1 H                                 1.0798008
    65   6 C    100   1 H                                 1.0784017

 * 7 distinct bonds (by element types)

   Z      Z             #   av. dist./Å        max./Å        min./Å
   1 H    6 C          26     1.0814062     1.0954886     1.0746535
   6 C    6 C          44     1.3921886     1.4336395     1.3451378
   1 H    7 N           2     1.0108912     1.0115359     1.0102466
   6 C    7 N           8     1.2716192     1.4477490     1.1479209
   6 C    8 O           6     1.2578057     1.3624438     1.2017254
   6 C   16 S           5     1.7435710     1.7509258     1.7370202
   6 C   35 Br          1     1.8743962     1.8743962     1.8743962


optimized geometry written to: xtbopt.xyz


           -------------------------------------------------
          | TOTAL ENERGY             -190.384937416447 Eh   |
          | GRADIENT NORM               0.000462665808 Eh/α |
          | HOMO-LUMO GAP               0.183089410260 eV   |
           -------------------------------------------------

------------------------------------------------------------------------
 * finished run on 2021/06/06 at 17:06:10.904     
------------------------------------------------------------------------
 total:
 * wall-time:     0 d,  0 h,  0 min, 38.466 sec
 *  cpu-time:     0 d,  0 h,  7 min, 35.504 sec
 * ratio c/w:    11.842 speedup
 SCF:
 * wall-time:     0 d,  0 h,  0 min,  0.797 sec
 *  cpu-time:     0 d,  0 h,  0 min,  8.747 sec
 * ratio c/w:    10.976 speedup
 ANC optimizer:
 * wall-time:     0 d,  0 h,  0 min, 37.544 sec
 *  cpu-time:     0 d,  0 h,  7 min, 25.843 sec
 * ratio c/w:    11.875 speedup

