      -----------------------------------------------------------      
     |                   =====================                   |     
     |                           x T B                           |     
     |                   =====================                   |     
     |                         S. Grimme                         |     
     |          Mulliken Center for Theoretical Chemistry        |     
     |                    University of Bonn                     |     
     |                Version 6.2 RC2 (SAW190805)                |     
      -----------------------------------------------------------      

   This program is distributed in the hope that it will be useful,
   but WITHOUT ANY WARRANTY; without even the implied warranty of
   MERCHANTABILITY or FITNESS FOR A PARTICULAR PURPOSE.
   
   FOR NON-COMMERCIAL, ACADEMIA USE ONLY.
   
   Cite this work as:
   * S. Grimme, C. Bannwarth, P. Shushkov, J. Chem. Theory Comput., 2017,
     13, 1989-2009. DOI: 10.1021/acs.jctc.7b00118
   * C. Bannwarth, S. Ehlert and S. Grimme., J. Chem. Theory Comput., 2019,
     15, 1652-1671. DOI: 10.1021/acs.jctc.8b01176
   * P. Pracht, E. Caldeweyher, S. Ehlert, S. Grimme, ChemRxiv, 2019, preprint.
     DOI: 10.26434/chemrxiv.8326202.v1
   
   for DFT-D4:
   * E. Caldeweyher, C. Bannwarth and S. Grimme, J. Chem. Phys., 2017,
     147, 034112. DOI: 10.1063/1.4993215
   * E. Caldeweyher, S. Ehlert, A. Hansen, H. Neugebauer, S. Spicher,
     C. Bannwarth and S. Grimme, J. Chem. Phys., 2019, 150, 154122.
     DOI: 10.1063/1.5090222
   
   for sTDA-xTB:
   * S. Grimme and C. Bannwarth, J. Chem. Phys., 2016, 145, 054103.
     DOI: 10.1063/1.4959605
   
   in the mass-spec context:
   * V. Asgeirsson, C. Bauer and S. Grimme, Chem. Sci., 2017, 8, 4879.
     DOI: 10.1039/c7sc00601b
   
   for metadynamics refer to:
   * S. Grimme, J. Chem. Theory Comput., 2019, 155, 2847-2862
     DOI: 10.1021/acs.jctc.9b00143
   
   with help from (in alphabetical order)
   C. Bannwarth, F. Bohle, G. Brandenburg, E. Caldeweyher, M. Checinski,
   S. Dohm, S. Ehlert, S. Ehrlich, F. März, H. Neugebauer, J. Pisarek,
   P. Pracht, P. Shushkov, and S. Spicher.
   
 * started run on 2021/06/15 at 00:16:46.708     

           -------------------------------------------------
          |                Calculation Setup                |
           -------------------------------------------------

          program call               : /ihome/ghutchison/geoffh/xtb/xtb /ihome/ghutchison/blp62/GA/running_GA/sequence/generations/189/275_70_47_11_47_13020.xyz -opt
          hostname                   : smp-n171
          coordinate file            : /ihome/ghutchison/blp62/GA/running_GA/sequence/generations/189/275_70_47_11_47_13020.xyz
          omp threads                :                    12
          number of atoms            :                   140
          number of electrons        :                   428
          charge                     :                     0
          spin                       :                   0.0
          first test random number   :      0.13058768496846


########################################################################
# WARNING! Please study the warnings concerning your input carefully
#  - XTBPATH is not set, using XTBHOME instead
#  - the use of '-opt' is discouraged, please use '--opt' next time
########################################################################

           ------------------------------------------------- 
          |                 G F N 2 - x T B                 |
          | Geometry, Frequencies, Noncovalent interactions |
          |            JCTC 2019 parametrisation            |
           ------------------------------------------------- 
             KAB for C  - Si     :                1.0500
             KAB for H  - Pd     :                0.9500
             k(s)              :                1.8500
             k(p)              :                2.2300
             k(d)              :                2.2300
             k(f)              :                2.0000
             kEN (H0ij)        :               -2.0000
             D4 a1             :                0.5200
             D4 a2             :                5.0000
             D4 s6             :                1.0000
             D4 s8             :                2.7000
             D4 s9             :                5.0000
             alphaj            :                2.0000

  Z AO/shell   Hii/eV     exponent
  1     Wed Apr 25 08:07:45 CEST 2018   EN: 2.200 GM2: 0.406  GM3: 0.0800  RAES: 1.40
     1s    -10.707211    1.230000
  6     Wed Apr 25 08:07:45 CEST 2018   EN: 2.550 GM2: 0.538  GM3: 0.1500  RAES: 3.00
     2s    -13.970922    2.096432
     2p    -10.063292    1.800000
  7     Wed Apr 25 08:07:45 CEST 2018   EN: 3.040 GM2: 0.461  GM3:-0.0640  RAES: 1.90
     2s    -16.686243    2.339881
     2p    -12.523956    2.014332
  8     Wed Apr 25 08:07:45 CEST 2018   EN: 3.440 GM2: 0.452  GM3:-0.0517  RAES: 1.80
     2s    -20.229985    2.439742
     2p    -15.503117    2.137023
 16     Tue Apr 24 11:44:34 CEST 2018   EN: 2.580 GM2: 0.340  GM3:-0.0502  RAES: 3.10
     3s    -20.029654    1.981333
     3p    -11.377694    2.025643
     3d     -0.420282    1.702555
 35     Tue Apr 24 12:21:41 CEST 2018   EN: 2.960 GM2: 0.261  GM3: 0.1300  RAES: 4.00
     4s    -23.583718    2.077587
     4p    -12.588824    2.263120
     4d      0.047980    1.845038

           ------------------------------------------------- 
          |        Self-Consistent Charge Iterations        |
           ------------------------------------------------- 

          ...................................................
          :                      SETUP                      :
          :.................................................:
          :  # basis functions                 455          :
          :  # atomic orbitals                 447          :
          :  # shells                          237          :
          :  # electrons                       428          :
          :  max. iterations                   250          :
          :  Hamiltonian                  GFN2-xTB          :
          :  restarted?                      false          :
          :  GBSA solvation                  false          :
          :  PC potential                    false          :
          :  electronic temp.          300.0000000     K    :
          :  accuracy                    1.0000000          :
          :  -> integral cutoff          0.2500000E+02      :
          :  -> integral neglect         0.1000000E-07      :
          :  -> SCF convergence          0.1000000E-05 Eh   :
          :  -> wf. convergence          0.1000000E-03 e    :
          :  Broyden damping             0.4000000          :
          ...................................................

 iter      E             dE          RMSdq      gap      omega  full diag
   1   -233.0425354 -0.233043E+03  0.474E+00    1.12       0.0  T
   2   -233.1159860 -0.734506E-01  0.292E+00    0.83       1.0  T
   3   -232.6406550  0.475331E+00  0.210E+00    0.08       1.0  T
   4   -233.2274041 -0.586749E+00  0.639E-01    0.85       1.0  T
   5   -233.2683270 -0.409230E-01  0.286E-01    0.33       1.0  T
   6   -233.2735334 -0.520633E-02  0.134E-01    0.18       1.0  T
   7   -233.2746714 -0.113805E-02  0.671E-02    0.24       1.0  T
   8   -233.2747478 -0.763883E-04  0.521E-02    0.18       1.0  T
   9   -233.2750240 -0.276154E-03  0.329E-02    0.22       1.0  T
  10   -233.2750908 -0.668211E-04  0.232E-02    0.20       1.0  T
  11   -233.2751040 -0.131781E-04  0.169E-02    0.21       1.0  T
  12   -233.2751139 -0.992664E-05  0.122E-02    0.20       1.0  T
  13   -233.2751257 -0.118288E-04  0.783E-03    0.21       1.1  T
  14   -233.2751280 -0.223130E-05  0.480E-03    0.20       1.8  T
  15   -233.2751312 -0.326043E-05  0.209E-03    0.20       4.0  T
  16   -233.2751315 -0.316210E-06  0.108E-03    0.20       7.9  T
  17   -233.2751316 -0.405929E-07  0.673E-04    0.20      12.6  T
  18   -233.2751316  0.264535E-08  0.478E-04    0.20      17.7  T

   *** convergence criteria satisfied after 18 iterations ***

         #    Occupation            Energy/Eh            Energy/eV
      -------------------------------------------------------------
         1        2.0000           -0.8620236             -23.4569
       ...           ...                  ...                  ...
       208        2.0000           -0.3854045             -10.4874
       209        2.0000           -0.3834159             -10.4333
       210        2.0000           -0.3828082             -10.4167
       211        2.0000           -0.3737210             -10.1695
       212        2.0000           -0.3530777              -9.6077
       213        2.0000           -0.3488372              -9.4923
       214        1.9615           -0.3406448              -9.2694 (HOMO)
       215        0.0385           -0.3331782              -9.0662 (LUMO)
       216                         -0.3156975              -8.5906
       217                         -0.3061816              -8.3316
       218                         -0.2993812              -8.1466
       219                         -0.2855081              -7.7691
       ...                                ...                  ...
       447                          1.0896824              29.6518
      -------------------------------------------------------------
                  HL-Gap            0.0074666 Eh            0.2032 eV
             Fermi-level           -0.3369114 Eh           -9.1678 eV

 SCC (total)                   0 d,  0 h,  0 min,  4.525 sec
 SCC setup                      ...        0 min,  0.004 sec (  0.082%)
 Dispersion                     ...        0 min,  0.007 sec (  0.154%)
 integral evaluation            ...        0 min,  0.121 sec (  2.665%)
 zeroth order Hamiltonian       ...        0 min,  0.002 sec (  0.037%)
 iterations                     ...        0 min,  4.242 sec ( 93.750%)
 molecular gradient             ...        0 min,  0.137 sec (  3.022%)
 printout                       ...        0 min,  0.013 sec (  0.286%)

         :::::::::::::::::::::::::::::::::::::::::::::::::::::
         ::                     SUMMARY                     ::
         :::::::::::::::::::::::::::::::::::::::::::::::::::::
         :: total energy            -229.511108769774 Eh    ::
         :: gradient norm              0.232557988259 Eh/a0 ::
         :: HOMO-LUMO gap              0.203176986422 eV    ::
         ::.................................................::
         :: SCC energy              -233.275131567797 Eh    ::
         :: -> isotropic ES            0.055647862244 Eh    ::
         :: -> anisotropic ES          0.022516068101 Eh    ::
         :: -> anisotropic XC          0.144717646131 Eh    ::
         :: -> dispersion             -0.217240852524 Eh    ::
         :: repulsion energy           3.764488744360 Eh    ::
         :: add. restraining           0.000000000000 Eh    ::
         :::::::::::::::::::::::::::::::::::::::::::::::::::::

      ----------------------------------------------------------- 
     |                   =====================                   |
     |                        A N C O P T                        |
     |                   =====================                   |
     |               Approximate Normal Coordinate               |
     |                Rational Function Optimizer                |
      ----------------------------------------------------------- 

          ...................................................
          :                      SETUP                      :
          :.................................................:
          :   optimization level            normal          :
          :   max. optcycles                   420          :
          :   ANC micro-cycles                  20          :
          :   degrees of freedom               414          :
          :.................................................:
          :   RF solver                   davidson          :
          :   input Hessian                  false          :
          :   write xtbopt.log                true          :
          :   linear?                        false          :
          :   energy convergence         0.5000000E-05 Eh   :
          :   grad. convergence          0.1000000E-02 Eh/α :
          :   maximium RF displ.         2.0000000          :
          :   Hlow (freq-cutoff)         0.5000000E-02      :
          :   Hmax (freq-cutoff)         5.0000000          :
          :   S6 in model hess.         20.0000000          :
          ...................................................

generating ANC from model Hessian ...
Using Lindh-Hessian (1995)
 Shifting diagonal of input Hessian by   5.215652794866361E-003
 Lowest  eigenvalues of input Hessian
    0.005000    0.005182   -0.000000   -0.000000   -0.000000    0.000000
    0.000000    0.000000    0.005223    0.005235    0.005255    0.005278
    0.005285    0.005310    0.005334    0.005379    0.005432    0.005453
 Highest eigenvalues
    2.069901    2.109587    2.134289    2.258082    2.433495    2.565002
 

........................................................................
.............................. CYCLE    1 ..............................
........................................................................
   1   -233.2751316 -0.233275E+03  0.214E-04    0.20       0.0  T
   2   -233.2751316  0.948717E-09  0.185E-04    0.20      45.7  T
   3   -233.2751316 -0.163234E-08  0.140E-04    0.20      60.6  T
     SCC iter.                  ...        0 min,  0.696 sec
     gradient                   ...        0 min,  0.137 sec
 * total energy  :  -229.5111087 Eh     change        0.3924401E-07 Eh
   gradient norm :     0.2325573 Eh/α   predicted     0.0000000E+00 (-100.00%)
   displ. norm   :     0.5103416 α      lambda       -0.6340589E-01
   maximum displ.:     0.1363037 α      in ANC's #49, #77, #210, ...

........................................................................
.............................. CYCLE    2 ..............................
........................................................................
   1   -233.3826248 -0.233383E+03  0.327E-01    0.22       0.0  T
   2   -233.3829222 -0.297441E-03  0.173E-01    0.20       1.0  T
   3   -233.3810810  0.184118E-02  0.124E-01    0.19       1.0  T
   4   -233.3832586 -0.217754E-02  0.458E-02    0.22       1.0  T
   5   -233.3834333 -0.174723E-03  0.269E-02    0.20       1.0  T
   6   -233.3834934 -0.601227E-04  0.113E-02    0.20       1.0  T
   7   -233.3835068 -0.133552E-04  0.432E-03    0.21       2.0  T
   8   -233.3835085 -0.175359E-05  0.259E-03    0.20       3.3  T
   9   -233.3835094 -0.881757E-06  0.147E-03    0.21       5.7  T
     SCC iter.                  ...        0 min,  2.847 sec
     gradient                   ...        0 min,  0.096 sec
 * total energy  :  -229.5557961 Eh     change       -0.4468738E-01 Eh
   gradient norm :     0.0869066 Eh/α   predicted    -0.3996096E-01 ( -10.58%)
   displ. norm   :     0.6045867 α      lambda       -0.2640198E-01
   maximum displ.:     0.2353545 α      in ANC's #49, #77, #81, ...

........................................................................
.............................. CYCLE    3 ..............................
........................................................................
   1   -233.4350908 -0.233435E+03  0.284E-01    0.15       0.0  T
   2   -233.4347548  0.336027E-03  0.154E-01    0.33       1.0  T
   3   -233.3324320  0.102323E+00  0.471E-01    0.01       1.0  T
   4   -233.4341167 -0.101685E+00  0.901E-02    0.49       1.0  T
   5   -233.4353214 -0.120474E-02  0.594E-02    0.41       1.0  T
   6   -233.4352975  0.239289E-04  0.498E-02    0.38       1.0  T
   7   -233.4355064 -0.208914E-03  0.446E-02    0.34       1.0  T
   8   -233.4356495 -0.143117E-03  0.371E-02    0.31       1.0  T
   9   -233.4357924 -0.142835E-03  0.286E-02    0.27       1.0  T
  10   -233.4359755 -0.183142E-03  0.178E-02    0.23       1.0  T
  11   -233.4360873 -0.111783E-03  0.410E-03    0.20       2.1  T
  12   -233.4360882 -0.935758E-06  0.321E-03    0.19       2.6  T
  13   -233.4360914 -0.319863E-05  0.104E-03    0.19       8.1  T
     SCC iter.                  ...        0 min,  3.870 sec
     gradient                   ...        0 min,  0.125 sec
 * total energy  :  -229.5745863 Eh     change       -0.1879014E-01 Eh
   gradient norm :     0.0327514 Eh/α   predicted    -0.1802629E-01 (  -4.07%)
   displ. norm   :     0.6706353 α      lambda       -0.1224045E-01
   maximum displ.:     0.2815780 α      in ANC's #49, #77, #13, ...

........................................................................
.............................. CYCLE    4 ..............................
........................................................................
   1   -233.4670972 -0.233467E+03  0.208E-01    0.15       0.0  T
   2   -233.4667037  0.393489E-03  0.114E-01    0.28       1.0  T
   3   -233.3054337  0.161270E+00  0.578E-01    0.02       1.0  T
   4   -233.4662692 -0.160835E+00  0.678E-02    0.36       1.0  T
   5   -233.4667557 -0.486493E-03  0.490E-02    0.33       1.0  T
   6   -233.4668521 -0.964570E-04  0.447E-02    0.31       1.0  T
   7   -233.4669567 -0.104606E-03  0.373E-02    0.29       1.0  T
   8   -233.4671077 -0.151012E-03  0.327E-02    0.26       1.0  T
   9   -233.4671998 -0.921128E-04  0.269E-02    0.24       1.0  T
  10   -233.4673252 -0.125319E-03  0.205E-02    0.22       1.0  T
  11   -233.4674169 -0.917276E-04  0.132E-02    0.21       1.0  T
  12   -233.4674810 -0.641132E-04  0.402E-03    0.19       2.1  T
  13   -233.4674868 -0.575306E-05  0.118E-03    0.18       7.1  T
  14   -233.4674869 -0.992580E-07  0.792E-04    0.18      10.7  T
     SCC iter.                  ...        0 min,  3.080 sec
     gradient                   ...        0 min,  0.164 sec
 * total energy  :  -229.5841327 Eh     change       -0.9546486E-02 Eh
   gradient norm :     0.0213839 Eh/α   predicted    -0.8872815E-02 (  -7.06%)
   displ. norm   :     0.7508507 α      lambda       -0.9230409E-02
   maximum displ.:     0.2956792 α      in ANC's #49, #13, #77, ...

........................................................................
.............................. CYCLE    5 ..............................
........................................................................
   1   -233.4820088 -0.233482E+03  0.252E-01    0.14       0.0  T
   2   -233.4813456  0.663170E-03  0.145E-01    0.32       1.0  T
   3   -233.1232914  0.358054E+00  0.854E-01    0.09       1.0  T
   4   -233.4810447 -0.357753E+00  0.894E-02    0.41       1.0  T
   5   -233.4813840 -0.339273E-03  0.651E-02    0.41       1.0  T
   6   -233.4816033 -0.219339E-03  0.611E-02    0.38       1.0  T
   7   -233.4817742 -0.170925E-03  0.528E-02    0.35       1.0  T
   8   -233.4819096 -0.135332E-03  0.489E-02    0.32       1.0  T
   9   -233.4819985 -0.889846E-04  0.443E-02    0.30       1.0  T
  10   -233.4821358 -0.137239E-03  0.397E-02    0.27       1.0  T
  11   -233.4823153 -0.179565E-03  0.322E-02    0.24       1.0  T
  12   -233.4824978 -0.182469E-03  0.232E-02    0.22       1.0  T
  13   -233.4826710 -0.173182E-03  0.108E-02    0.19       1.0  T
  14   -233.4827071 -0.361422E-04  0.476E-03    0.18       1.8  T
  15   -233.4827095 -0.237644E-05  0.412E-03    0.18       2.1  T
  16   -233.4827145 -0.493541E-05  0.224E-03    0.18       3.8  T
     SCC iter.                  ...        0 min,  3.094 sec
     gradient                   ...        0 min,  0.084 sec
 * total energy  :  -229.5898356 Eh     change       -0.5702849E-02 Eh
   gradient norm :     0.0342909 Eh/α   predicted    -0.7217154E-02 (  26.55%)
   displ. norm   :     0.6894927 α      lambda       -0.8221065E-02
   maximum displ.:     0.2228921 α      in ANC's #49, #13, #12, ...

........................................................................
.............................. CYCLE    6 ..............................
........................................................................
   1   -233.4979613 -0.233498E+03  0.237E-01    0.17       0.0  T
   2   -233.4979453  0.160345E-04  0.130E-01    0.20       1.0  T
   3   -233.4341290  0.638163E-01  0.361E-01    0.03       1.0  T
   4   -233.4973591 -0.632301E-01  0.516E-02    0.25       1.0  T
   5   -233.4977257 -0.366647E-03  0.356E-02    0.23       1.0  T
   6   -233.4979115 -0.185745E-03  0.260E-02    0.21       1.0  T
   7   -233.4979911 -0.795859E-04  0.175E-02    0.20       1.0  T
   8   -233.4980706 -0.795673E-04  0.124E-02    0.19       1.0  T
   9   -233.4980957 -0.251246E-04  0.858E-03    0.19       1.0  T
  10   -233.4981149 -0.191160E-04  0.549E-03    0.18       1.5  T
  11   -233.4981256 -0.107353E-04  0.190E-03    0.18       4.4  T
  12   -233.4981267 -0.114798E-05  0.415E-04    0.17      20.4  T
  13   -233.4981267  0.637173E-07  0.482E-04    0.17      17.5  T
     SCC iter.                  ...        0 min,  2.627 sec
     gradient                   ...        0 min,  0.095 sec
 * total energy  :  -229.5946477 Eh     change       -0.4812085E-02 Eh
   gradient norm :     0.0279203 Eh/α   predicted    -0.6064684E-02 (  26.03%)
   displ. norm   :     0.5866746 α      lambda       -0.3742751E-02
   maximum displ.:     0.2268095 α      in ANC's #13, #12, #31, ...

........................................................................
.............................. CYCLE    7 ..............................
........................................................................
   1   -233.5002014 -0.233500E+03  0.168E-01    0.17       0.0  T
   2   -233.5001389  0.624662E-04  0.904E-02    0.19       1.0  T
   3   -233.4616454  0.384935E-01  0.277E-01    0.05       1.0  T
   4   -233.4999688 -0.383234E-01  0.375E-02    0.21       1.0  T
   5   -233.5000709 -0.102032E-03  0.245E-02    0.20       1.0  T
   6   -233.5001443 -0.734704E-04  0.196E-02    0.20       1.0  T
   7   -233.5002353 -0.909496E-04  0.871E-03    0.19       1.0  T
   8   -233.5002492 -0.139577E-04  0.640E-03    0.18       1.3  T
   9   -233.5002554 -0.617449E-05  0.472E-03    0.18       1.8  T
  10   -233.5002626 -0.720615E-05  0.253E-03    0.18       3.3  T
  11   -233.5002647 -0.208399E-05  0.861E-04    0.17       9.8  T
  12   -233.5002650 -0.284526E-06  0.228E-04    0.17      37.0  T
     SCC iter.                  ...        0 min,  2.402 sec
     gradient                   ...        0 min,  0.090 sec
 * total energy  :  -229.5977686 Eh     change       -0.3120883E-02 Eh
   gradient norm :     0.0224892 Eh/α   predicted    -0.2515493E-02 ( -19.40%)
   displ. norm   :     0.7593510 α      lambda       -0.4859656E-02
   maximum displ.:     0.2907173 α      in ANC's #13, #12, #31, ...

........................................................................
.............................. CYCLE    8 ..............................
........................................................................
   1   -233.5081272 -0.233508E+03  0.241E-01    0.18       0.0  T
   2   -233.5081966 -0.693371E-04  0.129E-01    0.17       1.0  T
   3   -233.5075393  0.657209E-03  0.543E-02    0.22       1.0  T
   4   -233.5079770 -0.437697E-03  0.293E-02    0.15       1.0  T
   5   -233.5080771 -0.100011E-03  0.218E-02    0.20       1.0  T
   6   -233.5082279 -0.150853E-03  0.106E-02    0.17       1.0  T
   7   -233.5082479 -0.200053E-04  0.426E-03    0.18       2.0  T
   8   -233.5082532 -0.530063E-05  0.152E-03    0.17       5.6  T
   9   -233.5082535 -0.256611E-06  0.810E-04    0.17      10.4  T
     SCC iter.                  ...        0 min,  1.339 sec
     gradient                   ...        0 min,  0.056 sec
 * total energy  :  -229.6009690 Eh     change       -0.3200474E-02 Eh
   gradient norm :     0.0215067 Eh/α   predicted    -0.3830903E-02 (  19.70%)
   displ. norm   :     0.6799350 α      lambda       -0.3540389E-02
   maximum displ.:     0.2504264 α      in ANC's #13, #12, #17, ...

........................................................................
.............................. CYCLE    9 ..............................
........................................................................
   1   -233.5097307 -0.233510E+03  0.209E-01    0.18       0.0  T
   2   -233.5097551 -0.243602E-04  0.111E-01    0.16       1.0  T
   3   -233.5090769  0.678165E-03  0.551E-02    0.25       1.0  T
   4   -233.5097111 -0.634205E-03  0.219E-02    0.16       1.0  T
   5   -233.5097321 -0.210180E-04  0.170E-02    0.19       1.0  T
   6   -233.5097742 -0.421359E-04  0.942E-03    0.16       1.0  T
   7   -233.5098128 -0.385683E-04  0.330E-03    0.17       2.6  T
   8   -233.5098149 -0.203443E-05  0.141E-03    0.17       6.0  T
   9   -233.5098152 -0.306538E-06  0.760E-04    0.17      11.1  T
     SCC iter.                  ...        0 min,  1.681 sec
     gradient                   ...        0 min,  0.125 sec
 * total energy  :  -229.6037808 Eh     change       -0.2811789E-02 Eh
   gradient norm :     0.0210174 Eh/α   predicted    -0.2588577E-02 (  -7.94%)
   displ. norm   :     0.7406953 α      lambda       -0.3015237E-02
   maximum displ.:     0.2735304 α      in ANC's #13, #12, #31, ...

........................................................................
.............................. CYCLE   10 ..............................
........................................................................
   1   -233.5089511 -0.233509E+03  0.232E-01    0.17       0.0  T
   2   -233.5089842 -0.331136E-04  0.120E-01    0.18       1.0  T
   3   -233.5016992  0.728498E-02  0.125E-01    0.09       1.0  T
   4   -233.5087856 -0.708639E-02  0.306E-02    0.21       1.0  T
   5   -233.5088786 -0.929511E-04  0.285E-02    0.18       1.0  T
   6   -233.5089963 -0.117704E-03  0.136E-02    0.18       1.0  T
   7   -233.5090247 -0.283939E-04  0.648E-03    0.18       1.3  T
   8   -233.5090394 -0.147424E-04  0.372E-03    0.18       2.3  T
   9   -233.5090428 -0.337453E-05  0.185E-03    0.17       4.6  T
  10   -233.5090439 -0.111096E-05  0.727E-04    0.17      11.6  T
     SCC iter.                  ...        0 min,  1.649 sec
     gradient                   ...        0 min,  0.155 sec
 * total energy  :  -229.6063117 Eh     change       -0.2530833E-02 Eh
   gradient norm :     0.0154400 Eh/α   predicted    -0.2334747E-02 (  -7.75%)
   displ. norm   :     0.7679670 α      lambda       -0.2795242E-02
   maximum displ.:     0.2741309 α      in ANC's #13, #12, #14, ...

........................................................................
.............................. CYCLE   11 ..............................
........................................................................
   1   -233.5154401 -0.233515E+03  0.239E-01    0.17       0.0  T
   2   -233.5154501 -0.994435E-05  0.124E-01    0.18       1.0  T
   3   -233.5064056  0.904445E-02  0.140E-01    0.09       1.0  T
   4   -233.5150101 -0.860447E-02  0.435E-02    0.23       1.0  T
   5   -233.5153854 -0.375332E-03  0.275E-02    0.19       1.0  T
   6   -233.5154809 -0.954536E-04  0.123E-02    0.19       1.0  T
   7   -233.5155253 -0.444450E-04  0.486E-03    0.18       1.7  T
   8   -233.5155313 -0.603361E-05  0.268E-03    0.17       3.2  T
   9   -233.5155340 -0.269994E-05  0.744E-04    0.17      11.4  T
  10   -233.5155341 -0.208721E-07  0.506E-04    0.17      16.7  T
     SCC iter.                  ...        0 min,  2.017 sec
     gradient                   ...        0 min,  0.090 sec
 * total energy  :  -229.6086429 Eh     change       -0.2331218E-02 Eh
   gradient norm :     0.0155215 Eh/α   predicted    -0.2221901E-02 (  -4.69%)
   displ. norm   :     0.8308370 α      lambda       -0.2799097E-02
   maximum displ.:     0.2606359 α      in ANC's #13, #12, #14, ...

........................................................................
.............................. CYCLE   12 ..............................
........................................................................
   1   -233.5117772 -0.233512E+03  0.253E-01    0.16       0.0  T
   2   -233.5115531  0.224074E-03  0.135E-01    0.21       1.0  T
   3   -233.2892688  0.222284E+00  0.691E-01    0.04       1.0  T
   4   -233.5100965 -0.220828E+00  0.813E-02    0.27       1.0  T
   5   -233.5113965 -0.130006E-02  0.437E-02    0.23       1.0  T
   6   -233.5114994 -0.102899E-03  0.348E-02    0.22       1.0  T
   7   -233.5116493 -0.149825E-03  0.263E-02    0.21       1.0  T
   8   -233.5117625 -0.113250E-03  0.209E-02    0.20       1.0  T
   9   -233.5118108 -0.482638E-04  0.175E-02    0.19       1.0  T
  10   -233.5118491 -0.382692E-04  0.144E-02    0.19       1.0  T
  11   -233.5119118 -0.627834E-04  0.790E-03    0.18       1.1  T
  12   -233.5119345 -0.227046E-04  0.238E-03    0.17       3.5  T
  13   -233.5119367 -0.212417E-05  0.718E-04    0.17      11.8  T
  14   -233.5119368 -0.116128E-06  0.297E-04    0.17      28.4  T
     SCC iter.                  ...        0 min,  2.744 sec
     gradient                   ...        0 min,  0.125 sec
 * total energy  :  -229.6104685 Eh     change       -0.1825609E-02 Eh
   gradient norm :     0.0193517 Eh/α   predicted    -0.2365642E-02 (  29.58%)
   displ. norm   :     0.6560413 α      lambda       -0.2160639E-02
   maximum displ.:     0.2121914 α      in ANC's #13, #14, #12, ...

........................................................................
.............................. CYCLE   13 ..............................
........................................................................
   1   -233.5121224 -0.233512E+03  0.209E-01    0.16       0.0  T
   2   -233.5120987  0.237630E-04  0.110E-01    0.18       1.0  T
   3   -233.5058641  0.623454E-02  0.131E-01    0.10       1.0  T
   4   -233.5116034 -0.573925E-02  0.428E-02    0.23       1.0  T
   5   -233.5121739 -0.570530E-03  0.185E-02    0.17       1.0  T
   6   -233.5121875 -0.135948E-04  0.928E-03    0.17       1.0  T
   7   -233.5122079 -0.204137E-04  0.267E-03    0.16       3.2  T
   8   -233.5122104 -0.249117E-05  0.104E-03    0.17       8.2  T
   9   -233.5122105 -0.136529E-06  0.607E-04    0.17      13.9  T
     SCC iter.                  ...        0 min,  1.921 sec
     gradient                   ...        0 min,  0.161 sec
 * total energy  :  -229.6121047 Eh     change       -0.1636248E-02 Eh
   gradient norm :     0.0118611 Eh/α   predicted    -0.1545286E-02 (  -5.56%)
   displ. norm   :     0.6896160 α      lambda       -0.1708636E-02
   maximum displ.:     0.2289275 α      in ANC's #14, #12, #15, ...

........................................................................
.............................. CYCLE   14 ..............................
........................................................................
   1   -233.5215321 -0.233522E+03  0.201E-01    0.16       0.0  T
   2   -233.5215398 -0.779523E-05  0.105E-01    0.18       1.0  T
   3   -233.5105829  0.109570E-01  0.149E-01    0.08       1.0  T
   4   -233.5212939 -0.107110E-01  0.347E-02    0.20       1.0  T
   5   -233.5214269 -0.133071E-03  0.242E-02    0.19       1.0  T
   6   -233.5215148 -0.878970E-04  0.184E-02    0.18       1.0  T
   7   -233.5215724 -0.575972E-04  0.838E-03    0.18       1.0  T
   8   -233.5215895 -0.170667E-04  0.541E-03    0.17       1.6  T
   9   -233.5215966 -0.713486E-05  0.331E-03    0.17       2.5  T
  10   -233.5216003 -0.366949E-05  0.125E-03    0.17       6.8  T
  11   -233.5216007 -0.460158E-06  0.361E-04    0.17      23.4  T
  12   -233.5216008 -0.668607E-08  0.182E-04    0.17      46.5  T
     SCC iter.                  ...        0 min,  2.029 sec
     gradient                   ...        0 min,  0.093 sec
 * total energy  :  -229.6133210 Eh     change       -0.1216264E-02 Eh
   gradient norm :     0.0117378 Eh/α   predicted    -0.1260612E-02 (   3.65%)
   displ. norm   :     0.7644849 α      lambda       -0.1461950E-02
   maximum displ.:     0.2383324 α      in ANC's #14, #12, #13, ...

........................................................................
.............................. CYCLE   15 ..............................
........................................................................
   1   -233.5124022 -0.233512E+03  0.229E-01    0.16       0.0  T
   2   -233.5124045 -0.225316E-05  0.120E-01    0.18       1.0  T
   3   -233.4889271  0.234774E-01  0.223E-01    0.06       1.0  T
   4   -233.5122321 -0.233051E-01  0.319E-02    0.20       1.0  T
   5   -233.5123409 -0.108767E-03  0.268E-02    0.19       1.0  T
   6   -233.5123845 -0.435716E-04  0.182E-02    0.18       1.0  T
   7   -233.5124638 -0.793543E-04  0.820E-03    0.18       1.0  T
   8   -233.5124752 -0.113826E-04  0.585E-03    0.17       1.4  T
   9   -233.5124856 -0.104397E-04  0.316E-03    0.17       2.7  T
  10   -233.5124892 -0.355164E-05  0.111E-03    0.17       7.6  T
  11   -233.5124896 -0.393613E-06  0.318E-04    0.17      26.6  T
  12   -233.5124896  0.663113E-08  0.333E-04    0.17      25.3  T
     SCC iter.                  ...        0 min,  2.109 sec
     gradient                   ...        0 min,  0.083 sec
 * total energy  :  -229.6143963 Eh     change       -0.1075321E-02 Eh
   gradient norm :     0.0112668 Eh/α   predicted    -0.1158186E-02 (   7.71%)
   displ. norm   :     0.6436676 α      lambda       -0.1148028E-02
   maximum displ.:     0.2261575 α      in ANC's #14, #15, #12, ...

........................................................................
.............................. CYCLE   16 ..............................
........................................................................
   1   -233.5220551 -0.233522E+03  0.179E-01    0.17       0.0  T
   2   -233.5220856 -0.304109E-04  0.935E-02    0.17       1.0  T
   3   -233.5215567  0.528843E-03  0.512E-02    0.19       1.0  T
   4   -233.5219767 -0.419986E-03  0.234E-02    0.16       1.0  T
   5   -233.5219655  0.111681E-04  0.200E-02    0.19       1.0  T
   6   -233.5220553 -0.897352E-04  0.139E-02    0.16       1.0  T
   7   -233.5221104 -0.551390E-04  0.410E-03    0.17       2.1  T
   8   -233.5221156 -0.517230E-05  0.193E-03    0.17       4.4  T
   9   -233.5221162 -0.606584E-06  0.796E-04    0.17      10.6  T
  10   -233.5221162 -0.118856E-07  0.538E-04    0.17      15.7  T
     SCC iter.                  ...        0 min,  2.506 sec
     gradient                   ...        0 min,  0.085 sec
 * total energy  :  -229.6150556 Eh     change       -0.6593190E-03 Eh
   gradient norm :     0.0153960 Eh/α   predicted    -0.8118326E-03 (  23.13%)
   displ. norm   :     0.5803230 α      lambda       -0.1201740E-02
   maximum displ.:     0.2061902 α      in ANC's #14, #15, #12, ...

........................................................................
.............................. CYCLE   17 ..............................
........................................................................
   1   -233.5340004 -0.233534E+03  0.150E-01    0.17       0.0  T
   2   -233.5339315  0.688644E-04  0.805E-02    0.19       1.0  T
   3   -233.4989364  0.349951E-01  0.266E-01    0.05       1.0  T
   4   -233.5336444 -0.347080E-01  0.445E-02    0.21       1.0  T
   5   -233.5338495 -0.205093E-03  0.246E-02    0.20       1.0  T
   6   -233.5339240 -0.744774E-04  0.196E-02    0.19       1.0  T
   7   -233.5340188 -0.948340E-04  0.986E-03    0.18       1.0  T
   8   -233.5340331 -0.142886E-04  0.703E-03    0.18       1.2  T
   9   -233.5340423 -0.918443E-05  0.496E-03    0.18       1.7  T
  10   -233.5340493 -0.700915E-05  0.261E-03    0.17       3.2  T
  11   -233.5340516 -0.230100E-05  0.829E-04    0.17      10.2  T
  12   -233.5340518 -0.199081E-06  0.269E-04    0.17      31.5  T
     SCC iter.                  ...        0 min,  2.944 sec
     gradient                   ...        0 min,  0.141 sec
 * total energy  :  -229.6156845 Eh     change       -0.6288199E-03 Eh
   gradient norm :     0.0166589 Eh/α   predicted    -0.8032277E-03 (  27.74%)
   displ. norm   :     0.5671640 α      lambda       -0.1096223E-02
   maximum displ.:     0.1748573 α      in ANC's #14, #15, #12, ...

........................................................................
.............................. CYCLE   18 ..............................
........................................................................
   1   -233.5140724 -0.233514E+03  0.167E-01    0.16       0.0  T
   2   -233.5139593  0.113043E-03  0.904E-02    0.20       1.0  T
   3   -233.4336785  0.802809E-01  0.411E-01    0.03       1.0  T
   4   -233.5135639 -0.798855E-01  0.450E-02    0.23       1.0  T
   5   -233.5138079 -0.243932E-03  0.321E-02    0.21       1.0  T
   6   -233.5139840 -0.176143E-03  0.235E-02    0.20       1.0  T
   7   -233.5140492 -0.652257E-04  0.155E-02    0.19       1.0  T
   8   -233.5140985 -0.492122E-04  0.121E-02    0.19       1.0  T
   9   -233.5141218 -0.233690E-04  0.879E-03    0.18       1.0  T
  10   -233.5141372 -0.153542E-04  0.602E-03    0.18       1.4  T
  11   -233.5141488 -0.115668E-04  0.295E-03    0.18       2.9  T
  12   -233.5141518 -0.309185E-05  0.789E-04    0.17      10.7  T
  13   -233.5141521 -0.215385E-06  0.228E-04    0.17      37.0  T
  14   -233.5141521  0.315521E-08  0.196E-04    0.17      43.2  T
     SCC iter.                  ...        0 min,  3.081 sec
     gradient                   ...        0 min,  0.109 sec
 * total energy  :  -229.6159459 Eh     change       -0.2614039E-03 Eh
   gradient norm :     0.0203830 Eh/α   predicted    -0.7244300E-03 ( 177.13%)
   displ. norm   :     0.3154496 α      lambda       -0.1008443E-02
   maximum displ.:     0.1087772 α      in ANC's #14, #15, #21, ...

........................................................................
.............................. CYCLE   19 ..............................
........................................................................
   1   -233.5215120 -0.233522E+03  0.849E-02    0.17       0.0  T
   2   -233.5215139 -0.190593E-05  0.447E-02    0.18       1.0  T
   3   -233.5209695  0.544437E-03  0.458E-02    0.15       1.0  T
   4   -233.5214666 -0.497062E-03  0.149E-02    0.19       1.0  T
   5   -233.5214866 -0.199801E-04  0.116E-02    0.16       1.0  T
   6   -233.5215158 -0.292477E-04  0.691E-03    0.18       1.2  T
   7   -233.5215318 -0.159737E-04  0.286E-03    0.17       3.0  T
   8   -233.5215332 -0.138635E-05  0.112E-03    0.17       7.6  T
   9   -233.5215333 -0.126387E-06  0.570E-04    0.17      14.8  T
     SCC iter.                  ...        0 min,  1.998 sec
     gradient                   ...        0 min,  0.078 sec
 * total energy  :  -229.6165101 Eh     change       -0.5642407E-03 Eh
   gradient norm :     0.0114109 Eh/α   predicted    -0.5544021E-03 (  -1.74%)
   displ. norm   :     0.3937816 α      lambda       -0.8108640E-03
   maximum displ.:     0.1355499 α      in ANC's #14, #21, #15, ...

........................................................................
.............................. CYCLE   20 ..............................
........................................................................
   1   -233.5337567 -0.233534E+03  0.121E-01    0.18       0.0  T
   2   -233.5337678 -0.111528E-04  0.617E-02    0.19       1.0  T
   3   -233.5323356  0.143220E-02  0.605E-02    0.13       1.0  T
   4   -233.5335515 -0.121586E-02  0.266E-02    0.22       1.0  T
   5   -233.5337884 -0.236893E-03  0.106E-02    0.18       1.0  T
   6   -233.5337766  0.117625E-04  0.105E-02    0.19       1.0  T
   7   -233.5338017 -0.250411E-04  0.300E-03    0.18       2.8  T
   8   -233.5338032 -0.152281E-05  0.131E-03    0.18       6.5  T
   9   -233.5338034 -0.224618E-06  0.823E-04    0.18      10.3  T
     SCC iter.                  ...        0 min,  4.012 sec
     gradient                   ...        0 min,  0.222 sec
 * total energy  :  -229.6167452 Eh     change       -0.2350602E-03 Eh
   gradient norm :     0.0158337 Eh/α   predicted    -0.4683007E-03 (  99.23%)
   displ. norm   :     0.4244383 α      lambda       -0.7911664E-03
   maximum displ.:     0.1350154 α      in ANC's #21, #14, #15, ...
 * RMSD in coord.:     0.8878300 α      energy gain  -0.1056364E+00 Eh

generating ANC from model Hessian ...
Using Lindh-Hessian (1995)
 Shifting diagonal of input Hessian by   5.019297536583030E-003
 Lowest  eigenvalues of input Hessian
    0.005000   -0.000000   -0.000000    0.000000    0.000000    0.000000
    0.000000    0.005028    0.005035    0.005043    0.005068    0.005086
    0.005133    0.005154    0.005161    0.005194    0.005275    0.005415
 Highest eigenvalues
    2.093155    2.096466    2.131787    2.284019    2.607635    2.647776
 

........................................................................
.............................. CYCLE   21 ..............................
........................................................................
   1   -233.5346466 -0.233535E+03  0.115E-01    0.18       0.0  T
   2   -233.5346039  0.426451E-04  0.622E-02    0.20       1.0  T
   3   -233.5239018  0.107022E-01  0.151E-01    0.09       1.0  T
   4   -233.5344258 -0.105240E-01  0.297E-02    0.22       1.0  T
   5   -233.5345936 -0.167782E-03  0.182E-02    0.20       1.0  T
   6   -233.5346361 -0.425065E-04  0.126E-02    0.20       1.0  T
   7   -233.5346765 -0.403438E-04  0.457E-03    0.19       1.9  T
   8   -233.5346820 -0.555862E-05  0.264E-03    0.18       3.2  T
   9   -233.5346828 -0.794876E-06  0.151E-03    0.18       5.6  T
  10   -233.5346832 -0.406163E-06  0.775E-04    0.18      10.9  T
  11   -233.5346833 -0.627198E-07  0.408E-04    0.18      20.7  T
     SCC iter.                  ...        0 min,  1.712 sec
     gradient                   ...        0 min,  0.251 sec
 * total energy  :  -229.6172316 Eh     change       -0.4864746E-03 Eh
   gradient norm :     0.0118343 Eh/α   predicted     0.0000000E+00 (-100.00%)
   displ. norm   :     0.1722276 α      lambda       -0.4609814E-03
   maximum displ.:     0.0500494 α      in ANC's #13, #21, #16, ...

........................................................................
.............................. CYCLE   22 ..............................
........................................................................
   1   -233.5284612 -0.233528E+03  0.690E-02    0.18       0.0  T
   2   -233.5284451  0.160792E-04  0.371E-02    0.20       1.0  T
   3   -233.5263473  0.209774E-02  0.704E-02    0.13       1.0  T
   4   -233.5284021 -0.205481E-02  0.147E-02    0.20       1.0  T
   5   -233.5284661 -0.639878E-04  0.750E-03    0.19       1.1  T
   6   -233.5284725 -0.638688E-05  0.384E-03    0.19       2.2  T
   7   -233.5284748 -0.224196E-05  0.204E-03    0.18       4.2  T
   8   -233.5284755 -0.704273E-06  0.108E-03    0.18       7.8  T
     SCC iter.                  ...        0 min,  2.025 sec
     gradient                   ...        0 min,  0.107 sec
 * total energy  :  -229.6175314 Eh     change       -0.2997767E-03 Eh
   gradient norm :     0.0060276 Eh/α   predicted    -0.2374678E-03 ( -20.79%)
   displ. norm   :     0.2830102 α      lambda       -0.6594954E-03
   maximum displ.:     0.0892212 α      in ANC's #29, #21, #42, ...

........................................................................
.............................. CYCLE   23 ..............................
........................................................................
   1   -233.5179122 -0.233518E+03  0.128E-01    0.18       0.0  T
   2   -233.5178394  0.728433E-04  0.707E-02    0.22       1.0  T
   3   -233.4951241  0.227153E-01  0.221E-01    0.08       1.0  T
   4   -233.5175713 -0.224472E-01  0.363E-02    0.24       1.0  T
   5   -233.5178363 -0.264976E-03  0.211E-02    0.22       1.0  T
   6   -233.5178857 -0.494019E-04  0.147E-02    0.21       1.0  T
   7   -233.5179458 -0.600417E-04  0.894E-03    0.20       1.0  T
   8   -233.5179597 -0.139185E-04  0.546E-03    0.20       1.5  T
   9   -233.5179689 -0.919832E-05  0.276E-03    0.19       3.1  T
  10   -233.5179705 -0.161326E-05  0.143E-03    0.19       5.9  T
  11   -233.5179712 -0.660803E-06  0.578E-04    0.19      14.6  T
     SCC iter.                  ...        0 min,  2.625 sec
     gradient                   ...        0 min,  0.077 sec
 * total energy  :  -229.6174186 Eh     change        0.1127637E-03 Eh
   gradient norm :     0.0157107 Eh/α   predicted    -0.3561591E-03 (-415.85%)
   displ. norm   :     0.1821441 α      lambda       -0.1025589E-02
   maximum displ.:     0.0801423 α      in ANC's #16, #13, #42, ...

........................................................................
.............................. CYCLE   24 ..............................
........................................................................
   1   -233.5201681 -0.233520E+03  0.105E-01    0.19       0.0  T
   2   -233.5201735 -0.543789E-05  0.582E-02    0.20       1.0  T
   3   -233.5191236  0.104991E-02  0.483E-02    0.15       1.0  T
   4   -233.5201593 -0.103567E-02  0.997E-03    0.21       1.0  T
   5   -233.5201885 -0.292057E-04  0.471E-03    0.20       1.8  T
   6   -233.5201885 -0.458359E-07  0.422E-03    0.20       2.0  T
   7   -233.5201924 -0.389587E-05  0.119E-03    0.20       7.1  T
   8   -233.5201926 -0.154435E-06  0.655E-04    0.20      12.9  T
   9   -233.5201927 -0.820670E-07  0.434E-04    0.20      19.5  T
     SCC iter.                  ...        0 min,  1.959 sec
     gradient                   ...        0 min,  0.139 sec
 * total energy  :  -229.6178375 Eh     change       -0.4188999E-03 Eh
   gradient norm :     0.0113630 Eh/α   predicted    -0.5298083E-03 (  26.48%)
   displ. norm   :     0.2062974 α      lambda       -0.9899904E-03
   maximum displ.:     0.0920934 α      in ANC's #75, #22, #74, ...

........................................................................
.............................. CYCLE   25 ..............................
........................................................................
   1   -233.5270917 -0.233527E+03  0.124E-01    0.20       0.0  T
   2   -233.5270673  0.244339E-04  0.687E-02    0.22       1.0  T
   3   -233.5206294  0.643793E-02  0.117E-01    0.12       1.0  T
   4   -233.5269988 -0.636939E-02  0.229E-02    0.23       1.0  T
   5   -233.5270959 -0.971310E-04  0.121E-02    0.22       1.0  T
   6   -233.5271123 -0.163625E-04  0.828E-03    0.21       1.0  T
   7   -233.5271355 -0.232045E-04  0.270E-03    0.20       3.1  T
   8   -233.5271366 -0.117708E-05  0.193E-03    0.20       4.4  T
   9   -233.5271371 -0.496947E-06  0.860E-04    0.20       9.8  T
     SCC iter.                  ...        0 min,  2.168 sec
     gradient                   ...        0 min,  0.126 sec
 * total energy  :  -229.6180071 Eh     change       -0.1695468E-03 Eh
   gradient norm :     0.0081474 Eh/α   predicted    -0.5160620E-03 ( 204.38%)
   displ. norm   :     0.2461070 α      lambda       -0.7064648E-03
   maximum displ.:     0.0667771 α      in ANC's #22, #21, #42, ...

........................................................................
.............................. CYCLE   26 ..............................
........................................................................
   1   -233.5250976 -0.233525E+03  0.800E-02    0.20       0.0  T
   2   -233.5250808  0.168198E-04  0.441E-02    0.23       1.0  T
   3   -233.5230023  0.207855E-02  0.679E-02    0.15       1.0  T
   4   -233.5250595 -0.205721E-02  0.138E-02    0.23       1.0  T
   5   -233.5251074 -0.478670E-04  0.781E-03    0.22       1.1  T
   6   -233.5251123 -0.498209E-05  0.599E-03    0.22       1.4  T
   7   -233.5251205 -0.813837E-05  0.175E-03    0.21       4.8  T
   8   -233.5251207 -0.255012E-06  0.111E-03    0.21       7.6  T
   9   -233.5251209 -0.185010E-06  0.696E-04    0.21      12.1  T
     SCC iter.                  ...        0 min,  2.509 sec
     gradient                   ...        0 min,  0.283 sec
 * total energy  :  -229.6185440 Eh     change       -0.5369117E-03 Eh
   gradient norm :     0.0067284 Eh/α   predicted    -0.3746298E-03 ( -30.23%)
   displ. norm   :     0.5641646 α      lambda       -0.8117713E-03
   maximum displ.:     0.1750012 α      in ANC's #22, #21, #42, ...

........................................................................
.............................. CYCLE   27 ..............................
........................................................................
   1   -233.5193450 -0.233519E+03  0.157E-01    0.21       0.0  T
   2   -233.5192609  0.841189E-04  0.882E-02    0.28       1.0  T
   3   -233.5041730  0.150878E-01  0.180E-01    0.11       1.0  T
   4   -233.5191581 -0.149851E-01  0.351E-02    0.31       1.0  T
   5   -233.5193233 -0.165152E-03  0.225E-02    0.29       1.0  T
   6   -233.5194020 -0.787270E-04  0.166E-02    0.27       1.0  T
   7   -233.5194638 -0.618427E-04  0.107E-02    0.25       1.0  T
   8   -233.5194908 -0.269159E-04  0.464E-03    0.24       1.8  T
   9   -233.5194955 -0.471898E-05  0.227E-03    0.24       3.7  T
  10   -233.5194965 -0.101332E-05  0.939E-04    0.23       9.0  T
  11   -233.5194966 -0.592439E-07  0.550E-04    0.23      15.4  T
     SCC iter.                  ...        0 min,  3.531 sec
     gradient                   ...        0 min,  0.178 sec
 * total energy  :  -229.6191977 Eh     change       -0.6537399E-03 Eh
   gradient norm :     0.0096540 Eh/α   predicted    -0.5350766E-03 ( -18.15%)
   displ. norm   :     0.6562409 α      lambda       -0.8214692E-03
   maximum displ.:     0.2166663 α      in ANC's #22, #21, #13, ...

........................................................................
.............................. CYCLE   28 ..............................
........................................................................
   1   -233.5174574 -0.233517E+03  0.178E-01    0.24       0.0  T
   2   -233.5174159  0.415233E-04  0.996E-02    0.31       1.0  T
   3   -233.5109050  0.651083E-02  0.125E-01    0.15       1.0  T
   4   -233.5173390 -0.643399E-02  0.332E-02    0.34       1.0  T
   5   -233.5175447 -0.205705E-03  0.192E-02    0.31       1.0  T
   6   -233.5175887 -0.439466E-04  0.143E-02    0.29       1.0  T
   7   -233.5176388 -0.501500E-04  0.584E-03    0.27       1.4  T
   8   -233.5176427 -0.385328E-05  0.262E-03    0.27       3.2  T
   9   -233.5176427 -0.748310E-08  0.216E-03    0.26       3.9  T
  10   -233.5176431 -0.398530E-06  0.132E-03    0.26       6.4  T
     SCC iter.                  ...        0 min,  2.578 sec
     gradient                   ...        0 min,  0.104 sec
 * total energy  :  -229.6198749 Eh     change       -0.6771732E-03 Eh
   gradient norm :     0.0118370 Eh/α   predicted    -0.5876232E-03 ( -13.22%)
   displ. norm   :     0.6055124 α      lambda       -0.9031374E-03
   maximum displ.:     0.2086745 α      in ANC's #22, #21, #13, ...

........................................................................
.............................. CYCLE   29 ..............................
........................................................................
   1   -233.5222696 -0.233522E+03  0.162E-01    0.27       0.0  T
   2   -233.5222627  0.691463E-05  0.897E-02    0.32       1.0  T
   3   -233.5203471  0.191552E-02  0.774E-02    0.21       1.0  T
   4   -233.5222461 -0.189896E-02  0.251E-02    0.32       1.0  T
   5   -233.5223354 -0.892855E-04  0.155E-02    0.31       1.0  T
   6   -233.5223740 -0.386549E-04  0.753E-03    0.29       1.1  T
   7   -233.5223797 -0.567591E-05  0.322E-03    0.29       2.6  T
   8   -233.5223817 -0.200452E-05  0.166E-03    0.29       5.1  T
   9   -233.5223818 -0.138589E-06  0.131E-03    0.29       6.4  T
     SCC iter.                  ...        0 min,  1.707 sec
     gradient                   ...        0 min,  0.145 sec
 * total energy  :  -229.6206123 Eh     change       -0.7373423E-03 Eh
   gradient norm :     0.0105449 Eh/α   predicted    -0.6171363E-03 ( -16.30%)
   displ. norm   :     0.6555476 α      lambda       -0.9728171E-03
   maximum displ.:     0.2327970 α      in ANC's #22, #21, #13, ...

........................................................................
.............................. CYCLE   30 ..............................
........................................................................
   1   -233.5242984 -0.233524E+03  0.174E-01    0.29       0.0  T
   2   -233.5243222 -0.237529E-04  0.960E-02    0.34       1.0  T
   3   -233.5233464  0.975743E-03  0.594E-02    0.25       1.0  T
   4   -233.5243427 -0.996278E-03  0.192E-02    0.34       1.0  T
   5   -233.5243731 -0.303795E-04  0.145E-02    0.33       1.0  T
   6   -233.5243944 -0.213334E-04  0.911E-03    0.32       1.0  T
   7   -233.5244083 -0.139088E-04  0.232E-03    0.32       3.6  T
   8   -233.5244091 -0.743895E-06  0.154E-03    0.32       5.5  T
   9   -233.5244092 -0.135030E-06  0.106E-03    0.32       8.0  T
     SCC iter.                  ...        0 min,  1.785 sec
     gradient                   ...        0 min,  0.102 sec
 * total energy  :  -229.6213345 Eh     change       -0.7221974E-03 Eh
   gradient norm :     0.0108294 Eh/α   predicted    -0.6954419E-03 (  -3.70%)
   displ. norm   :     0.4962509 α      lambda       -0.1037496E-02
   maximum displ.:     0.1789703 α      in ANC's #22, #29, #13, ...

........................................................................
.............................. CYCLE   31 ..............................
........................................................................
   1   -233.5394896 -0.233539E+03  0.142E-01    0.32       0.0  T
   2   -233.5395135 -0.238292E-04  0.768E-02    0.33       1.0  T
   3   -233.5393519  0.161571E-03  0.330E-02    0.31       1.0  T
   4   -233.5395021 -0.150186E-03  0.151E-02    0.32       1.0  T
   5   -233.5395144 -0.123394E-04  0.111E-02    0.32       1.0  T
   6   -233.5395298 -0.154014E-04  0.438E-03    0.32       1.9  T
   7   -233.5395327 -0.283723E-05  0.248E-03    0.32       3.4  T
   8   -233.5395335 -0.800842E-06  0.129E-03    0.32       6.6  T
     SCC iter.                  ...        0 min,  1.185 sec
     gradient                   ...        0 min,  0.090 sec
 * total energy  :  -229.6215018 Eh     change       -0.1673274E-03 Eh
   gradient norm :     0.0199937 Eh/α   predicted    -0.6465020E-03 ( 286.37%)
   displ. norm   :     0.4691896 α      lambda       -0.1053957E-02
   maximum displ.:     0.1579723 α      in ANC's #22, #21, #13, ...

........................................................................
.............................. CYCLE   32 ..............................
........................................................................
   1   -233.5238528 -0.233524E+03  0.129E-01    0.32       0.0  T
   2   -233.5238716 -0.188401E-04  0.720E-02    0.36       1.0  T
   3   -233.5233664  0.505237E-03  0.462E-02    0.30       1.0  T
   4   -233.5239002 -0.533769E-03  0.154E-02    0.35       1.0  T
   5   -233.5239181 -0.179950E-04  0.100E-02    0.35       1.0  T
   6   -233.5239240 -0.587611E-05  0.662E-03    0.34       1.3  T
   7   -233.5239306 -0.654926E-05  0.123E-03    0.34       6.9  T
   8   -233.5239307 -0.935055E-07  0.774E-04    0.34      10.9  T
   9   -233.5239307 -0.161367E-08  0.594E-04    0.34      14.2  T
     SCC iter.                  ...        0 min,  1.890 sec
     gradient                   ...        0 min,  0.103 sec
 * total energy  :  -229.6220948 Eh     change       -0.5930014E-03 Eh
   gradient norm :     0.0104312 Eh/α   predicted    -0.6429895E-03 (   8.43%)
   displ. norm   :     0.3168474 α      lambda       -0.3613366E-03
   maximum displ.:     0.1129752 α      in ANC's #22, #5, #29, ...

........................................................................
.............................. CYCLE   33 ..............................
........................................................................
   1   -233.5272753 -0.233527E+03  0.802E-02    0.35       0.0  T
   2   -233.5272847 -0.943881E-05  0.430E-02    0.36       1.0  T
   3   -233.5272413  0.434308E-04  0.159E-02    0.34       1.0  T
   4   -233.5272766 -0.353291E-04  0.919E-03    0.36       1.0  T
   5   -233.5272824 -0.576851E-05  0.678E-03    0.36       1.2  T
   6   -233.5272894 -0.700892E-05  0.313E-03    0.35       2.7  T
   7   -233.5272909 -0.154709E-05  0.686E-04    0.35      12.3  T
   8   -233.5272910 -0.120682E-07  0.521E-04    0.35      16.2  T
     SCC iter.                  ...        0 min,  1.517 sec
     gradient                   ...        0 min,  0.126 sec
 * total energy  :  -229.6223246 Eh     change       -0.2298202E-03 Eh
   gradient norm :     0.0083535 Eh/α   predicted    -0.1988085E-03 ( -13.49%)
   displ. norm   :     0.4784503 α      lambda       -0.3909910E-03
   maximum displ.:     0.1661732 α      in ANC's #22, #13, #5, ...

........................................................................
.............................. CYCLE   34 ..............................
........................................................................
   1   -233.5281677 -0.233528E+03  0.121E-01    0.36       0.0  T
   2   -233.5281806 -0.129446E-04  0.661E-02    0.36       1.0  T
   3   -233.5281242  0.564713E-04  0.208E-02    0.35       1.0  T
   4   -233.5281693 -0.451772E-04  0.123E-02    0.36       1.0  T
   5   -233.5281737 -0.440832E-05  0.974E-03    0.36       1.0  T
   6   -233.5281876 -0.138785E-04  0.305E-03    0.36       2.8  T
   7   -233.5281891 -0.144871E-05  0.163E-03    0.36       5.2  T
   8   -233.5281894 -0.364199E-06  0.801E-04    0.36      10.6  T
     SCC iter.                  ...        0 min,  1.864 sec
     gradient                   ...        0 min,  0.126 sec
 * total energy  :  -229.6226161 Eh     change       -0.2914939E-03 Eh
   gradient norm :     0.0065649 Eh/α   predicted    -0.2402496E-03 ( -17.58%)
   displ. norm   :     0.4270121 α      lambda       -0.4004009E-03
   maximum displ.:     0.1410997 α      in ANC's #5, #22, #11, ...

........................................................................
.............................. CYCLE   35 ..............................
........................................................................
   1   -233.5334137 -0.233533E+03  0.109E-01    0.36       0.0  T
   2   -233.5334311 -0.174038E-04  0.579E-02    0.36       1.0  T
   3   -233.5334057  0.254645E-04  0.162E-02    0.36       1.0  T
   4   -233.5334258 -0.200904E-04  0.977E-03    0.36       1.0  T
   5   -233.5334216  0.412644E-05  0.986E-03    0.36       1.0  T
   6   -233.5334368 -0.151548E-04  0.219E-03    0.36       3.9  T
   7   -233.5334371 -0.338466E-06  0.153E-03    0.36       5.5  T
   8   -233.5334375 -0.392047E-06  0.669E-04    0.36      12.6  T
     SCC iter.                  ...        0 min,  1.677 sec
     gradient                   ...        0 min,  0.164 sec
 * total energy  :  -229.6228210 Eh     change       -0.2048746E-03 Eh
   gradient norm :     0.0096295 Eh/α   predicted    -0.2367090E-03 (  15.54%)
   displ. norm   :     0.4677512 α      lambda       -0.2676131E-03
   maximum displ.:     0.1543307 α      in ANC's #22, #5, #13, ...

........................................................................
.............................. CYCLE   36 ..............................
........................................................................
   1   -233.5281625 -0.233528E+03  0.122E-01    0.36       0.0  T
   2   -233.5281783 -0.158291E-04  0.655E-02    0.36       1.0  T
   3   -233.5281640  0.142710E-04  0.142E-02    0.35       1.0  T
   4   -233.5281753 -0.112692E-04  0.934E-03    0.36       1.0  T
   5   -233.5281740  0.128035E-05  0.797E-03    0.36       1.1  T
   6   -233.5281839 -0.985191E-05  0.243E-03    0.36       3.5  T
   7   -233.5281847 -0.830700E-06  0.105E-03    0.36       8.1  T
   8   -233.5281847 -0.216346E-07  0.894E-04    0.36       9.5  T
     SCC iter.                  ...        0 min,  2.827 sec
     gradient                   ...        0 min,  0.208 sec
 * total energy  :  -229.6229960 Eh     change       -0.1749917E-03 Eh
   gradient norm :     0.0076783 Eh/α   predicted    -0.1630825E-03 (  -6.81%)
   displ. norm   :     0.3028463 α      lambda       -0.2102500E-03
   maximum displ.:     0.1154956 α      in ANC's #5, #11, #6, ...

........................................................................
.............................. CYCLE   37 ..............................
........................................................................
   1   -233.5328804 -0.233533E+03  0.646E-02    0.36       0.0  T
   2   -233.5328850 -0.455626E-05  0.352E-02    0.36       1.0  T
   3   -233.5328310  0.540188E-04  0.176E-02    0.37       1.0  T
   4   -233.5328837 -0.527536E-04  0.736E-03    0.36       1.1  T
   5   -233.5328843 -0.591937E-06  0.626E-03    0.36       1.4  T
   6   -233.5328905 -0.615101E-05  0.240E-03    0.36       3.5  T
   7   -233.5328913 -0.859912E-06  0.864E-04    0.36       9.8  T
   8   -233.5328914 -0.691888E-07  0.558E-04    0.36      15.1  T
     SCC iter.                  ...        0 min,  2.841 sec
     gradient                   ...        0 min,  0.171 sec
 * total energy  :  -229.6231160 Eh     change       -0.1200394E-03 Eh
   gradient norm :     0.0086528 Eh/α   predicted    -0.1147692E-03 (  -4.39%)
   displ. norm   :     0.3831815 α      lambda       -0.2517308E-03
   maximum displ.:     0.1462583 α      in ANC's #5, #11, #6, ...

........................................................................
.............................. CYCLE   38 ..............................
........................................................................
   1   -233.5307038 -0.233531E+03  0.915E-02    0.36       0.0  T
   2   -233.5307147 -0.108665E-04  0.485E-02    0.37       1.0  T
   3   -233.5306717  0.430047E-04  0.168E-02    0.36       1.0  T
   4   -233.5306910 -0.193049E-04  0.127E-02    0.37       1.0  T
   5   -233.5307118 -0.208496E-04  0.676E-03    0.37       1.2  T
   6   -233.5307192 -0.736086E-05  0.212E-03    0.36       4.0  T
   7   -233.5307198 -0.631137E-06  0.823E-04    0.36      10.3  T
   8   -233.5307199 -0.552274E-07  0.586E-04    0.36      14.4  T
     SCC iter.                  ...        0 min,  1.561 sec
     gradient                   ...        0 min,  0.108 sec
 * total energy  :  -229.6232830 Eh     change       -0.1669505E-03 Eh
   gradient norm :     0.0051314 Eh/α   predicted    -0.1443483E-03 ( -13.54%)
   displ. norm   :     0.3386194 α      lambda       -0.2024267E-03
   maximum displ.:     0.1314799 α      in ANC's #5, #11, #8, ...

........................................................................
.............................. CYCLE   39 ..............................
........................................................................
   1   -233.5311521 -0.233531E+03  0.759E-02    0.37       0.0  T
   2   -233.5311583 -0.615954E-05  0.400E-02    0.36       1.0  T
   3   -233.5311317  0.265993E-04  0.138E-02    0.37       1.0  T
   4   -233.5311520 -0.203194E-04  0.869E-03    0.36       1.0  T
   5   -233.5311550 -0.300707E-05  0.610E-03    0.36       1.4  T
   6   -233.5311609 -0.595489E-05  0.236E-03    0.36       3.6  T
   7   -233.5311619 -0.947560E-06  0.962E-04    0.36       8.8  T
   8   -233.5311620 -0.154368E-06  0.342E-04    0.36      24.7  T
     SCC iter.                  ...        0 min,  3.013 sec
     gradient                   ...        0 min,  0.238 sec
 * total energy  :  -229.6234226 Eh     change       -0.1396544E-03 Eh
   gradient norm :     0.0053762 Eh/α   predicted    -0.1128207E-03 ( -19.21%)
   displ. norm   :     0.3398143 α      lambda       -0.1682225E-03
   maximum displ.:     0.1443208 α      in ANC's #5, #11, #8, ...

........................................................................
.............................. CYCLE   40 ..............................
........................................................................
   1   -233.5298316 -0.233530E+03  0.637E-02    0.36       0.0  T
   2   -233.5298357 -0.413275E-05  0.349E-02    0.36       1.0  T
   3   -233.5298272  0.852027E-05  0.886E-03    0.36       1.0  T
   4   -233.5298344 -0.720608E-05  0.519E-03    0.36       1.6  T
   5   -233.5298340  0.365883E-06  0.478E-03    0.36       1.8  T
   6   -233.5298373 -0.330539E-05  0.132E-03    0.36       6.4  T
   7   -233.5298376 -0.251210E-06  0.450E-04    0.36      18.8  T
   8   -233.5298376 -0.757967E-08  0.343E-04    0.36      24.6  T
     SCC iter.                  ...        0 min,  2.372 sec
     gradient                   ...        0 min,  0.105 sec
 * total energy  :  -229.6235354 Eh     change       -0.1127999E-03 Eh
   gradient norm :     0.0060066 Eh/α   predicted    -0.9382645E-04 ( -16.82%)
   displ. norm   :     0.3202771 α      lambda       -0.1414032E-03
   maximum displ.:     0.1421061 α      in ANC's #5, #11, #8, ...

........................................................................
.............................. CYCLE   41 ..............................
........................................................................
   1   -233.5301640 -0.233530E+03  0.678E-02    0.36       0.0  T
   2   -233.5301701 -0.608262E-05  0.357E-02    0.35       1.0  T
   3   -233.5301482  0.219531E-04  0.114E-02    0.37       1.0  T
   4   -233.5301707 -0.224942E-04  0.563E-03    0.35       1.5  T
   5   -233.5301707 -0.738573E-07  0.456E-03    0.36       1.9  T
   6   -233.5301725 -0.178441E-05  0.295E-03    0.36       2.9  T
   7   -233.5301743 -0.174373E-05  0.489E-04    0.36      17.3  T
     SCC iter.                  ...        0 min,  1.827 sec
     gradient                   ...        0 min,  0.131 sec
 * total energy  :  -229.6236312 Eh     change       -0.9581299E-04 Eh
   gradient norm :     0.0043876 Eh/α   predicted    -0.7795579E-04 ( -18.64%)
   displ. norm   :     0.3145968 α      lambda       -0.1220811E-03
   maximum displ.:     0.1499116 α      in ANC's #5, #11, #2, ...

........................................................................
.............................. CYCLE   42 ..............................
........................................................................
   1   -233.5295102 -0.233530E+03  0.656E-02    0.36       0.0  T
   2   -233.5295154 -0.516986E-05  0.349E-02    0.36       1.0  T
   3   -233.5295129  0.249769E-05  0.692E-03    0.36       1.2  T
   4   -233.5295138 -0.940376E-06  0.486E-03    0.35       1.7  T
   5   -233.5295153 -0.148708E-05  0.305E-03    0.36       2.8  T
   6   -233.5295166 -0.130665E-05  0.157E-03    0.36       5.4  T
   7   -233.5295171 -0.491374E-06  0.391E-04    0.36      21.6  T
     SCC iter.                  ...        0 min,  2.559 sec
     gradient                   ...        0 min,  0.077 sec
 * total energy  :  -229.6237187 Eh     change       -0.8748913E-04 Eh
   gradient norm :     0.0058116 Eh/α   predicted    -0.6708751E-04 ( -23.32%)
   displ. norm   :     0.3188325 α      lambda       -0.1283106E-03
   maximum displ.:     0.1615745 α      in ANC's #5, #2, #11, ...
 * RMSD in coord.:     0.6022896 α      energy gain  -0.6973554E-02 Eh

generating ANC from model Hessian ...
Using Lindh-Hessian (1995)
 Shifting diagonal of input Hessian by   5.004510534924074E-003
 Lowest  eigenvalues of input Hessian
    0.005000   -0.000000   -0.000000   -0.000000   -0.000000    0.000000
    0.000000    0.005018    0.005025    0.005050    0.005054    0.005097
    0.005133    0.005146    0.005168    0.005200    0.005321    0.005423
 Highest eigenvalues
    2.094614    2.094625    2.131864    2.274790    2.600191    2.645632
 

........................................................................
.............................. CYCLE   43 ..............................
........................................................................
   1   -233.5312047 -0.233531E+03  0.606E-02    0.36       0.0  T
   2   -233.5312091 -0.449157E-05  0.326E-02    0.35       1.0  T
   3   -233.5311994  0.972797E-05  0.935E-03    0.36       1.0  T
   4   -233.5312057 -0.625131E-05  0.644E-03    0.35       1.3  T
   5   -233.5312075 -0.181553E-05  0.462E-03    0.35       1.8  T
   6   -233.5312108 -0.331784E-05  0.124E-03    0.35       6.8  T
   7   -233.5312110 -0.188137E-06  0.771E-04    0.35      11.0  T
   8   -233.5312111 -0.977686E-07  0.338E-04    0.35      25.0  T
     SCC iter.                  ...        0 min,  2.618 sec
     gradient                   ...        0 min,  0.204 sec
 * total energy  :  -229.6238009 Eh     change       -0.8220772E-04 Eh
   gradient norm :     0.0048371 Eh/α   predicted     0.0000000E+00 (-100.00%)
   displ. norm   :     0.0918633 α      lambda       -0.8879857E-04
   maximum displ.:     0.0429608 α      in ANC's #4, #17, #31, ...

........................................................................
.............................. CYCLE   44 ..............................
........................................................................
   1   -233.5313333 -0.233531E+03  0.478E-02    0.35       0.0  T
   2   -233.5313365 -0.318172E-05  0.261E-02    0.36       1.0  T
   3   -233.5313142  0.222454E-04  0.109E-02    0.35       1.0  T
   4   -233.5313362 -0.219942E-04  0.369E-03    0.35       2.3  T
   5   -233.5313385 -0.225973E-05  0.149E-03    0.36       5.7  T
   6   -233.5313387 -0.222217E-06  0.674E-04    0.36      12.5  T
     SCC iter.                  ...        0 min,  2.295 sec
     gradient                   ...        0 min,  0.153 sec
 * total energy  :  -229.6238011 Eh     change       -0.2196418E-06 Eh
   gradient norm :     0.0042661 Eh/α   predicted    -0.4479991E-04 (*******%)
   displ. norm   :     0.0972692 α      lambda       -0.1770583E-03
   maximum displ.:     0.0417051 α      in ANC's #29, #17, #4, ...

........................................................................
.............................. CYCLE   45 ..............................
........................................................................
   1   -233.5327158 -0.233533E+03  0.445E-02    0.36       0.0  T
   2   -233.5327188 -0.299479E-05  0.241E-02    0.36       1.0  T
   3   -233.5327092  0.964542E-05  0.750E-03    0.35       1.1  T
   4   -233.5327163 -0.711339E-05  0.474E-03    0.36       1.8  T
   5   -233.5327198 -0.347182E-05  0.227E-03    0.36       3.7  T
   6   -233.5327205 -0.744486E-06  0.877E-04    0.36       9.6  T
   7   -233.5327206 -0.101266E-06  0.289E-04    0.36      29.2  T
     SCC iter.                  ...        0 min,  1.962 sec
     gradient                   ...        0 min,  0.144 sec
 * total energy  :  -229.6238554 Eh     change       -0.5430863E-04 Eh
   gradient norm :     0.0056889 Eh/α   predicted    -0.8936837E-04 (  64.56%)
   displ. norm   :     0.0504079 α      lambda       -0.7881228E-04
   maximum displ.:     0.0280234 α      in ANC's #67, #29, #4, ...

........................................................................
.............................. CYCLE   46 ..............................
........................................................................
   1   -233.5318295 -0.233532E+03  0.318E-02    0.36       0.0  T
   2   -233.5318309 -0.146779E-05  0.171E-02    0.36       1.0  T
   3   -233.5318256  0.538601E-05  0.635E-03    0.36       1.3  T
   4   -233.5318311 -0.554931E-05  0.240E-03    0.36       3.5  T
   5   -233.5318316 -0.477206E-06  0.135E-03    0.36       6.2  T
   6   -233.5318317 -0.164556E-06  0.553E-04    0.36      15.3  T
     SCC iter.                  ...        0 min,  1.660 sec
     gradient                   ...        0 min,  0.176 sec
 * total energy  :  -229.6238758 Eh     change       -0.2037658E-04 Eh
   gradient norm :     0.0026306 Eh/α   predicted    -0.3950663E-04 (  93.88%)
   displ. norm   :     0.0493827 α      lambda       -0.6477352E-04
   maximum displ.:     0.0210282 α      in ANC's #4, #67, #20, ...

........................................................................
.............................. CYCLE   47 ..............................
........................................................................
   1   -233.5311639 -0.233531E+03  0.247E-02    0.36       0.0  T
   2   -233.5311650 -0.110001E-05  0.132E-02    0.36       1.0  T
   3   -233.5311630  0.202757E-05  0.411E-03    0.36       2.1  T
   4   -233.5311647 -0.174739E-05  0.226E-03    0.36       3.7  T
   5   -233.5311651 -0.416030E-06  0.159E-03    0.36       5.3  T
   6   -233.5311655 -0.362221E-06  0.544E-04    0.36      15.5  T
   7   -233.5311655 -0.410143E-07  0.311E-04    0.36      27.1  T
     SCC iter.                  ...        0 min,  1.907 sec
     gradient                   ...        0 min,  0.138 sec
 * total energy  :  -229.6239051 Eh     change       -0.2929350E-04 Eh
   gradient norm :     0.0027651 Eh/α   predicted    -0.3246761E-04 (  10.84%)
   displ. norm   :     0.0668159 α      lambda       -0.2796619E-04
   maximum displ.:     0.0336729 α      in ANC's #4, #29, #10, ...

........................................................................
.............................. CYCLE   48 ..............................
........................................................................
   1   -233.5316282 -0.233532E+03  0.168E-02    0.36       0.0  T
   2   -233.5316285 -0.287100E-06  0.868E-03    0.36       1.0  T
   3   -233.5316256  0.292973E-05  0.398E-03    0.36       2.1  T
   4   -233.5316281 -0.248098E-05  0.205E-03    0.36       4.1  T
   5   -233.5316285 -0.441886E-06  0.105E-03    0.36       8.0  T
   6   -233.5316287 -0.198543E-06  0.408E-04    0.36      20.7  T
   7   -233.5316287 -0.225748E-07  0.155E-04    0.36      54.7  T
     SCC iter.                  ...        0 min,  2.529 sec
     gradient                   ...        0 min,  0.143 sec
 * total energy  :  -229.6239280 Eh     change       -0.2289519E-04 Eh
   gradient norm :     0.0010021 Eh/α   predicted    -0.1404570E-04 ( -38.65%)
   displ. norm   :     0.2780198 α      lambda       -0.5236195E-04
   maximum displ.:     0.1392686 α      in ANC's #4, #10, #29, ...

........................................................................
.............................. CYCLE   49 ..............................
........................................................................
   1   -233.5319256 -0.233532E+03  0.603E-02    0.36       0.0  T
   2   -233.5319288 -0.322294E-05  0.318E-02    0.36       1.0  T
   3   -233.5318970  0.317978E-04  0.130E-02    0.35       1.0  T
   4   -233.5319220 -0.249531E-04  0.752E-03    0.36       1.1  T
   5   -233.5319275 -0.550057E-05  0.413E-03    0.36       2.0  T
   6   -233.5319311 -0.362136E-05  0.115E-03    0.36       7.3  T
   7   -233.5319312 -0.160641E-06  0.332E-04    0.36      25.5  T
   8   -233.5319312  0.320313E-10  0.301E-04    0.36      28.1  T
     SCC iter.                  ...        0 min,  2.975 sec
     gradient                   ...        0 min,  0.144 sec
 * total energy  :  -229.6239812 Eh     change       -0.5318204E-04 Eh
   gradient norm :     0.0028652 Eh/α   predicted    -0.2708087E-04 ( -49.08%)
   displ. norm   :     0.1560278 α      lambda       -0.3352324E-04
   maximum displ.:     0.0839818 α      in ANC's #4, #10, #1, ...

........................................................................
.............................. CYCLE   50 ..............................
........................................................................
   1   -233.5316575 -0.233532E+03  0.308E-02    0.36       0.0  T
   2   -233.5316583 -0.855055E-06  0.163E-02    0.36       1.0  T
   3   -233.5316514  0.692273E-05  0.623E-03    0.36       1.4  T
   4   -233.5316565 -0.511991E-05  0.378E-03    0.36       2.2  T
   5   -233.5316579 -0.141351E-05  0.209E-03    0.36       4.0  T
   6   -233.5316589 -0.913205E-06  0.417E-04    0.36      20.3  T
   7   -233.5316589 -0.220074E-07  0.133E-04    0.36      63.6  T
     SCC iter.                  ...        0 min,  2.233 sec
     gradient                   ...        0 min,  0.105 sec
 * total energy  :  -229.6240095 Eh     change       -0.2829489E-04 Eh
   gradient norm :     0.0017624 Eh/α   predicted    -0.1716999E-04 ( -39.32%)
   displ. norm   :     0.3082105 α      lambda       -0.4318768E-04
   maximum displ.:     0.1707711 α      in ANC's #4, #10, #2, ...

........................................................................
.............................. CYCLE   51 ..............................
........................................................................
   1   -233.5314199 -0.233531E+03  0.585E-02    0.36       0.0  T
   2   -233.5314233 -0.341175E-05  0.304E-02    0.36       1.0  T
   3   -233.5314071  0.162007E-04  0.100E-02    0.36       1.0  T
   4   -233.5314153 -0.818145E-05  0.752E-03    0.36       1.1  T
   5   -233.5314232 -0.797447E-05  0.287E-03    0.36       2.9  T
   6   -233.5314248 -0.154294E-05  0.696E-04    0.36      12.1  T
   7   -233.5314248 -0.553822E-07  0.400E-04    0.36      21.1  T
   8   -233.5314248 -0.671744E-08  0.307E-04    0.36      27.6  T
     SCC iter.                  ...        0 min,  2.647 sec
     gradient                   ...        0 min,  0.103 sec
 * total energy  :  -229.6240572 Eh     change       -0.4766590E-04 Eh
   gradient norm :     0.0012497 Eh/α   predicted    -0.2250759E-04 ( -52.78%)
   displ. norm   :     0.2692465 α      lambda       -0.3468236E-04
   maximum displ.:     0.1547487 α      in ANC's #4, #10, #2, ...

........................................................................
.............................. CYCLE   52 ..............................
........................................................................
   1   -233.5311678 -0.233531E+03  0.437E-02    0.36       0.0  T
   2   -233.5311695 -0.169152E-05  0.229E-02    0.36       1.0  T
   3   -233.5311616  0.790972E-05  0.710E-03    0.36       1.2  T
   4   -233.5311641 -0.251760E-05  0.590E-03    0.36       1.4  T
   5   -233.5311697 -0.560612E-05  0.184E-03    0.36       4.6  T
   6   -233.5311703 -0.524571E-06  0.434E-04    0.36      19.5  T
   7   -233.5311703 -0.161671E-07  0.278E-04    0.36      30.4  T
     SCC iter.                  ...        0 min,  2.389 sec
     gradient                   ...        0 min,  0.309 sec
 * total energy  :  -229.6240994 Eh     change       -0.4225484E-04 Eh
   gradient norm :     0.0020519 Eh/α   predicted    -0.1790005E-04 ( -57.64%)
   displ. norm   :     0.2334455 α      lambda       -0.4996165E-04
   maximum displ.:     0.1341842 α      in ANC's #4, #10, #2, ...

........................................................................
.............................. CYCLE   53 ..............................
........................................................................
   1   -233.5311862 -0.233531E+03  0.379E-02    0.36       0.0  T
   2   -233.5311878 -0.159113E-05  0.194E-02    0.36       1.0  T
   3   -233.5311848  0.301421E-05  0.504E-03    0.36       1.7  T
   4   -233.5311846  0.201187E-06  0.469E-03    0.36       1.8  T
   5   -233.5311866 -0.201579E-05  0.289E-03    0.36       2.9  T
   6   -233.5311884 -0.179512E-05  0.546E-04    0.36      15.5  T
   7   -233.5311884 -0.341121E-07  0.281E-04    0.36      30.1  T
   8   -233.5311884  0.367697E-08  0.276E-04    0.36      30.6  T
     SCC iter.                  ...        0 min,  1.573 sec
     gradient                   ...        0 min,  0.104 sec
 * total energy  :  -229.6241432 Eh     change       -0.4378834E-04 Eh
   gradient norm :     0.0020366 Eh/α   predicted    -0.2634726E-04 ( -39.83%)
   displ. norm   :     0.3520881 α      lambda       -0.7192580E-04
   maximum displ.:     0.2024737 α      in ANC's #4, #10, #2, ...

[...]
     2  C   3.943        C    1 1.482    C    3 1.099    C    5 1.097
     3  C   3.944        N    4 2.762    C    2 1.099
     4  N   2.967        C    3 2.762
     5  C   3.945        N    6 2.757    C    2 1.097
     6  N   2.964        C    5 2.757
     7  C   3.978        C   12 1.423    C    8 1.249    C    1 1.094
     8  C   3.978        C    9 1.473    C    7 1.249    C   17 1.018
     9  C   3.971        C    8 1.473    C   10 1.315    H   90 0.962
    10  C   3.973        C    9 1.315    C   11 1.268    C   15 1.202
    11  C   3.949        C   12 1.379    C   10 1.268    S   13 1.117
    12  C   3.970        C    7 1.423    C   11 1.379    H   91 0.958
    13  S   2.556        C   14 1.132    C   11 1.117
    14  C   3.899        C   15 1.611    S   13 1.132    Br  16 1.026
    15  C   3.975        C   14 1.611    C   10 1.202    H   92 0.959
    16  Br  1.165        C   14 1.026
    17  C   3.920        O   18 1.762    C   19 1.029    C    8 1.018
    18  O   2.049        C   17 1.762
    19  C   3.960        C   20 1.567    C    1 1.129    C   17 1.029
    20  C   3.928        C   19 1.567    C   21 1.188    H   93 0.945
    21  C   3.960        C   22 1.311    C   26 1.310    C   20 1.188
    22  C   3.965        C   23 1.485    C   21 1.311    H   94 0.956
    23  C   3.973        C   22 1.485    C   24 1.294    C   29 0.987
    24  C   3.959        C   25 1.344    C   23 1.294    C   27 1.125
    25  C   3.970        C   26 1.504    C   24 1.344    H   95 0.967
    26  C   3.976        C   25 1.504    C   21 1.310    H   96 0.968
    27  C   3.946        C   37 1.352    C   28 1.288    C   24 1.125
    28  C   3.971        C   34 1.490    C   27 1.288    C   29 0.987
    29  C   3.988        C   28 0.987    C   23 0.987    C   32 0.961    C   30 0.957
    30  C   3.992        C   31 1.019    H   98 0.977    H   97 0.970    C   29 0.957
    31  C   3.995        C   30 1.019    H  100 0.985    H   99 0.985    H  101 0.984
    32  C   3.995        C   33 1.019    H  103 0.978    H  102 0.971    C   29 0.961
    33  C   3.995        C   32 1.019    H  105 0.985    H  106 0.984    H  104 0.984
    34  C   3.953        C   28 1.490    C   35 1.314    H  107 0.958
    35  C   3.958        C   36 1.320    C   34 1.314    C   38 1.179
    36  C   3.950        C   37 1.495    C   35 1.320    H  108 0.967
    37  C   3.970        C   36 1.495    C   27 1.352    H  109 0.966
    38  C   3.861        C   39 1.585    C   35 1.179    H  110 0.943
    39  C   3.972        C   38 1.585    C   40 1.283    H  111 0.961
    40  C   3.877        C   41 1.463    C   39 1.283    H  112 0.960
    41  C   3.922        C   40 1.463    C   42 1.234    S   45 1.081
    42  C   3.920        C   43 1.574    C   41 1.234    H  113 0.964
    43  C   3.948        C   42 1.574    C   44 1.257    H  114 0.963
    44  C   3.916        C   46 1.380    C   43 1.257    S   45 1.082
    45  S   2.491        C   44 1.082    C   41 1.081
    46  C   3.911        C   44 1.380    C   47 1.253    S   50 1.088
    47  C   3.964        C   48 1.577    C   46 1.253    H  115 0.963
    48  C   3.918        C   47 1.577    C   49 1.230    H  116 0.964
    49  C   3.929        C   51 1.474    C   48 1.230    S   50 1.074
    50  S   2.481        C   46 1.088    C   49 1.074
    51  C   3.876        C   49 1.474    C   52 1.259    H  117 0.956
    52  C   3.932        C   53 1.458    C   51 1.259    S   56 1.072
    53  C   3.904        C   52 1.458    C   54 1.274    H  118 0.942
    54  C   3.960        C   53 1.274    C   67 1.258    C   55 1.224
    55  C   3.933        C   57 1.409    C   54 1.224    S   56 1.095
    56  S   2.460        C   55 1.095    C   52 1.072
    57  C   3.952        C   55 1.409    C   65 1.260    C   58 1.042
    58  C   3.987        C   63 1.391    C   59 1.376    C   57 1.042    C   61 0.102
    59  C   3.986        C   60 1.464    C   58 1.376    H  119 0.968    C   62 0.105
    60  C   3.991        C   59 1.464    C   61 1.397    H  120 0.969    C   63 0.106
    61  C   3.981        C   62 1.413    C   60 1.397    C   64 1.026    C   58 0.102
    62  C   3.990        C   63 1.447    C   61 1.413    H  121 0.968    C   59 0.105
    63  C   3.984        C   62 1.447    C   58 1.391    H  122 0.968    C   60 0.106
    64  C   3.996        C   61 1.026    H  125 0.986    H  123 0.973    H  124 0.971
    65  C   3.958        C   77 1.268    C   57 1.260    C   66 1.226
    66  C   3.934        C   67 1.408    C   65 1.226    S   75 1.096
    67  C   3.947        C   66 1.408    C   54 1.258    C   68 1.044
    68  C   3.987        C   73 1.391    C   69 1.375    C   67 1.044    C   71 0.102
    69  C   3.986        C   70 1.465    C   68 1.375    H  126 0.968    C   72 0.104
    70  C   3.991        C   69 1.465    C   71 1.397    H  127 0.969    C   73 0.106
    71  C   3.981        C   72 1.412    C   70 1.397    C   74 1.027    C   68 0.102
    72  C   3.990        C   73 1.447    C   71 1.412    H  128 0.967    C   69 0.104
    73  C   3.984        C   72 1.447    C   68 1.391    H  129 0.967    C   70 0.106
    74  C   3.996        C   71 1.027    H  132 0.985    H  131 0.973    H  130 0.970
    75  S   2.464        C   66 1.096    C   76 1.073
    76  C   3.929        C   77 1.469    C   78 1.247    S   75 1.073
    77  C   3.897        C   76 1.469    C   65 1.268    H  133 0.943
    78  C   3.902        C   79 1.495    C   76 1.247    H  134 0.956
    79  C   3.929        C   78 1.495    C   80 1.212    S   83 1.074
    80  C   3.938        C   81 1.608    C   79 1.212    H  135 0.964
    81  C   3.947        C   80 1.608    C   82 1.225    H  136 0.962
    82  C   3.957        C   84 1.430    C   81 1.225    S   83 1.077
    83  S   2.471        C   82 1.077    C   79 1.074
    84  C   3.912        C   82 1.430    C   85 1.204    S   88 1.087
    85  C   3.986        C   86 1.658    C   84 1.204    H  137 0.962
    86  C   3.913        C   85 1.658    C   87 1.152    H  138 0.963
    87  C   3.961        C   89 1.720    C   86 1.152    S   88 1.038
    88  S   2.406        C   84 1.087    C   87 1.038
    89  C   3.864        C   87 1.720    H  140 0.977    H  139 0.970
    90  H   0.995        C    9 0.962
    91  H   0.995        C   12 0.958
    92  H   0.995        C   15 0.959
    93  H   0.995        C   20 0.945
    94  H   0.995        C   22 0.956
    95  H   0.998        C   25 0.967
    96  H   0.998        C   26 0.968
    97  H   0.996        C   30 0.970
    98  H   0.999        C   30 0.977
    99  H   0.999        C   31 0.985
   100  H   0.998        C   31 0.985
   101  H   0.999        C   31 0.984
   102  H   0.998        C   32 0.971
   103  H   0.999        C   32 0.978
   104  H   0.998        C   33 0.984
   105  H   0.998        C   33 0.985
   106  H   0.999        C   33 0.984
   107  H   0.998        C   34 0.958
   108  H   0.998        C   36 0.967
   109  H   0.998        C   37 0.966
   110  H   0.996        C   38 0.943
   111  H   0.998        C   39 0.961
   112  H   0.997        C   40 0.960
   113  H   0.998        C   42 0.964
   114  H   0.998        C   43 0.963
   115  H   0.998        C   47 0.963
   116  H   0.997        C   48 0.964
   117  H   0.996        C   51 0.956
   118  H   0.996        C   53 0.942
   119  H   0.998        C   59 0.968
   120  H   0.998        C   60 0.969
   121  H   0.998        C   62 0.968
   122  H   0.999        C   63 0.968
   123  H   0.997        C   64 0.973
   124  H   0.997        C   64 0.971
   125  H   0.998        C   64 0.986
   126  H   0.999        C   69 0.968
   127  H   0.998        C   70 0.969
   128  H   0.998        C   72 0.967
   129  H   0.999        C   73 0.967
   130  H   0.997        C   74 0.970
   131  H   0.997        C   74 0.973
   132  H   0.998        C   74 0.985
   133  H   0.996        C   77 0.943
   134  H   0.996        C   78 0.956
   135  H   0.997        C   80 0.964
   136  H   0.998        C   81 0.962
   137  H   0.998        C   85 0.962
   138  H   0.997        C   86 0.963
   139  H   0.997        C   89 0.970
   140  H   0.997        C   89 0.977

molecular dipole:
                 x           y           z       tot (Debye)
 q only:        0.829       2.592       1.944
   full:        0.972       2.944       2.156       9.599
molecular quadrupole (traceless):
                xx          xy          yy          xz          yz          zz
 q only:      -28.466     -88.224      25.083     -12.135     -14.116       3.383
  q+dip:      -40.428    -117.107      57.763      -5.479     -27.016     -17.335
   full:      -32.156    -115.326      50.774     -16.441     -30.170     -18.617

           -------------------------------------------------
          |                Geometry Summary                 |
           -------------------------------------------------

      molecular mass/u    :     1336.5977000
   center of mass at/Å    :       -6.5903604       4.5404694       2.8546350
  moments of inertia/u·Å² :        0.2855301E+05   0.1068595E+06   0.1306736E+06
rotational constants/cm⁻¹ :        0.5903978E-03   0.1577551E-03   0.1290056E-03

 * 136 selected distances

     #   Z        #   Z                                     value/Å
     1   6 C      2   6 C                                 1.3716341
     3   6 C      4   7 N                                 1.1483048
     5   6 C      6   7 N                                 1.1486774
     7   6 C      8   6 C                                 1.4147883
     8   6 C      9   6 C                                 1.3734532
     9   6 C     10   6 C                                 1.3987457
    10   6 C     11   6 C                                 1.4149562
     7   6 C     12   6 C                                 1.3827957
    11   6 C     12   6 C                                 1.3892247
    11   6 C     13  16 S                                 1.7382400
    13  16 S     14   6 C                                 1.7438979
    10   6 C     15   6 C                                 1.4219762
    14   6 C     15   6 C                                 1.3538527
    14   6 C     16  35 Br                                1.8759899 (max)
    17   6 C     18   8 O                                 1.2126312
    19   6 C     20   6 C                                 1.3653741
    20   6 C     21   6 C                                 1.4305621
    21   6 C     22   6 C                                 1.4059506
    22   6 C     23   6 C                                 1.3720194
    23   6 C     24   6 C                                 1.4080582
    24   6 C     25   6 C                                 1.3923885
    21   6 C     26   6 C                                 1.4087349
    25   6 C     26   6 C                                 1.3745806
    24   6 C     27   6 C                                 1.4389633
    27   6 C     28   6 C                                 1.4090154
    30   6 C     31   6 C                                 1.5229308
    32   6 C     33   6 C                                 1.5233625
    28   6 C     34   6 C                                 1.3722017
    34   6 C     35   6 C                                 1.4073378
    35   6 C     36   6 C                                 1.4074411
    27   6 C     37   6 C                                 1.3902939
    36   6 C     37   6 C                                 1.3755378
    38   6 C     39   6 C                                 1.3609740
    39   6 C     40   6 C                                 1.4112541
    40   6 C     41   6 C                                 1.3744844
    41   6 C     42   6 C                                 1.4200652
    42   6 C     43   6 C                                 1.3621190
    43   6 C     44   6 C                                 1.4105170
    41   6 C     45  16 S                                 1.7543319
    44   6 C     45  16 S                                 1.7515141
    44   6 C     46   6 C                                 1.3802438
    46   6 C     47   6 C                                 1.4118159
    47   6 C     48   6 C                                 1.3621345
    48   6 C     49   6 C                                 1.4194403
    46   6 C     50  16 S                                 1.7498902
    49   6 C     50  16 S                                 1.7556203
    49   6 C     51   6 C                                 1.3712449
    51   6 C     52   6 C                                 1.4091378
    52   6 C     53   6 C                                 1.3757609
    53   6 C     54   6 C                                 1.4066412
    54   6 C     55   6 C                                 1.4210236
    55   6 C     56  16 S                                 1.7456452
    55   6 C     57   6 C                                 1.3819597
    58   6 C     59   6 C                                 1.3938966
    59   6 C     60   6 C                                 1.3793612
    60   6 C     61   6 C                                 1.3910511
    61   6 C     62   6 C                                 1.3879675
    58   6 C     63   6 C                                 1.3907112
    62   6 C     63   6 C                                 1.3824516
    57   6 C     65   6 C                                 1.4100336
    65   6 C     66   6 C                                 1.4211366
    54   6 C     67   6 C                                 1.4104349
    66   6 C     67   6 C                                 1.3822441
    68   6 C     69   6 C                                 1.3943198
    69   6 C     70   6 C                                 1.3793130
    70   6 C     71   6 C                                 1.3910436
    71   6 C     72   6 C                                 1.3879553
    68   6 C     73   6 C                                 1.3907868
    72   6 C     73   6 C                                 1.3827467
    66   6 C     75  16 S                                 1.7448626
    65   6 C     77   6 C                                 1.4083835
    76   6 C     77   6 C                                 1.3738920
    76   6 C     78   6 C                                 1.4107240
    78   6 C     79   6 C                                 1.3677945
    79   6 C     80   6 C                                 1.4229679
    80   6 C     81   6 C                                 1.3569737
    81   6 C     82   6 C                                 1.4181571
    79   6 C     83  16 S                                 1.7574480
    82   6 C     83  16 S                                 1.7546225
    82   6 C     84   6 C                                 1.3724984
    84   6 C     85   6 C                                 1.4234991
    85   6 C     86   6 C                                 1.3506619
    86   6 C     87   6 C                                 1.4354886
    84   6 C     88  16 S                                 1.7540884
    87   6 C     89   6 C                                 1.3396513
     9   6 C     90   1 H                                 1.0787908
    12   6 C     91   1 H                                 1.0771292
    15   6 C     92   1 H                                 1.0747665
    20   6 C     93   1 H                                 1.0849100
    22   6 C     94   1 H                                 1.0748165
    25   6 C     95   1 H                                 1.0796529
    26   6 C     96   1 H                                 1.0806921
    30   6 C     97   1 H                                 1.0905498
    30   6 C     98   1 H                                 1.0933702
    31   6 C     99   1 H                                 1.0868896
    31   6 C    100   1 H                                 1.0880641
    31   6 C    101   1 H                                 1.0865610
    32   6 C    102   1 H                                 1.0913501
    32   6 C    103   1 H                                 1.0937641
    33   6 C    104   1 H                                 1.0864007
    33   6 C    105   1 H                                 1.0884539
    33   6 C    106   1 H                                 1.0862161
    34   6 C    107   1 H                                 1.0778960
    36   6 C    108   1 H                                 1.0805599
    37   6 C    109   1 H                                 1.0798675
    38   6 C    110   1 H                                 1.0804137
    39   6 C    111   1 H                                 1.0820892
    40   6 C    112   1 H                                 1.0836266
    42   6 C    113   1 H                                 1.0761944
    43   6 C    114   1 H                                 1.0754828
    47   6 C    115   1 H                                 1.0754778
    48   6 C    116   1 H                                 1.0760091
    51   6 C    117   1 H                                 1.0822561
    53   6 C    118   1 H                                 1.0728517 (min)
    59   6 C    119   1 H                                 1.0803040
    60   6 C    120   1 H                                 1.0805874
    62   6 C    121   1 H                                 1.0808644
    63   6 C    122   1 H                                 1.0801332
    64   6 C    123   1 H                                 1.0892442
    64   6 C    124   1 H                                 1.0897204
    64   6 C    125   1 H                                 1.0870790
    69   6 C    126   1 H                                 1.0803980
    70   6 C    127   1 H                                 1.0807205
    72   6 C    128   1 H                                 1.0802888
    73   6 C    129   1 H                                 1.0801113
    74   6 C    130   1 H                                 1.0899024
    74   6 C    131   1 H                                 1.0892356
    74   6 C    132   1 H                                 1.0869703
    77   6 C    133   1 H                                 1.0732534
    78   6 C    134   1 H                                 1.0824288
    80   6 C    135   1 H                                 1.0760055
    81   6 C    136   1 H                                 1.0753028
    85   6 C    137   1 H                                 1.0757446
    86   6 C    138   1 H                                 1.0756257
    89   6 C    139   1 H                                 1.0756686
    89   6 C    140   1 H                                 1.0745102

 * 6 distinct bonds (by element types)

   Z      Z             #   av. dist./Å        max./Å        min./Å
   1 H    6 C          51     1.0817490     1.0937641     1.0728517
   6 C    6 C          70     1.3965877     1.5233625     1.3396513
   6 C    7 N           2     1.1484911     1.1486774     1.1483048
   6 C    8 O           1     1.2126312     1.2126312     1.2126312
   6 C   16 S          11     1.7500146     1.7574480     1.7382400
   6 C   35 Br          1     1.8759899     1.8759899     1.8759899


optimized geometry written to: xtbopt.xyz


           -------------------------------------------------
          | TOTAL ENERGY             -229.630356009948 Eh   |
          | GRADIENT NORM               0.000590887210 Eh/α |
          | HOMO-LUMO GAP               0.384226931846 eV   |
           -------------------------------------------------

------------------------------------------------------------------------
 * finished run on 2021/06/15 at 00:28:17.555     
------------------------------------------------------------------------
 total:
 * wall-time:     0 d,  0 h, 11 min, 30.847 sec
 *  cpu-time:     0 d,  1 h, 25 min,  0.093 sec
 * ratio c/w:     7.382 speedup
 SCF:
 * wall-time:     0 d,  0 h,  0 min,  4.526 sec
 *  cpu-time:     0 d,  0 h,  0 min, 32.749 sec
 * ratio c/w:     7.235 speedup
 ANC optimizer:
 * wall-time:     0 d,  0 h, 11 min, 26.164 sec
 *  cpu-time:     0 d,  1 h, 24 min, 26.286 sec
 * ratio c/w:     7.383 speedup

