      -----------------------------------------------------------      
     |                   =====================                   |     
     |                           x T B                           |     
     |                   =====================                   |     
     |                         S. Grimme                         |     
     |          Mulliken Center for Theoretical Chemistry        |     
     |                    University of Bonn                     |     
     |                Version 6.2 RC2 (SAW190805)                |     
      -----------------------------------------------------------      

   This program is distributed in the hope that it will be useful,
   but WITHOUT ANY WARRANTY; without even the implied warranty of
   MERCHANTABILITY or FITNESS FOR A PARTICULAR PURPOSE.
   
   FOR NON-COMMERCIAL, ACADEMIA USE ONLY.
   
   Cite this work as:
   * S. Grimme, C. Bannwarth, P. Shushkov, J. Chem. Theory Comput., 2017,
     13, 1989-2009. DOI: 10.1021/acs.jctc.7b00118
   * C. Bannwarth, S. Ehlert and S. Grimme., J. Chem. Theory Comput., 2019,
     15, 1652-1671. DOI: 10.1021/acs.jctc.8b01176
   * P. Pracht, E. Caldeweyher, S. Ehlert, S. Grimme, ChemRxiv, 2019, preprint.
     DOI: 10.26434/chemrxiv.8326202.v1
   
   for DFT-D4:
   * E. Caldeweyher, C. Bannwarth and S. Grimme, J. Chem. Phys., 2017,
     147, 034112. DOI: 10.1063/1.4993215
   * E. Caldeweyher, S. Ehlert, A. Hansen, H. Neugebauer, S. Spicher,
     C. Bannwarth and S. Grimme, J. Chem. Phys., 2019, 150, 154122.
     DOI: 10.1063/1.5090222
   
   for sTDA-xTB:
   * S. Grimme and C. Bannwarth, J. Chem. Phys., 2016, 145, 054103.
     DOI: 10.1063/1.4959605
   
   in the mass-spec context:
   * V. Asgeirsson, C. Bauer and S. Grimme, Chem. Sci., 2017, 8, 4879.
     DOI: 10.1039/c7sc00601b
   
   for metadynamics refer to:
   * S. Grimme, J. Chem. Theory Comput., 2019, 155, 2847-2862
     DOI: 10.1021/acs.jctc.9b00143
   
   with help from (in alphabetical order)
   C. Bannwarth, F. Bohle, G. Brandenburg, E. Caldeweyher, M. Checinski,
   S. Dohm, S. Ehlert, S. Ehrlich, F. März, H. Neugebauer, J. Pisarek,
   P. Pracht, P. Shushkov, and S. Spicher.
   
 * started run on 2021/06/12 at 02:46:36.254     

           -------------------------------------------------
          |                Calculation Setup                |
           -------------------------------------------------

          program call               : /ihome/ghutchison/geoffh/xtb/xtb /ihome/ghutchison/blp62/GA/running_GA/sequence/generations/113/275_47_116_482_47_10320.xyz -opt
          hostname                   : smp-n47
          coordinate file            : /ihome/ghutchison/blp62/GA/running_GA/sequence/generations/113/275_47_116_482_47_10320.xyz
          omp threads                :                    12
          number of atoms            :                    97
          number of electrons        :                   324
          charge                     :                     0
          spin                       :                   0.0
          first test random number   :      0.22433349493348


########################################################################
# WARNING! Please study the warnings concerning your input carefully
#  - XTBPATH is not set, using XTBHOME instead
#  - the use of '-opt' is discouraged, please use '--opt' next time
########################################################################

           ------------------------------------------------- 
          |                 G F N 2 - x T B                 |
          | Geometry, Frequencies, Noncovalent interactions |
          |            JCTC 2019 parametrisation            |
           ------------------------------------------------- 
             KAB for C  - Si     :                1.0500
             KAB for H  - Pd     :                0.9500
             k(s)              :                1.8500
             k(p)              :                2.2300
             k(d)              :                2.2300
             k(f)              :                2.0000
             kEN (H0ij)        :               -2.0000
             D4 a1             :                0.5200
             D4 a2             :                5.0000
             D4 s6             :                1.0000
             D4 s8             :                2.7000
             D4 s9             :                5.0000
             alphaj            :                2.0000

  Z AO/shell   Hii/eV     exponent
  1     Wed Apr 25 08:07:45 CEST 2018   EN: 2.200 GM2: 0.406  GM3: 0.0800  RAES: 1.40
     1s    -10.707211    1.230000
  6     Wed Apr 25 08:07:45 CEST 2018   EN: 2.550 GM2: 0.538  GM3: 0.1500  RAES: 3.00
     2s    -13.970922    2.096432
     2p    -10.063292    1.800000
  7     Wed Apr 25 08:07:45 CEST 2018   EN: 3.040 GM2: 0.461  GM3:-0.0640  RAES: 1.90
     2s    -16.686243    2.339881
     2p    -12.523956    2.014332
  8     Wed Apr 25 08:07:45 CEST 2018   EN: 3.440 GM2: 0.452  GM3:-0.0517  RAES: 1.80
     2s    -20.229985    2.439742
     2p    -15.503117    2.137023
 16     Tue Apr 24 11:44:34 CEST 2018   EN: 2.580 GM2: 0.340  GM3:-0.0502  RAES: 3.10
     3s    -20.029654    1.981333
     3p    -11.377694    2.025643
     3d     -0.420282    1.702555
 35     Tue Apr 24 12:21:41 CEST 2018   EN: 2.960 GM2: 0.261  GM3: 0.1300  RAES: 4.00
     4s    -23.583718    2.077587
     4p    -12.588824    2.263120
     4d      0.047980    1.845038

           ------------------------------------------------- 
          |        Self-Consistent Charge Iterations        |
           ------------------------------------------------- 

          ...................................................
          :                      SETUP                      :
          :.................................................:
          :  # basis functions                 358          :
          :  # atomic orbitals                 348          :
          :  # shells                          174          :
          :  # electrons                       324          :
          :  max. iterations                   250          :
          :  Hamiltonian                  GFN2-xTB          :
          :  restarted?                      false          :
          :  GBSA solvation                  false          :
          :  PC potential                    false          :
          :  electronic temp.          300.0000000     K    :
          :  accuracy                    1.0000000          :
          :  -> integral cutoff          0.2500000E+02      :
          :  -> integral neglect         0.1000000E-07      :
          :  -> SCF convergence          0.1000000E-05 Eh   :
          :  -> wf. convergence          0.1000000E-03 e    :
          :  Broyden damping             0.4000000          :
          ...................................................

 iter      E             dE          RMSdq      gap      omega  full diag
   1   -177.1239414 -0.177124E+03  0.490E+00    1.24       0.0  T
   2   -177.1734596 -0.495182E-01  0.300E+00    1.07       1.0  T
   3   -176.8263552  0.347104E+00  0.216E+00    0.38       1.0  T
   4   -177.2621882 -0.435833E+00  0.755E-01    0.62       1.0  T
   5   -177.2988481 -0.366599E-01  0.419E-01    0.50       1.0  T
   6   -177.3089708 -0.101227E-01  0.214E-01    0.50       1.0  T
   7   -177.3121591 -0.318837E-02  0.115E-01    0.51       1.0  T
   8   -177.3129626 -0.803465E-03  0.564E-02    0.51       1.0  T
   9   -177.3130573 -0.947156E-04  0.385E-02    0.51       1.0  T
  10   -177.3130606 -0.328163E-05  0.298E-02    0.51       1.0  T
  11   -177.3130857 -0.250857E-04  0.195E-02    0.51       1.0  T
  12   -177.3130898 -0.413442E-05  0.139E-02    0.51       1.0  T
  13   -177.3130960 -0.615779E-05  0.832E-03    0.51       1.2  T
  14   -177.3131005 -0.448847E-05  0.407E-03    0.51       2.5  T
  15   -177.3131012 -0.731338E-06  0.188E-03    0.51       5.4  T
  16   -177.3131013 -0.148493E-06  0.899E-04    0.51      11.3  T
  17   -177.3131013 -0.143116E-07  0.558E-04    0.51      18.2  T

   *** convergence criteria satisfied after 17 iterations ***

         #    Occupation            Energy/Eh            Energy/eV
      -------------------------------------------------------------
         1        2.0000           -0.8568164             -23.3152
       ...           ...                  ...                  ...
       156        2.0000           -0.3859289             -10.5017
       157        2.0000           -0.3825320             -10.4092
       158        2.0000           -0.3697909             -10.0625
       159        2.0000           -0.3694196             -10.0524
       160        2.0000           -0.3655783              -9.9479
       161        2.0000           -0.3551736              -9.6648
       162        1.9999           -0.3486586              -9.4875 (HOMO)
       163        0.0001           -0.3300688              -8.9816 (LUMO)
       164                         -0.3152377              -8.5781
       165                         -0.2982688              -8.1163
       166                         -0.2972840              -8.0895
       167                         -0.2795836              -7.6079
       ...                                ...                  ...
       348                          1.0989937              29.9051
      -------------------------------------------------------------
                  HL-Gap            0.0185899 Eh            0.5059 eV
             Fermi-level           -0.3393632 Eh           -9.2345 eV

 SCC (total)                   0 d,  0 h,  0 min,  0.261 sec
 SCC setup                      ...        0 min,  0.002 sec (  0.807%)
 Dispersion                     ...        0 min,  0.005 sec (  1.755%)
 integral evaluation            ...        0 min,  0.028 sec ( 10.713%)
 zeroth order Hamiltonian       ...        0 min,  0.001 sec (  0.516%)
 iterations                     ...        0 min,  0.203 sec ( 77.699%)
 molecular gradient             ...        0 min,  0.021 sec (  8.060%)
 printout                       ...        0 min,  0.001 sec (  0.408%)

         :::::::::::::::::::::::::::::::::::::::::::::::::::::
         ::                     SUMMARY                     ::
         :::::::::::::::::::::::::::::::::::::::::::::::::::::
         :: total energy            -174.669714931847 Eh    ::
         :: gradient norm              0.177135704531 Eh/a0 ::
         :: HOMO-LUMO gap              0.505855573328 eV    ::
         ::.................................................::
         :: SCC energy              -177.313101344805 Eh    ::
         :: -> isotropic ES            0.064432239985 Eh    ::
         :: -> anisotropic ES          0.012729109211 Eh    ::
         :: -> anisotropic XC          0.107336222566 Eh    ::
         :: -> dispersion             -0.148766907619 Eh    ::
         :: repulsion energy           2.644267527534 Eh    ::
         :: add. restraining           0.000000000000 Eh    ::
         :::::::::::::::::::::::::::::::::::::::::::::::::::::

      ----------------------------------------------------------- 
     |                   =====================                   |
     |                        A N C O P T                        |
     |                   =====================                   |
     |               Approximate Normal Coordinate               |
     |                Rational Function Optimizer                |
      ----------------------------------------------------------- 

          ...................................................
          :                      SETUP                      :
          :.................................................:
          :   optimization level            normal          :
          :   max. optcycles                   291          :
          :   ANC micro-cycles                  20          :
          :   degrees of freedom               285          :
          :.................................................:
          :   RF solver                   davidson          :
          :   input Hessian                  false          :
          :   write xtbopt.log                true          :
          :   linear?                        false          :
          :   energy convergence         0.5000000E-05 Eh   :
          :   grad. convergence          0.1000000E-02 Eh/α :
          :   maximium RF displ.         2.0000000          :
          :   Hlow (freq-cutoff)         0.5000000E-02      :
          :   Hmax (freq-cutoff)         5.0000000          :
          :   S6 in model hess.         20.0000000          :
          ...................................................

generating ANC from model Hessian ...
Using Lindh-Hessian (1995)
 Shifting diagonal of input Hessian by   5.007100717455647E-003
 Lowest  eigenvalues of input Hessian
    0.005000   -0.000000   -0.000000   -0.000000   -0.000000    0.000000
    0.000000    0.005019    0.005048    0.005059    0.005072    0.005130
    0.005221    0.005261    0.005288    0.005403    0.005614    0.005670
 Highest eigenvalues
    2.060615    2.071890    2.077964    2.254871    2.525417    2.569738
 

........................................................................
.............................. CYCLE    1 ..............................
........................................................................
   1   -177.3131013 -0.177313E+03  0.321E-04    0.51       0.0  T
   2   -177.3131013  0.274076E-08  0.321E-04    0.51      31.6  T
   3   -177.3131014 -0.840021E-08  0.162E-04    0.51      62.5  T
     SCC iter.                  ...        0 min,  0.037 sec
     gradient                   ...        0 min,  0.021 sec
 * total energy  :  -174.6697149 Eh     change        0.1687093E-07 Eh
   gradient norm :     0.1771364 Eh/α   predicted     0.0000000E+00 (-100.00%)
   displ. norm   :     0.4219500 α      lambda       -0.4237462E-01
   maximum displ.:     0.1142516 α      in ANC's #172, #43, #69, ...

........................................................................
.............................. CYCLE    2 ..............................
........................................................................
   1   -177.3841265 -0.177384E+03  0.406E-01    0.43       0.0  T
   2   -177.3838170  0.309537E-03  0.232E-01    0.44       1.0  T
   3   -177.3791796  0.463736E-02  0.232E-01    0.44       1.0  T
   4   -177.3844505 -0.527092E-02  0.103E-01    0.45       1.0  T
   5   -177.3857289 -0.127843E-02  0.343E-02    0.45       1.0  T
   6   -177.3857666 -0.376896E-04  0.196E-02    0.45       1.0  T
   7   -177.3857909 -0.242900E-04  0.852E-03    0.45       1.2  T
   8   -177.3857965 -0.561907E-05  0.426E-03    0.45       2.4  T
   9   -177.3857979 -0.136327E-05  0.198E-03    0.45       5.1  T
     SCC iter.                  ...        0 min,  0.104 sec
     gradient                   ...        0 min,  0.020 sec
 * total energy  :  -174.7011300 Eh     change       -0.3141506E-01 Eh
   gradient norm :     0.0892990 Eh/α   predicted    -0.2495959E-01 ( -20.55%)
   displ. norm   :     0.4775549 α      lambda       -0.2174968E-01
   maximum displ.:     0.1507763 α      in ANC's #43, #46, #57, ...

........................................................................
.............................. CYCLE    3 ..............................
........................................................................
   1   -177.4130859 -0.177413E+03  0.388E-01    0.35       0.0  T
   2   -177.4107149  0.237097E-02  0.255E-01    0.35       1.0  T
   3   -177.4034303  0.728466E-02  0.299E-01    0.38       1.0  T
   4   -177.4137209 -0.102906E-01  0.109E-01    0.37       1.0  T
   5   -177.4151071 -0.138623E-02  0.373E-02    0.37       1.0  T
   6   -177.4151468 -0.397207E-04  0.247E-02    0.37       1.0  T
   7   -177.4151831 -0.362972E-04  0.133E-02    0.37       1.0  T
   8   -177.4151985 -0.154159E-04  0.554E-03    0.37       1.8  T
   9   -177.4152009 -0.239891E-05  0.267E-03    0.37       3.8  T
  10   -177.4152016 -0.671396E-06  0.127E-03    0.37       8.0  T
     SCC iter.                  ...        0 min,  0.114 sec
     gradient                   ...        0 min,  0.020 sec
 * total energy  :  -174.7141082 Eh     change       -0.1297823E-01 Eh
   gradient norm :     0.0274621 Eh/α   predicted    -0.1335495E-01 (   2.90%)
   displ. norm   :     0.5007100 α      lambda       -0.5900108E-02
   maximum displ.:     0.1920447 α      in ANC's #32, #43, #46, ...

........................................................................
.............................. CYCLE    4 ..............................
........................................................................
   1   -177.4060278 -0.177406E+03  0.329E-01    0.33       0.0  T
   2   -177.4047516  0.127615E-02  0.200E-01    0.33       1.0  T
   3   -177.3907804  0.139712E-01  0.326E-01    0.37       1.0  T
   4   -177.4063589 -0.155785E-01  0.425E-02    0.34       1.0  T
   5   -177.4065040 -0.145073E-03  0.205E-02    0.34       1.0  T
   6   -177.4065133 -0.930800E-05  0.145E-02    0.34       1.0  T
   7   -177.4065250 -0.117049E-04  0.817E-03    0.34       1.2  T
   8   -177.4065313 -0.626826E-05  0.376E-03    0.34       2.7  T
   9   -177.4065324 -0.108794E-05  0.211E-03    0.34       4.8  T
  10   -177.4065326 -0.293990E-06  0.116E-03    0.34       8.8  T
     SCC iter.                  ...        0 min,  0.117 sec
     gradient                   ...        0 min,  0.020 sec
 * total energy  :  -174.7161634 Eh     change       -0.2055197E-02 Eh
   gradient norm :     0.0431677 Eh/α   predicted    -0.3689919E-02 (  79.54%)
   displ. norm   :     0.5609072 α      lambda       -0.8271398E-02
   maximum displ.:     0.1850956 α      in ANC's #43, #46, #57, ...

........................................................................
.............................. CYCLE    5 ..............................
........................................................................
   1   -177.4134905 -0.177413E+03  0.372E-01    0.31       0.0  T
   2   -177.4128534  0.637121E-03  0.209E-01    0.31       1.0  T
   3   -177.3973069  0.155465E-01  0.331E-01    0.37       1.0  T
   4   -177.4137204 -0.164135E-01  0.449E-02    0.33       1.0  T
   5   -177.4138744 -0.154067E-03  0.199E-02    0.32       1.0  T
   6   -177.4138717  0.278265E-05  0.166E-02    0.32       1.0  T
   7   -177.4138927 -0.210000E-04  0.796E-03    0.32       1.3  T
   8   -177.4138982 -0.556789E-05  0.388E-03    0.32       2.6  T
   9   -177.4138993 -0.105372E-05  0.241E-03    0.32       4.2  T
     SCC iter.                  ...        0 min,  0.108 sec
     gradient                   ...        0 min,  0.021 sec
 * total energy  :  -174.7190098 Eh     change       -0.2846428E-02 Eh
   gradient norm :     0.0328040 Eh/α   predicted    -0.5436866E-02 (  91.01%)
   displ. norm   :     0.2581479 α      lambda       -0.2341398E-02
   maximum displ.:     0.1091060 α      in ANC's #32, #17, #22, ...

........................................................................
.............................. CYCLE    6 ..............................
........................................................................
   1   -177.4174940 -0.177417E+03  0.149E-01    0.33       0.0  T
   2   -177.4175177 -0.236418E-04  0.811E-02    0.33       1.0  T
   3   -177.4172790  0.238678E-03  0.481E-02    0.32       1.0  T
   4   -177.4174973 -0.218290E-03  0.211E-02    0.32       1.0  T
   5   -177.4175376 -0.403436E-04  0.945E-03    0.32       1.1  T
   6   -177.4175416 -0.394734E-05  0.464E-03    0.32       2.2  T
   7   -177.4175425 -0.878364E-06  0.335E-03    0.32       3.0  T
     SCC iter.                  ...        0 min,  0.083 sec
     gradient                   ...        0 min,  0.020 sec
 * total energy  :  -174.7203860 Eh     change       -0.1376144E-02 Eh
   gradient norm :     0.0161496 Eh/α   predicted    -0.1248718E-02 (  -9.26%)
   displ. norm   :     0.5466531 α      lambda       -0.3975286E-02
   maximum displ.:     0.1847698 α      in ANC's #17, #21, #22, ...

........................................................................
.............................. CYCLE    7 ..............................
........................................................................
   1   -177.4154725 -0.177415E+03  0.345E-01    0.32       0.0  T
   2   -177.4155672 -0.946593E-04  0.189E-01    0.32       1.0  T
   3   -177.4141183  0.144890E-02  0.118E-01    0.31       1.0  T
   4   -177.4154785 -0.136028E-02  0.454E-02    0.32       1.0  T
   5   -177.4156732 -0.194618E-03  0.223E-02    0.32       1.0  T
   6   -177.4156916 -0.184226E-04  0.148E-02    0.32       1.0  T
   7   -177.4157141 -0.225252E-04  0.628E-03    0.32       1.6  T
   8   -177.4157184 -0.431648E-05  0.253E-03    0.32       4.0  T
   9   -177.4157188 -0.392781E-06  0.141E-03    0.32       7.2  T
  10   -177.4157189 -0.724077E-07  0.837E-04    0.32      12.1  T
     SCC iter.                  ...        0 min,  0.115 sec
     gradient                   ...        0 min,  0.020 sec
 * total energy  :  -174.7197671 Eh     change        0.6188327E-03 Eh
   gradient norm :     0.0532377 Eh/α   predicted    -0.2581616E-02 (-517.18%)
   displ. norm   :     0.2577561 α      lambda       -0.5095413E-02
   maximum displ.:     0.1065280 α      in ANC's #32, #7, #23, ...

........................................................................
.............................. CYCLE    8 ..............................
........................................................................
   1   -177.4231957 -0.177423E+03  0.216E-01    0.30       0.0  T
   2   -177.4232076 -0.119014E-04  0.114E-01    0.31       1.0  T
   3   -177.4213519  0.185570E-02  0.119E-01    0.32       1.0  T
   4   -177.4231995 -0.184760E-02  0.311E-02    0.31       1.0  T
   5   -177.4233026 -0.103086E-03  0.128E-02    0.31       1.0  T
   6   -177.4232993  0.327788E-05  0.120E-02    0.31       1.0  T
   7   -177.4233159 -0.166384E-04  0.268E-03    0.31       3.8  T
   8   -177.4233165 -0.556114E-06  0.124E-03    0.31       8.2  T
   9   -177.4233166 -0.652772E-07  0.694E-04    0.31      14.6  T
     SCC iter.                  ...        0 min,  0.103 sec
     gradient                   ...        0 min,  0.020 sec
 * total energy  :  -174.7224108 Eh     change       -0.2643707E-02 Eh
   gradient norm :     0.0194638 Eh/α   predicted    -0.2716976E-02 (   2.77%)
   displ. norm   :     0.3112977 α      lambda       -0.1121729E-02
   maximum displ.:     0.1260408 α      in ANC's #17, #22, #26, ...

........................................................................
.............................. CYCLE    9 ..............................
........................................................................
   1   -177.4207326 -0.177421E+03  0.182E-01    0.29       0.0  T
   2   -177.4207218  0.107426E-04  0.917E-02    0.30       1.0  T
   3   -177.4193135  0.140834E-02  0.990E-02    0.31       1.0  T
   4   -177.4207682 -0.145476E-02  0.163E-02    0.30       1.0  T
   5   -177.4207762 -0.796178E-05  0.106E-02    0.30       1.0  T
   6   -177.4207822 -0.598362E-05  0.360E-03    0.30       2.8  T
   7   -177.4207833 -0.116372E-05  0.152E-03    0.30       6.7  T
   8   -177.4207835 -0.182934E-06  0.823E-04    0.30      12.3  T
     SCC iter.                  ...        0 min,  0.093 sec
     gradient                   ...        0 min,  0.020 sec
 * total energy  :  -174.7232783 Eh     change       -0.8674590E-03 Eh
   gradient norm :     0.0112172 Eh/α   predicted    -0.6152186E-03 ( -29.08%)
   displ. norm   :     0.5766156 α      lambda       -0.1520905E-02
   maximum displ.:     0.2339045 α      in ANC's #17, #22, #26, ...

........................................................................
.............................. CYCLE   10 ..............................
........................................................................
   1   -177.4196376 -0.177420E+03  0.312E-01    0.27       0.0  T
   2   -177.4197053 -0.676033E-04  0.157E-01    0.28       1.0  T
   3   -177.4189418  0.763457E-03  0.794E-02    0.28       1.0  T
   4   -177.4196501 -0.708262E-03  0.335E-02    0.28       1.0  T
   5   -177.4196908 -0.407590E-04  0.236E-02    0.28       1.0  T
   6   -177.4197429 -0.521299E-04  0.101E-02    0.28       1.0  T
   7   -177.4197561 -0.131099E-04  0.194E-03    0.28       5.2  T
   8   -177.4197563 -0.203443E-06  0.116E-03    0.28       8.7  T
   9   -177.4197563 -0.570390E-07  0.684E-04    0.28      14.9  T
     SCC iter.                  ...        0 min,  0.106 sec
     gradient                   ...        0 min,  0.020 sec
 * total energy  :  -174.7244955 Eh     change       -0.1217202E-02 Eh
   gradient norm :     0.0127629 Eh/α   predicted    -0.1013294E-02 ( -16.75%)
   displ. norm   :     0.6122268 α      lambda       -0.1492882E-02
   maximum displ.:     0.2435896 α      in ANC's #17, #22, #26, ...

........................................................................
.............................. CYCLE   11 ..............................
........................................................................
   1   -177.4241631 -0.177424E+03  0.331E-01    0.25       0.0  T
   2   -177.4242454 -0.823423E-04  0.166E-01    0.27       1.0  T
   3   -177.4235684  0.677017E-03  0.804E-02    0.25       1.0  T
   4   -177.4242278 -0.659401E-03  0.326E-02    0.26       1.0  T
   5   -177.4242566 -0.287886E-04  0.208E-02    0.27       1.0  T
   6   -177.4242872 -0.305397E-04  0.110E-02    0.26       1.0  T
   7   -177.4243037 -0.165410E-04  0.299E-03    0.26       3.4  T
   8   -177.4243046 -0.896557E-06  0.139E-03    0.26       7.3  T
   9   -177.4243047 -0.913656E-07  0.884E-04    0.26      11.5  T
     SCC iter.                  ...        0 min,  0.105 sec
     gradient                   ...        0 min,  0.021 sec
 * total energy  :  -174.7256112 Eh     change       -0.1115682E-02 Eh
   gradient norm :     0.0145763 Eh/α   predicted    -0.1026225E-02 (  -8.02%)
   displ. norm   :     0.6121846 α      lambda       -0.1343526E-02
   maximum displ.:     0.2320336 α      in ANC's #17, #22, #15, ...

........................................................................
.............................. CYCLE   12 ..............................
........................................................................
   1   -177.4229482 -0.177423E+03  0.310E-01    0.24       0.0  T
   2   -177.4229689 -0.207050E-04  0.157E-01    0.25       1.0  T
   3   -177.4207227  0.224618E-02  0.134E-01    0.23       1.0  T
   4   -177.4230187 -0.229596E-02  0.311E-02    0.25       1.0  T
   5   -177.4229888  0.299036E-04  0.295E-02    0.25       1.0  T
   6   -177.4230601 -0.712879E-04  0.157E-02    0.25       1.0  T
   7   -177.4230930 -0.329738E-04  0.265E-03    0.25       3.8  T
   8   -177.4230935 -0.461236E-06  0.142E-03    0.25       7.1  T
   9   -177.4230936 -0.892385E-07  0.871E-04    0.25      11.7  T
     SCC iter.                  ...        0 min,  0.104 sec
     gradient                   ...        0 min,  0.020 sec
 * total energy  :  -174.7265678 Eh     change       -0.9566444E-03 Eh
   gradient norm :     0.0139092 Eh/α   predicted    -0.9235253E-03 (  -3.46%)
   displ. norm   :     0.5231034 α      lambda       -0.1247730E-02
   maximum displ.:     0.1827818 α      in ANC's #22, #17, #15, ...

........................................................................
.............................. CYCLE   13 ..............................
........................................................................
   1   -177.4332572 -0.177433E+03  0.260E-01    0.23       0.0  T
   2   -177.4332810 -0.237631E-04  0.131E-01    0.24       1.0  T
   3   -177.4319893  0.129173E-02  0.103E-01    0.21       1.0  T
   4   -177.4333156 -0.132630E-02  0.244E-02    0.23       1.0  T
   5   -177.4332750  0.405981E-04  0.240E-02    0.24       1.0  T
   6   -177.4333358 -0.608078E-04  0.124E-02    0.24       1.0  T
   7   -177.4333556 -0.197669E-04  0.204E-03    0.23       5.0  T
   8   -177.4333558 -0.255424E-06  0.111E-03    0.24       9.2  T
   9   -177.4333559 -0.374421E-07  0.727E-04    0.24      14.0  T
     SCC iter.                  ...        0 min,  0.104 sec
     gradient                   ...        0 min,  0.020 sec
 * total energy  :  -174.7274076 Eh     change       -0.8397841E-03 Eh
   gradient norm :     0.0121198 Eh/α   predicted    -0.7945834E-03 (  -5.38%)
   displ. norm   :     0.7028711 α      lambda       -0.1431808E-02
   maximum displ.:     0.2708911 α      in ANC's #22, #17, #4, ...

........................................................................
.............................. CYCLE   14 ..............................
........................................................................
   1   -177.4239863 -0.177424E+03  0.362E-01    0.20       0.0  T
   2   -177.4239776  0.872741E-05  0.182E-01    0.25       1.0  T
   3   -177.4201529  0.382470E-02  0.174E-01    0.16       1.0  T
   4   -177.4241712 -0.401831E-02  0.327E-02    0.23       1.0  T
   5   -177.4241863 -0.151084E-04  0.249E-02    0.23       1.0  T
   6   -177.4242280 -0.416233E-04  0.890E-03    0.21       1.1  T
   7   -177.4242389 -0.109884E-04  0.282E-03    0.22       3.6  T
   8   -177.4242389  0.105753E-07  0.243E-03    0.22       4.2  T
   9   -177.4242393 -0.414592E-06  0.158E-03    0.22       6.4  T
     SCC iter.                  ...        0 min,  0.106 sec
     gradient                   ...        0 min,  0.020 sec
 * total energy  :  -174.7278433 Eh     change       -0.4356675E-03 Eh
   gradient norm :     0.0228844 Eh/α   predicted    -0.1069584E-02 ( 145.50%)
   displ. norm   :     0.2676664 α      lambda       -0.1307263E-02
   maximum displ.:     0.0881969 α      in ANC's #4, #14, #23, ...

........................................................................
.............................. CYCLE   15 ..............................
........................................................................
   1   -177.4250263 -0.177425E+03  0.133E-01    0.22       0.0  T
   2   -177.4250341 -0.780148E-05  0.666E-02    0.22       1.0  T
   3   -177.4245182  0.515909E-03  0.596E-02    0.23       1.0  T
   4   -177.4250387 -0.520465E-03  0.155E-02    0.23       1.0  T
   5   -177.4250500 -0.113146E-04  0.983E-03    0.21       1.0  T
   6   -177.4250550 -0.497748E-05  0.621E-03    0.22       1.6  T
   7   -177.4250589 -0.388508E-05  0.236E-03    0.22       4.3  T
   8   -177.4250595 -0.586944E-06  0.875E-04    0.22      11.6  T
     SCC iter.                  ...        0 min,  0.095 sec
     gradient                   ...        0 min,  0.020 sec
 * total energy  :  -174.7286203 Eh     change       -0.7770218E-03 Eh
   gradient norm :     0.0103580 Eh/α   predicted    -0.7004653E-03 (  -9.85%)
   displ. norm   :     0.3882603 α      lambda       -0.8261321E-03
   maximum displ.:     0.1468005 α      in ANC's #4, #8, #14, ...

........................................................................
.............................. CYCLE   16 ..............................
........................................................................
   1   -177.4354715 -0.177435E+03  0.154E-01    0.21       0.0  T
   2   -177.4354602  0.113443E-04  0.802E-02    0.22       1.0  T
   3   -177.4344614  0.998814E-03  0.876E-02    0.19       1.0  T
   4   -177.4354952 -0.103386E-02  0.165E-02    0.22       1.0  T
   5   -177.4354826  0.125725E-04  0.163E-02    0.22       1.0  T
   6   -177.4355048 -0.221124E-04  0.948E-03    0.22       1.1  T
   7   -177.4355157 -0.109186E-04  0.181E-03    0.21       5.6  T
   8   -177.4355161 -0.416432E-06  0.757E-04    0.22      13.4  T
   9   -177.4355161 -0.258733E-07  0.535E-04    0.21      19.0  T
     SCC iter.                  ...        0 min,  0.104 sec
     gradient                   ...        0 min,  0.020 sec
 * total energy  :  -174.7290908 Eh     change       -0.4705145E-03 Eh
   gradient norm :     0.0107922 Eh/α   predicted    -0.4753389E-03 (   1.03%)
   displ. norm   :     0.6454927 α      lambda       -0.8913676E-03
   maximum displ.:     0.2284853 α      in ANC's #22, #4, #17, ...

........................................................................
.............................. CYCLE   17 ..............................
........................................................................
   1   -177.4249761 -0.177425E+03  0.321E-01    0.20       0.0  T
   2   -177.4250734 -0.972388E-04  0.158E-01    0.22       1.0  T
   3   -177.4247679  0.305432E-03  0.605E-02    0.18       1.0  T
   4   -177.4250802 -0.312212E-03  0.256E-02    0.23       1.0  T
   5   -177.4250146  0.655768E-04  0.275E-02    0.19       1.0  T
   6   -177.4251138 -0.992327E-04  0.928E-03    0.21       1.1  T
   7   -177.4251246 -0.107947E-04  0.373E-03    0.21       2.7  T
   8   -177.4251266 -0.195739E-05  0.153E-03    0.21       6.6  T
   9   -177.4251267 -0.950176E-07  0.958E-04    0.21      10.6  T
     SCC iter.                  ...        0 min,  0.106 sec
     gradient                   ...        0 min,  0.020 sec
 * total energy  :  -174.7296131 Eh     change       -0.5223092E-03 Eh
   gradient norm :     0.0133522 Eh/α   predicted    -0.6313847E-03 (  20.88%)
   displ. norm   :     0.4664713 α      lambda       -0.7226610E-03
   maximum displ.:     0.1827111 α      in ANC's #4, #8, #14, ...

........................................................................
.............................. CYCLE   18 ..............................
........................................................................
   1   -177.4241864 -0.177424E+03  0.207E-01    0.20       0.0  T
   2   -177.4241953 -0.889275E-05  0.103E-01    0.21       1.0  T
   3   -177.4231717  0.102356E-02  0.922E-02    0.18       1.0  T
   4   -177.4242383 -0.106664E-02  0.171E-02    0.21       1.0  T
   5   -177.4241670  0.713491E-04  0.244E-02    0.20       1.0  T
   6   -177.4242487 -0.816835E-04  0.720E-03    0.21       1.4  T
   7   -177.4242539 -0.522055E-05  0.167E-03    0.21       6.1  T
   8   -177.4242541 -0.229657E-06  0.841E-04    0.21      12.1  T
   9   -177.4242542 -0.310930E-07  0.512E-04    0.21      19.8  T
     SCC iter.                  ...        0 min,  0.104 sec
     gradient                   ...        0 min,  0.020 sec
 * total energy  :  -174.7300355 Eh     change       -0.4223868E-03 Eh
   gradient norm :     0.0111814 Eh/α   predicted    -0.4399562E-03 (   4.16%)
   displ. norm   :     0.3897167 α      lambda       -0.6973672E-03
   maximum displ.:     0.1658733 α      in ANC's #4, #8, #10, ...

........................................................................
.............................. CYCLE   19 ..............................
........................................................................
   1   -177.4334870 -0.177433E+03  0.146E-01    0.20       0.0  T
   2   -177.4335002 -0.131906E-04  0.737E-02    0.21       1.0  T
   3   -177.4330945  0.405665E-03  0.558E-02    0.18       1.0  T
   4   -177.4334880 -0.393532E-03  0.178E-02    0.21       1.0  T
   5   -177.4335102 -0.221974E-04  0.985E-03    0.21       1.0  T
   6   -177.4335138 -0.358037E-05  0.583E-03    0.20       1.7  T
   7   -177.4335195 -0.564672E-05  0.150E-03    0.21       6.8  T
   8   -177.4335196 -0.161301E-06  0.892E-04    0.21      11.4  T
   9   -177.4335197 -0.223081E-07  0.656E-04    0.20      15.5  T
     SCC iter.                  ...        0 min,  0.105 sec
     gradient                   ...        0 min,  0.020 sec
 * total energy  :  -174.7303230 Eh     change       -0.2874491E-03 Eh
   gradient norm :     0.0149346 Eh/α   predicted    -0.4016440E-03 (  39.73%)
   displ. norm   :     0.4043945 α      lambda       -0.7764171E-03
   maximum displ.:     0.1790341 α      in ANC's #8, #4, #6, ...

........................................................................
.............................. CYCLE   20 ..............................
........................................................................
   1   -177.4398118 -0.177440E+03  0.160E-01    0.21       0.0  T
   2   -177.4398277 -0.158998E-04  0.787E-02    0.19       1.0  T
   3   -177.4395088  0.318904E-03  0.515E-02    0.24       1.0  T
   4   -177.4398278 -0.319040E-03  0.178E-02    0.21       1.0  T
   5   -177.4398205  0.728788E-05  0.164E-02    0.19       1.0  T
   6   -177.4398495 -0.290291E-04  0.792E-03    0.21       1.3  T
   7   -177.4398555 -0.594250E-05  0.350E-03    0.21       2.9  T
   8   -177.4398572 -0.170840E-05  0.115E-03    0.20       8.8  T
   9   -177.4398573 -0.147040E-06  0.540E-04    0.20      18.8  T
     SCC iter.                  ...        0 min,  0.103 sec
     gradient                   ...        0 min,  0.020 sec
 * total energy  :  -174.7307864 Eh     change       -0.4634451E-03 Eh
   gradient norm :     0.0115558 Eh/α   predicted    -0.4516968E-03 (  -2.53%)
   displ. norm   :     0.5609525 α      lambda       -0.7647846E-03
   maximum displ.:     0.2262254 α      in ANC's #4, #8, #22, ...
 * RMSD in coord.:     0.6999220 α      energy gain  -0.6107148E-01 Eh

generating ANC from model Hessian ...
Using Lindh-Hessian (1995)
 Shifting diagonal of input Hessian by   4.988580231510538E-003
 Lowest  eigenvalues of input Hessian
   -0.000000   -0.000000   -0.000000   -0.000000   -0.000000    0.000000
    0.005000    0.005005    0.005031    0.005046    0.005066    0.005116
    0.005219    0.005284    0.005382    0.005581    0.005621    0.005738
 Highest eigenvalues
    2.090265    2.092235    2.104016    2.272077    2.603618    2.647469
 

........................................................................
.............................. CYCLE   21 ..............................
........................................................................
   1   -177.4285796 -0.177429E+03  0.246E-01    0.19       0.0  T
   2   -177.4286066 -0.269609E-04  0.122E-01    0.21       1.0  T
   3   -177.4269074  0.169916E-02  0.106E-01    0.15       1.0  T
   4   -177.4285964 -0.168902E-02  0.288E-02    0.22       1.0  T
   5   -177.4286385 -0.420702E-04  0.205E-02    0.20       1.0  T
   6   -177.4286531 -0.146241E-04  0.137E-02    0.20       1.0  T
   7   -177.4286786 -0.254957E-04  0.262E-03    0.20       3.9  T
   8   -177.4286793 -0.679220E-06  0.120E-03    0.20       8.5  T
   9   -177.4286794 -0.102132E-06  0.692E-04    0.20      14.7  T
  10   -177.4286794 -0.142963E-07  0.499E-04    0.20      20.3  T
     SCC iter.                  ...        0 min,  0.117 sec
     gradient                   ...        0 min,  0.023 sec
 * total energy  :  -174.7310918 Eh     change       -0.3053881E-03 Eh
   gradient norm :     0.0146322 Eh/α   predicted     0.0000000E+00 (-100.00%)
   displ. norm   :     0.2054184 α      lambda       -0.8065808E-03
   maximum displ.:     0.0897977 α      in ANC's #7, #6, #13, ...

........................................................................
.............................. CYCLE   22 ..............................
........................................................................
   1   -177.4319432 -0.177432E+03  0.108E-01    0.20       0.0  T
   2   -177.4319543 -0.110815E-04  0.553E-02    0.20       1.0  T
   3   -177.4318871  0.672138E-04  0.234E-02    0.20       1.0  T
   4   -177.4319394 -0.523193E-04  0.138E-02    0.20       1.0  T
   5   -177.4319541 -0.146807E-04  0.829E-03    0.21       1.2  T
   6   -177.4319592 -0.510245E-05  0.378E-03    0.20       2.7  T
   7   -177.4319613 -0.213987E-05  0.127E-03    0.20       8.0  T
   8   -177.4319615 -0.160858E-06  0.660E-04    0.20      15.4  T
     SCC iter.                  ...        0 min,  0.093 sec
     gradient                   ...        0 min,  0.021 sec
 * total energy  :  -174.7315481 Eh     change       -0.4562773E-03 Eh
   gradient norm :     0.0070701 Eh/α   predicted    -0.4203082E-03 (  -7.88%)
   displ. norm   :     0.2263964 α      lambda       -0.6455714E-03
   maximum displ.:     0.0820076 α      in ANC's #7, #6, #13, ...

........................................................................
.............................. CYCLE   23 ..............................
........................................................................
   1   -177.4363069 -0.177436E+03  0.127E-01    0.20       0.0  T
   2   -177.4363234 -0.165638E-04  0.675E-02    0.21       1.0  T
   3   -177.4362742  0.492295E-04  0.227E-02    0.20       1.0  T
   4   -177.4363040 -0.298414E-04  0.150E-02    0.21       1.0  T
   5   -177.4363235 -0.194321E-04  0.866E-03    0.20       1.2  T
   6   -177.4363315 -0.799887E-05  0.244E-03    0.20       4.2  T
   7   -177.4363321 -0.590658E-06  0.114E-03    0.20       8.9  T
   8   -177.4363321 -0.821491E-07  0.724E-04    0.20      14.0  T
     SCC iter.                  ...        0 min,  0.092 sec
     gradient                   ...        0 min,  0.021 sec
 * total energy  :  -174.7317356 Eh     change       -0.1875483E-03 Eh
   gradient norm :     0.0088628 Eh/α   predicted    -0.3393306E-03 (  80.93%)
   displ. norm   :     0.2183313 α      lambda       -0.5777505E-03
   maximum displ.:     0.0784779 α      in ANC's #7, #6, #12, ...

........................................................................
.............................. CYCLE   24 ..............................
........................................................................
   1   -177.4368265 -0.177437E+03  0.113E-01    0.20       0.0  T
   2   -177.4368320 -0.550149E-05  0.611E-02    0.21       1.0  T
   3   -177.4365077  0.324280E-03  0.450E-02    0.19       1.0  T
   4   -177.4368357 -0.327992E-03  0.108E-02    0.20       1.0  T
   5   -177.4368390 -0.334041E-05  0.757E-03    0.21       1.3  T
   6   -177.4368464 -0.732309E-05  0.343E-03    0.20       3.0  T
   7   -177.4368480 -0.160215E-05  0.101E-03    0.21      10.0  T
   8   -177.4368480 -0.400071E-07  0.666E-04    0.21      15.3  T
     SCC iter.                  ...        0 min,  0.093 sec
     gradient                   ...        0 min,  0.020 sec
 * total energy  :  -174.7319844 Eh     change       -0.2488136E-03 Eh
   gradient norm :     0.0102804 Eh/α   predicted    -0.3026470E-03 (  21.64%)
   displ. norm   :     0.3907638 α      lambda       -0.1116773E-02
   maximum displ.:     0.1450406 α      in ANC's #7, #6, #13, ...

........................................................................
.............................. CYCLE   25 ..............................
........................................................................
   1   -177.4331500 -0.177433E+03  0.181E-01    0.20       0.0  T
   2   -177.4331522 -0.216470E-05  0.961E-02    0.22       1.0  T
   3   -177.4319006  0.125159E-02  0.880E-02    0.17       1.0  T
   4   -177.4331695 -0.126888E-02  0.204E-02    0.21       1.0  T
   5   -177.4331898 -0.203582E-04  0.143E-02    0.22       1.0  T
   6   -177.4332069 -0.170364E-04  0.775E-03    0.20       1.3  T
   7   -177.4332152 -0.838097E-05  0.208E-03    0.21       4.9  T
   8   -177.4332155 -0.264666E-06  0.123E-03    0.21       8.2  T
   9   -177.4332156 -0.104008E-06  0.716E-04    0.21      14.2  T
     SCC iter.                  ...        0 min,  0.104 sec
     gradient                   ...        0 min,  0.020 sec
 * total energy  :  -174.7323889 Eh     change       -0.4044681E-03 Eh
   gradient norm :     0.0111225 Eh/α   predicted    -0.6436505E-03 (  59.14%)
   displ. norm   :     0.3403018 α      lambda       -0.8858592E-03
   maximum displ.:     0.1283096 α      in ANC's #7, #6, #13, ...

........................................................................
.............................. CYCLE   26 ..............................
........................................................................
   1   -177.4320948 -0.177432E+03  0.140E-01    0.21       0.0  T
   2   -177.4321105 -0.157398E-04  0.714E-02    0.22       1.0  T
   3   -177.4318586  0.251929E-03  0.438E-02    0.20       1.0  T
   4   -177.4320900 -0.231370E-03  0.184E-02    0.21       1.0  T
   5   -177.4321071 -0.170929E-04  0.126E-02    0.22       1.0  T
   6   -177.4321261 -0.190690E-04  0.460E-03    0.21       2.2  T
   7   -177.4321290 -0.285198E-05  0.141E-03    0.21       7.2  T
   8   -177.4321291 -0.160115E-06  0.730E-04    0.21      13.9  T
     SCC iter.                  ...        0 min,  0.095 sec
     gradient                   ...        0 min,  0.020 sec
 * total energy  :  -174.7331497 Eh     change       -0.7607934E-03 Eh
   gradient norm :     0.0095143 Eh/α   predicted    -0.4942262E-03 ( -35.04%)
   displ. norm   :     0.7258780 α      lambda       -0.1500413E-02
   maximum displ.:     0.2775369 α      in ANC's #6, #7, #13, ...

........................................................................
.............................. CYCLE   27 ..............................
........................................................................
   1   -177.4279981 -0.177428E+03  0.297E-01    0.22       0.0  T
   2   -177.4280011 -0.306560E-05  0.152E-01    0.25       1.0  T
   3   -177.4245661  0.343502E-02  0.160E-01    0.20       1.0  T
   4   -177.4279821 -0.341597E-02  0.430E-02    0.22       1.0  T
   5   -177.4281611 -0.179005E-03  0.217E-02    0.25       1.0  T
   6   -177.4281922 -0.311504E-04  0.121E-02    0.23       1.0  T
   7   -177.4282048 -0.125627E-04  0.640E-03    0.23       1.6  T
   8   -177.4282093 -0.444587E-05  0.168E-03    0.23       6.0  T
   9   -177.4282094 -0.177991E-06  0.946E-04    0.23      10.7  T
  10   -177.4282094 -0.926289E-08  0.641E-04    0.23      15.8  T
     SCC iter.                  ...        0 min,  0.116 sec
     gradient                   ...        0 min,  0.020 sec
 * total energy  :  -174.7343796 Eh     change       -0.1229858E-02 Eh
   gradient norm :     0.0109871 Eh/α   predicted    -0.1145491E-02 (  -6.86%)
   displ. norm   :     0.7593266 α      lambda       -0.1278744E-02
   maximum displ.:     0.3054123 α      in ANC's #6, #7, #13, ...

........................................................................
.............................. CYCLE   28 ..............................
........................................................................
   1   -177.4246861 -0.177425E+03  0.295E-01    0.24       0.0  T
   2   -177.4245309  0.155198E-03  0.154E-01    0.28       1.0  T
   3   -177.4182803  0.625058E-02  0.216E-01    0.23       1.0  T
   4   -177.4246988 -0.641850E-02  0.465E-02    0.24       1.0  T
   5   -177.4249460 -0.247160E-03  0.203E-02    0.27       1.0  T
   6   -177.4249557 -0.973002E-05  0.141E-02    0.26       1.0  T
   7   -177.4249725 -0.167934E-04  0.719E-03    0.26       1.4  T
   8   -177.4249779 -0.535408E-05  0.191E-03    0.26       5.3  T
   9   -177.4249782 -0.299448E-06  0.949E-04    0.26      10.7  T
  10   -177.4249782 -0.311624E-07  0.647E-04    0.26      15.7  T
     SCC iter.                  ...        0 min,  0.114 sec
     gradient                   ...        0 min,  0.020 sec
 * total energy  :  -174.7354923 Eh     change       -0.1112729E-02 Eh
   gradient norm :     0.0140902 Eh/α   predicted    -0.1008041E-02 (  -9.41%)
   displ. norm   :     0.6719647 α      lambda       -0.1569970E-02
   maximum displ.:     0.2993793 α      in ANC's #6, #7, #13, ...

........................................................................
.............................. CYCLE   29 ..............................
........................................................................
   1   -177.4346087 -0.177435E+03  0.246E-01    0.26       0.0  T
   2   -177.4344099  0.198790E-03  0.131E-01    0.30       1.0  T
   3   -177.4289172  0.549271E-02  0.200E-01    0.27       1.0  T
   4   -177.4346593 -0.574216E-02  0.364E-02    0.26       1.0  T
   5   -177.4347962 -0.136860E-03  0.173E-02    0.29       1.0  T
   6   -177.4347998 -0.364290E-05  0.129E-02    0.28       1.0  T
   7   -177.4348162 -0.163829E-04  0.574E-03    0.28       1.8  T
   8   -177.4348196 -0.332651E-05  0.170E-03    0.28       6.0  T
   9   -177.4348198 -0.242065E-06  0.790E-04    0.28      12.9  T
  10   -177.4348198 -0.317044E-07  0.498E-04    0.28      20.4  T
     SCC iter.                  ...        0 min,  0.114 sec
     gradient                   ...        0 min,  0.020 sec
 * total energy  :  -174.7366621 Eh     change       -0.1169836E-02 Eh
   gradient norm :     0.0126252 Eh/α   predicted    -0.1139433E-02 (  -2.60%)
   displ. norm   :     0.7394401 α      lambda       -0.1640537E-02
   maximum displ.:     0.3257036 α      in ANC's #6, #7, #13, ...

........................................................................
.............................. CYCLE   30 ..............................
........................................................................
   1   -177.4332337 -0.177433E+03  0.256E-01    0.28       0.0  T
   2   -177.4324238  0.809889E-03  0.148E-01    0.33       1.0  T
   3   -177.4242171  0.820669E-02  0.252E-01    0.31       1.0  T
   4   -177.4334053 -0.918812E-02  0.411E-02    0.29       1.0  T
   5   -177.4335953 -0.190094E-03  0.180E-02    0.31       1.0  T
   6   -177.4336077 -0.123550E-04  0.105E-02    0.31       1.0  T
   7   -177.4336174 -0.974167E-05  0.484E-03    0.31       2.1  T
   8   -177.4336195 -0.203253E-05  0.263E-03    0.31       3.9  T
   9   -177.4336202 -0.706480E-06  0.106E-03    0.31       9.6  T
     SCC iter.                  ...        0 min,  0.103 sec
     gradient                   ...        0 min,  0.020 sec
 * total energy  :  -174.7378577 Eh     change       -0.1195566E-02 Eh
   gradient norm :     0.0147767 Eh/α   predicted    -0.1268771E-02 (   6.12%)
   displ. norm   :     0.5501920 α      lambda       -0.1257607E-02
   maximum displ.:     0.2802754 α      in ANC's #6, #7, #13, ...

........................................................................
.............................. CYCLE   31 ..............................
........................................................................
   1   -177.4370457 -0.177437E+03  0.199E-01    0.30       0.0  T
   2   -177.4367521  0.293580E-03  0.109E-01    0.33       1.0  T
   3   -177.4316138  0.513835E-02  0.188E-01    0.32       1.0  T
   4   -177.4371304 -0.551659E-02  0.255E-02    0.31       1.0  T
   5   -177.4371906 -0.601827E-04  0.126E-02    0.32       1.0  T
   6   -177.4371958 -0.526284E-05  0.671E-03    0.32       1.5  T
   7   -177.4372007 -0.488704E-05  0.217E-03    0.32       4.7  T
   8   -177.4372012 -0.498308E-06  0.991E-04    0.32      10.2  T
   9   -177.4372013 -0.517278E-07  0.683E-04    0.32      14.9  T
     SCC iter.                  ...        0 min,  0.105 sec
     gradient                   ...        0 min,  0.020 sec
 * total energy  :  -174.7387359 Eh     change       -0.8781827E-03 Eh
   gradient norm :     0.0090256 Eh/α   predicted    -0.8191518E-03 (  -6.72%)
   displ. norm   :     0.6713132 α      lambda       -0.8800655E-03
   maximum displ.:     0.3461823 α      in ANC's #6, #7, #13, ...

........................................................................
.............................. CYCLE   32 ..............................
........................................................................
   1   -177.4352879 -0.177435E+03  0.227E-01    0.32       0.0  T
   2   -177.4350007  0.287199E-03  0.120E-01    0.35       1.0  T
   3   -177.4291927  0.580799E-02  0.199E-01    0.33       1.0  T
   4   -177.4353548 -0.616208E-02  0.310E-02    0.33       1.0  T
   5   -177.4354521 -0.972770E-04  0.156E-02    0.34       1.0  T
   6   -177.4354642 -0.121261E-04  0.760E-03    0.34       1.3  T
   7   -177.4354702 -0.603224E-05  0.273E-03    0.34       3.7  T
   8   -177.4354709 -0.629667E-06  0.162E-03    0.34       6.2  T
   9   -177.4354711 -0.243743E-06  0.792E-04    0.34      12.8  T
     SCC iter.                  ...        0 min,  0.102 sec
     gradient                   ...        0 min,  0.020 sec
 * total energy  :  -174.7394139 Eh     change       -0.6779826E-03 Eh
   gradient norm :     0.0080033 Eh/α   predicted    -0.6383381E-03 (  -5.85%)
   displ. norm   :     0.5443686 α      lambda       -0.8638123E-03
   maximum displ.:     0.3195149 α      in ANC's #6, #7, #8, ...

........................................................................
.............................. CYCLE   33 ..............................
........................................................................
   1   -177.4473485 -0.177447E+03  0.175E-01    0.34       0.0  T
   2   -177.4471875  0.161054E-03  0.934E-02    0.34       1.0  T
   3   -177.4431329  0.405453E-02  0.159E-01    0.35       1.0  T
   4   -177.4474150 -0.428202E-02  0.159E-02    0.34       1.0  T
   5   -177.4474135  0.147535E-05  0.124E-02    0.34       1.0  T
   6   -177.4474135 -0.177719E-07  0.990E-03    0.34       1.0  T
   7   -177.4474249 -0.114100E-04  0.259E-03    0.34       3.9  T
   8   -177.4474258 -0.891302E-06  0.885E-04    0.34      11.5  T
   9   -177.4474259 -0.557892E-07  0.481E-04    0.34      21.1  T
     SCC iter.                  ...        0 min,  0.103 sec
     gradient                   ...        0 min,  0.020 sec
 * total energy  :  -174.7399052 Eh     change       -0.4913679E-03 Eh
   gradient norm :     0.0122926 Eh/α   predicted    -0.5598996E-03 (  13.95%)
   displ. norm   :     0.5969398 α      lambda       -0.8430080E-03
   maximum displ.:     0.3248701 α      in ANC's #6, #7, #13, ...

........................................................................
.............................. CYCLE   34 ..............................
........................................................................
   1   -177.4383742 -0.177438E+03  0.209E-01    0.34       0.0  T
   2   -177.4382990  0.751704E-04  0.106E-01    0.36       1.0  T
   3   -177.4351814  0.311759E-02  0.143E-01    0.34       1.0  T
   4   -177.4383783 -0.319687E-02  0.290E-02    0.35       1.0  T
   5   -177.4384689 -0.906790E-04  0.148E-02    0.36       1.0  T
   6   -177.4384790 -0.100720E-04  0.847E-03    0.35       1.2  T
   7   -177.4384857 -0.668942E-05  0.419E-03    0.35       2.4  T
   8   -177.4384876 -0.189305E-05  0.115E-03    0.35       8.9  T
   9   -177.4384877 -0.103585E-06  0.602E-04    0.35      16.9  T
     SCC iter.                  ...        0 min,  0.102 sec
     gradient                   ...        0 min,  0.020 sec
 * total energy  :  -174.7404223 Eh     change       -0.5170271E-03 Eh
   gradient norm :     0.0095873 Eh/α   predicted    -0.5717016E-03 (  10.57%)
   displ. norm   :     0.4315423 α      lambda       -0.5482835E-03
   maximum displ.:     0.2598529 α      in ANC's #6, #7, #9, ...

........................................................................
.............................. CYCLE   35 ..............................
........................................................................
   1   -177.4380394 -0.177438E+03  0.128E-01    0.35       0.0  T
   2   -177.4380152  0.242566E-04  0.655E-02    0.36       1.0  T
   3   -177.4368039  0.121126E-02  0.879E-02    0.36       1.0  T
   4   -177.4380577 -0.125377E-02  0.122E-02    0.35       1.0  T
   5   -177.4380596 -0.192356E-05  0.904E-03    0.36       1.1  T
   6   -177.4380673 -0.767092E-05  0.312E-03    0.36       3.3  T
   7   -177.4380685 -0.118975E-05  0.931E-04    0.36      10.9  T
   8   -177.4380685 -0.293457E-07  0.662E-04    0.36      15.3  T
     SCC iter.                  ...        0 min,  0.094 sec
     gradient                   ...        0 min,  0.020 sec
 * total energy  :  -174.7408282 Eh     change       -0.4059534E-03 Eh
   gradient norm :     0.0074991 Eh/α   predicted    -0.3251960E-03 ( -19.89%)
   displ. norm   :     0.4720961 α      lambda       -0.5701878E-03
   maximum displ.:     0.2903065 α      in ANC's #6, #7, #9, ...

........................................................................
.............................. CYCLE   36 ..............................
........................................................................
   1   -177.4418233 -0.177442E+03  0.142E-01    0.35       0.0  T
   2   -177.4418416 -0.182877E-04  0.713E-02    0.35       1.0  T
   3   -177.4418159  0.257180E-04  0.195E-02    0.35       1.0  T
   4   -177.4418128  0.306345E-05  0.167E-02    0.35       1.0  T
   5   -177.4418175 -0.471881E-05  0.138E-02    0.35       1.0  T
   6   -177.4418481 -0.305324E-04  0.217E-03    0.35       4.7  T
   7   -177.4418484 -0.372475E-06  0.931E-04    0.35      10.9  T
   8   -177.4418484  0.107447E-07  0.884E-04    0.35      11.5  T
     SCC iter.                  ...        0 min,  0.094 sec
     gradient                   ...        0 min,  0.020 sec
 * total energy  :  -174.7413013 Eh     change       -0.4730538E-03 Eh
   gradient norm :     0.0074735 Eh/α   predicted    -0.3486350E-03 ( -26.30%)
   displ. norm   :     0.5901310 α      lambda       -0.6459443E-03
   maximum displ.:     0.3672179 α      in ANC's #6, #7, #9, ...

........................................................................
.............................. CYCLE   37 ..............................
........................................................................
   1   -177.4427709 -0.177443E+03  0.187E-01    0.35       0.0  T
   2   -177.4427999 -0.290259E-04  0.933E-02    0.35       1.0  T
   3   -177.4426935  0.106439E-03  0.326E-02    0.35       1.0  T
   4   -177.4427381 -0.446281E-04  0.238E-02    0.35       1.0  T
   5   -177.4427800 -0.418418E-04  0.147E-02    0.35       1.0  T
   6   -177.4428114 -0.314432E-04  0.401E-03    0.35       2.5  T
   7   -177.4428128 -0.136589E-05  0.173E-03    0.35       5.9  T
   8   -177.4428129 -0.188768E-06  0.104E-03    0.35       9.7  T
     SCC iter.                  ...        0 min,  0.093 sec
     gradient                   ...        0 min,  0.020 sec
 * total energy  :  -174.7418319 Eh     change       -0.5306341E-03 Eh
   gradient norm :     0.0077832 Eh/α   predicted    -0.4354484E-03 ( -17.94%)
   displ. norm   :     0.6030172 α      lambda       -0.5998132E-03
   maximum displ.:     0.3779897 α      in ANC's #6, #7, #9, ...

........................................................................
.............................. CYCLE   38 ..............................
........................................................................
   1   -177.4418360 -0.177442E+03  0.186E-01    0.35       0.0  T
   2   -177.4418666 -0.305308E-04  0.925E-02    0.35       1.0  T
   3   -177.4418131  0.534599E-04  0.262E-02    0.35       1.0  T
   4   -177.4418090  0.409654E-05  0.234E-02    0.35       1.0  T
   5   -177.4418507 -0.416589E-04  0.135E-02    0.36       1.0  T
   6   -177.4418725 -0.218512E-04  0.646E-03    0.35       1.6  T
   7   -177.4418776 -0.512815E-05  0.156E-03    0.35       6.5  T
   8   -177.4418777 -0.829584E-07  0.110E-03    0.35       9.3  T
   9   -177.4418778 -0.356303E-07  0.671E-04    0.35      15.1  T
     SCC iter.                  ...        0 min,  0.105 sec
     gradient                   ...        0 min,  0.020 sec
 * total energy  :  -174.7423522 Eh     change       -0.5202777E-03 Eh
   gradient norm :     0.0076068 Eh/α   predicted    -0.4089662E-03 ( -21.39%)
   displ. norm   :     0.6106639 α      lambda       -0.6115296E-03
   maximum displ.:     0.3874799 α      in ANC's #6, #9, #7, ...

........................................................................
.............................. CYCLE   39 ..............................
........................................................................
   1   -177.4420257 -0.177442E+03  0.181E-01    0.35       0.0  T
   2   -177.4420530 -0.273343E-04  0.901E-02    0.35       1.0  T
   3   -177.4420050  0.480827E-04  0.246E-02    0.35       1.0  T
   4   -177.4419934  0.116065E-04  0.235E-02    0.35       1.0  T
   5   -177.4420423 -0.489014E-04  0.113E-02    0.35       1.0  T
   6   -177.4420594 -0.171404E-04  0.509E-03    0.35       2.0  T
   7   -177.4420624 -0.302162E-05  0.135E-03    0.35       7.5  T
   8   -177.4420624 -0.159538E-07  0.101E-03    0.35      10.0  T
   9   -177.4420625 -0.188129E-07  0.605E-04    0.35      16.8  T
     SCC iter.                  ...        0 min,  0.104 sec
     gradient                   ...        0 min,  0.020 sec
 * total energy  :  -174.7428963 Eh     change       -0.5441523E-03 Eh
   gradient norm :     0.0077269 Eh/α   predicted    -0.4197942E-03 ( -22.85%)
   displ. norm   :     0.6450349 α      lambda       -0.6607249E-03
   maximum displ.:     0.4092338 α      in ANC's #6, #7, #9, ...

........................................................................
.............................. CYCLE   40 ..............................
........................................................................
   1   -177.4406964 -0.177441E+03  0.193E-01    0.35       0.0  T
   2   -177.4406978 -0.143667E-05  0.966E-02    0.36       1.0  T
   3   -177.4395426  0.115520E-02  0.865E-02    0.35       1.0  T
   4   -177.4407320 -0.118938E-02  0.160E-02    0.35       1.0  T
   5   -177.4407193  0.127347E-04  0.142E-02    0.36       1.0  T
   6   -177.4407397 -0.204041E-04  0.702E-03    0.36       1.4  T
   7   -177.4407452 -0.555158E-05  0.187E-03    0.35       5.4  T
   8   -177.4407454 -0.160686E-06  0.129E-03    0.36       7.9  T
   9   -177.4407454 -0.354526E-07  0.836E-04    0.36      12.1  T
     SCC iter.                  ...        0 min,  0.105 sec
     gradient                   ...        0 min,  0.020 sec
 * total energy  :  -174.7434549 Eh     change       -0.5585670E-03 Eh
   gradient norm :     0.0063560 Eh/α   predicted    -0.4678230E-03 ( -16.25%)
   displ. norm   :     0.6602316 α      lambda       -0.6177782E-03
   maximum displ.:     0.4257343 α      in ANC's #6, #7, #9, ...

........................................................................
.............................. CYCLE   41 ..............................
........................................................................
   1   -177.4414422 -0.177441E+03  0.185E-01    0.35       0.0  T
   2   -177.4414571 -0.149173E-04  0.924E-02    0.36       1.0  T
   3   -177.4408143  0.642887E-03  0.655E-02    0.35       1.0  T
   4   -177.4414630 -0.648712E-03  0.170E-02    0.35       1.0  T
   5   -177.4414712 -0.818698E-05  0.111E-02    0.36       1.0  T
   6   -177.4414828 -0.116412E-04  0.536E-03    0.35       1.9  T
   7   -177.4414858 -0.304764E-05  0.172E-03    0.35       5.9  T
   8   -177.4414859 -0.105666E-06  0.118E-03    0.35       8.6  T
   9   -177.4414860 -0.183735E-07  0.757E-04    0.35      13.4  T
     SCC iter.                  ...        0 min,  0.104 sec
     gradient                   ...        0 min,  0.020 sec
 * total energy  :  -174.7439704 Eh     change       -0.5155009E-03 Eh
   gradient norm :     0.0072736 Eh/α   predicted    -0.4435358E-03 ( -13.96%)
   displ. norm   :     0.6564857 α      lambda       -0.5219857E-03
   maximum displ.:     0.4279358 α      in ANC's #6, #7, #2, ...

........................................................................
.............................. CYCLE   42 ..............................
........................................................................
   1   -177.4411587 -0.177441E+03  0.179E-01    0.35       0.0  T
   2   -177.4411344  0.242265E-04  0.903E-02    0.35       1.0  T
   3   -177.4393285  0.180590E-02  0.106E-01    0.36       1.0  T
   4   -177.4411987 -0.187011E-02  0.143E-02    0.35       1.0  T
   5   -177.4411933  0.535755E-05  0.106E-02    0.36       1.0  T
   6   -177.4412040 -0.107436E-04  0.477E-03    0.35       2.1  T
   7   -177.4412065 -0.248994E-05  0.186E-03    0.35       5.5  T
   8   -177.4412067 -0.186685E-06  0.118E-03    0.35       8.6  T
     SCC iter.                  ...        0 min,  0.101 sec
     gradient                   ...        0 min,  0.021 sec
 * total energy  :  -174.7444266 Eh     change       -0.4562141E-03 Eh
   gradient norm :     0.0075960 Eh/α   predicted    -0.3734800E-03 ( -18.13%)
   displ. norm   :     0.6569840 α      lambda       -0.5206026E-03
   maximum displ.:     0.4333269 α      in ANC's #6, #7, #2, ...
 * RMSD in coord.:     1.0663297 α      energy gain  -0.1364019E-01 Eh

generating ANC from model Hessian ...
Using Lindh-Hessian (1995)
 Shifting diagonal of input Hessian by   5.050133510831166E-003
 Lowest  eigenvalues of input Hessian
    0.005000   -0.000000   -0.000000    0.000000    0.000000    0.000000
    0.000000    0.005062    0.005092    0.005102    0.005109    0.005176
    0.005247    0.005277    0.005384    0.005494    0.005626    0.005687
 Highest eigenvalues
    2.086215    2.089890    2.102398    2.268504    2.599241    2.642043
 

........................................................................
.............................. CYCLE   43 ..............................
........................................................................
   1   -177.4399526 -0.177440E+03  0.182E-01    0.35       0.0  T
   2   -177.4398746  0.780636E-04  0.935E-02    0.35       1.0  T
   3   -177.4367128  0.316171E-02  0.140E-01    0.36       1.0  T
   4   -177.4400094 -0.329653E-02  0.134E-02    0.35       1.0  T
   5   -177.4400021  0.730791E-05  0.995E-03    0.36       1.0  T
   6   -177.4400105 -0.843113E-05  0.468E-03    0.35       2.2  T
   7   -177.4400129 -0.239062E-05  0.217E-03    0.35       4.7  T
   8   -177.4400132 -0.303217E-06  0.127E-03    0.35       8.0  T
   9   -177.4400132 -0.461751E-07  0.877E-04    0.35      11.6  T
  10   -177.4400133 -0.126442E-07  0.523E-04    0.35      19.4  T
     SCC iter.                  ...        0 min,  0.114 sec
     gradient                   ...        0 min,  0.021 sec
 * total energy  :  -174.7448783 Eh     change       -0.4517290E-03 Eh
   gradient norm :     0.0097286 Eh/α   predicted     0.0000000E+00 (-100.00%)
   displ. norm   :     0.1639274 α      lambda       -0.2897942E-03
   maximum displ.:     0.1151624 α      in ANC's #6, #9, #8, ...

........................................................................
.............................. CYCLE   44 ..............................
........................................................................
   1   -177.4433597 -0.177443E+03  0.546E-02    0.35       0.0  T
   2   -177.4433628 -0.310306E-05  0.279E-02    0.35       1.0  T
   3   -177.4433518  0.110265E-04  0.110E-02    0.35       1.0  T
   4   -177.4433613 -0.943680E-05  0.624E-03    0.35       1.6  T
   5   -177.4433632 -0.194385E-05  0.360E-03    0.35       2.8  T
   6   -177.4433642 -0.998800E-06  0.112E-03    0.35       9.1  T
   7   -177.4433643 -0.714969E-07  0.836E-04    0.35      12.1  T
     SCC iter.                  ...        0 min,  0.081 sec
     gradient                   ...        0 min,  0.020 sec
 * total energy  :  -174.7450949 Eh     change       -0.2165762E-03 Eh
   gradient norm :     0.0040191 Eh/α   predicted    -0.1489272E-03 ( -31.24%)
   displ. norm   :     0.2014964 α      lambda       -0.2913287E-03
   maximum displ.:     0.0982903 α      in ANC's #6, #1, #8, ...

........................................................................
.............................. CYCLE   45 ..............................
........................................................................
   1   -177.4453885 -0.177445E+03  0.106E-01    0.35       0.0  T
   2   -177.4453968 -0.829353E-05  0.571E-02    0.36       1.0  T
   3   -177.4451865  0.210257E-03  0.367E-02    0.36       1.0  T
   4   -177.4453983 -0.211829E-03  0.870E-03    0.35       1.2  T
   5   -177.4454042 -0.588712E-05  0.522E-03    0.36       1.9  T
   6   -177.4454052 -0.985654E-06  0.404E-03    0.36       2.5  T
   7   -177.4454070 -0.180353E-05  0.826E-04    0.36      12.3  T
   8   -177.4454071 -0.321607E-07  0.461E-04    0.36      22.0  T
     SCC iter.                  ...        0 min,  0.092 sec
     gradient                   ...        0 min,  0.020 sec
 * total energy  :  -174.7450094 Eh     change        0.8550065E-04 Eh
   gradient norm :     0.0103169 Eh/α   predicted    -0.1515783E-03 (-277.28%)
   displ. norm   :     0.1358335 α      lambda       -0.5188315E-03
   maximum displ.:     0.0900885 α      in ANC's #6, #9, #20, ...

........................................................................
.............................. CYCLE   46 ..............................
........................................................................
   1   -177.4457590 -0.177446E+03  0.736E-02    0.36       0.0  T
   2   -177.4457645 -0.546877E-05  0.398E-02    0.36       1.0  T
   3   -177.4457518  0.126604E-04  0.105E-02    0.36       1.0  T
   4   -177.4457615 -0.961830E-05  0.649E-03    0.36       1.6  T
   5   -177.4457652 -0.368882E-05  0.406E-03    0.36       2.5  T
   6   -177.4457670 -0.181008E-05  0.170E-03    0.36       6.0  T
   7   -177.4457672 -0.286098E-06  0.697E-04    0.36      14.6  T
     SCC iter.                  ...        0 min,  0.083 sec
     gradient                   ...        0 min,  0.020 sec
 * total energy  :  -174.7453182 Eh     change       -0.3087521E-03 Eh
   gradient norm :     0.0045701 Eh/α   predicted    -0.2642032E-03 ( -14.43%)
   displ. norm   :     0.1597816 α      lambda       -0.1973667E-03
   maximum displ.:     0.1038162 α      in ANC's #6, #8, #9, ...

........................................................................
.............................. CYCLE   47 ..............................
........................................................................
   1   -177.4441993 -0.177444E+03  0.634E-02    0.35       0.0  T
   2   -177.4441993  0.512221E-07  0.343E-02    0.35       1.0  T
   3   -177.4440017  0.197591E-03  0.345E-02    0.36       1.0  T
   4   -177.4442050 -0.203332E-03  0.413E-03    0.36       2.5  T
   5   -177.4442054 -0.402260E-06  0.271E-03    0.36       3.7  T
   6   -177.4442060 -0.565114E-06  0.946E-04    0.36      10.7  T
     SCC iter.                  ...        0 min,  0.072 sec
     gradient                   ...        0 min,  0.020 sec
 * total energy  :  -174.7453856 Eh     change       -0.6745795E-04 Eh
   gradient norm :     0.0046409 Eh/α   predicted    -0.1012042E-03 (  50.03%)
   displ. norm   :     0.1937862 α      lambda       -0.2273489E-03
   maximum displ.:     0.1214129 α      in ANC's #6, #8, #9, ...

........................................................................
.............................. CYCLE   48 ..............................
........................................................................
   1   -177.4436312 -0.177444E+03  0.609E-02    0.35       0.0  T
   2   -177.4436318 -0.586484E-06  0.320E-02    0.35       1.0  T
   3   -177.4435009  0.130896E-03  0.289E-02    0.36       1.0  T
   4   -177.4436349 -0.133980E-03  0.507E-03    0.36       2.0  T
   5   -177.4436350 -0.111598E-06  0.401E-03    0.35       2.5  T
   6   -177.4436361 -0.117853E-05  0.224E-03    0.35       4.5  T
   7   -177.4436367 -0.513058E-06  0.591E-04    0.36      17.2  T
     SCC iter.                  ...        0 min,  0.082 sec
     gradient                   ...        0 min,  0.020 sec
 * total energy  :  -174.7455665 Eh     change       -0.1808510E-03 Eh
   gradient norm :     0.0037532 Eh/α   predicted    -0.1179436E-03 ( -34.78%)
   displ. norm   :     0.3957078 α      lambda       -0.3178653E-03
   maximum displ.:     0.2475374 α      in ANC's #6, #8, #1, ...

........................................................................
.............................. CYCLE   49 ..............................
........................................................................
   1   -177.4431623 -0.177443E+03  0.117E-01    0.35       0.0  T
   2   -177.4431607  0.152243E-05  0.602E-02    0.35       1.0  T
   3   -177.4425903  0.570454E-03  0.592E-02    0.36       1.0  T
   4   -177.4431778 -0.587501E-03  0.933E-03    0.35       1.1  T
   5   -177.4431795 -0.175045E-05  0.543E-03    0.35       1.9  T
   6   -177.4431815 -0.198560E-05  0.187E-03    0.35       5.4  T
   7   -177.4431817 -0.177656E-06  0.132E-03    0.35       7.7  T
   8   -177.4431818 -0.530218E-07  0.922E-04    0.35      11.0  T
   9   -177.4431818 -0.292076E-07  0.559E-04    0.35      18.2  T
     SCC iter.                  ...        0 min,  0.104 sec
     gradient                   ...        0 min,  0.021 sec
 * total energy  :  -174.7458310 Eh     change       -0.2645396E-03 Eh
   gradient norm :     0.0038175 Eh/α   predicted    -0.1838211E-03 ( -30.51%)
   displ. norm   :     0.5864039 α      lambda       -0.3781031E-03
   maximum displ.:     0.3751982 α      in ANC's #6, #8, #1, ...

........................................................................
.............................. CYCLE   50 ..............................
........................................................................
   1   -177.4416448 -0.177442E+03  0.162E-01    0.35       0.0  T
   2   -177.4416419  0.294470E-05  0.828E-02    0.35       1.0  T
   3   -177.4405974  0.104445E-02  0.801E-02    0.36       1.0  T
   4   -177.4416736 -0.107618E-02  0.130E-02    0.35       1.0  T
   5   -177.4416752 -0.162204E-05  0.772E-03    0.35       1.3  T
   6   -177.4416796 -0.434853E-05  0.340E-03    0.35       3.0  T
   7   -177.4416805 -0.931027E-06  0.184E-03    0.35       5.5  T
   8   -177.4416806 -0.100782E-06  0.128E-03    0.35       7.9  T
   9   -177.4416806 -0.421284E-07  0.796E-04    0.35      12.8  T
  10   -177.4416807 -0.185704E-07  0.462E-04    0.35      22.0  T
     SCC iter.                  ...        0 min,  0.114 sec
     gradient                   ...        0 min,  0.021 sec
 * total energy  :  -174.7461636 Eh     change       -0.3326082E-03 Eh
   gradient norm :     0.0049114 Eh/α   predicted    -0.2540623E-03 ( -23.62%)
   displ. norm   :     0.6290593 α      lambda       -0.3980793E-03
   maximum displ.:     0.4124911 α      in ANC's #6, #8, #1, ...

........................................................................
.............................. CYCLE   51 ..............................
........................................................................
   1   -177.4411875 -0.177441E+03  0.177E-01    0.35       0.0  T
   2   -177.4411936 -0.617635E-05  0.891E-02    0.35       1.0  T
   3   -177.4402908  0.902870E-03  0.751E-02    0.36       1.0  T
   4   -177.4412197 -0.928928E-03  0.142E-02    0.35       1.0  T
   5   -177.4412190  0.700929E-06  0.966E-03    0.35       1.1  T
   6   -177.4412264 -0.738542E-05  0.515E-03    0.35       2.0  T
   7   -177.4412290 -0.261510E-05  0.193E-03    0.35       5.3  T
   8   -177.4412290 -0.572691E-07  0.143E-03    0.35       7.1  T
     SCC iter.                  ...        0 min,  0.092 sec
     gradient                   ...        0 min,  0.020 sec
 * total energy  :  -174.7465230 Eh     change       -0.3593833E-03 Eh
   gradient norm :     0.0045269 Eh/α   predicted    -0.2778059E-03 ( -22.70%)
   displ. norm   :     0.5792431 α      lambda       -0.3797229E-03
   maximum displ.:     0.3874691 α      in ANC's #6, #8, #1, ...

........................................................................
.............................. CYCLE   52 ..............................
........................................................................
   1   -177.4420169 -0.177442E+03  0.161E-01    0.35       0.0  T
   2   -177.4420285 -0.115447E-04  0.810E-02    0.35       1.0  T
   3   -177.4415028  0.525677E-03  0.575E-02    0.35       1.0  T
   4   -177.4420398 -0.536984E-03  0.136E-02    0.35       1.0  T
   5   -177.4420414 -0.166437E-05  0.919E-03    0.35       1.1  T
   6   -177.4420492 -0.771548E-05  0.404E-03    0.35       2.5  T
   7   -177.4420506 -0.143284E-05  0.199E-03    0.35       5.1  T
   8   -177.4420507 -0.114319E-06  0.137E-03    0.35       7.4  T
     SCC iter.                  ...        0 min,  0.094 sec
     gradient                   ...        0 min,  0.020 sec
 * total energy  :  -174.7468661 Eh     change       -0.3431415E-03 Eh
   gradient norm :     0.0038031 Eh/α   predicted    -0.2535650E-03 ( -26.10%)
   displ. norm   :     0.5515371 α      lambda       -0.3529869E-03
   maximum displ.:     0.3730595 α      in ANC's #6, #8, #9, ...

........................................................................
.............................. CYCLE   53 ..............................
........................................................................
   1   -177.4435113 -0.177444E+03  0.158E-01    0.35       0.0  T
   2   -177.4435288 -0.174878E-04  0.785E-02    0.35       1.0  T
   3   -177.4432315  0.297302E-03  0.453E-02    0.35       1.0  T
   4   -177.4435308 -0.299320E-03  0.138E-02    0.35       1.0  T
   5   -177.4435285  0.231255E-05  0.115E-02    0.35       1.0  T
   6   -177.4435427 -0.141900E-04  0.408E-03    0.35       2.5  T
   7   -177.4435443 -0.167749E-05  0.178E-03    0.35       5.7  T
   8   -177.4435444 -0.493750E-07  0.127E-03    0.35       8.0  T
   9   -177.4435444 -0.266382E-07  0.732E-04    0.35      13.9  T
  10   -177.4435444 -0.165774E-07  0.392E-04    0.35      25.9  T
     SCC iter.                  ...        0 min,  0.113 sec
     gradient                   ...        0 min,  0.021 sec
 * total energy  :  -174.7471878 Eh     change       -0.3216142E-03 Eh
   gradient norm :     0.0034857 Eh/α   predicted    -0.2301873E-03 ( -28.43%)
   displ. norm   :     0.5386004 α      lambda       -0.3345574E-03
   maximum displ.:     0.3644688 α      in ANC's #6, #8, #9, ...

........................................................................
.............................. CYCLE   54 ..............................
........................................................................
   1   -177.4445689 -0.177445E+03  0.155E-01    0.35       0.0  T
   2   -177.4445884 -0.194240E-04  0.768E-02    0.35       1.0  T
   3   -177.4443879  0.200494E-03  0.373E-02    0.35       1.0  T
   4   -177.4445840 -0.196164E-03  0.140E-02    0.35       1.0  T
   5   -177.4445936 -0.955071E-05  0.788E-03    0.35       1.3  T
   6   -177.4445994 -0.581895E-05  0.343E-03    0.35       3.0  T
   7   -177.4446005 -0.110857E-05  0.165E-03    0.35       6.2  T
   8   -177.4446005 -0.353784E-07  0.113E-03    0.35       9.0  T
   9   -177.4446006 -0.309865E-07  0.644E-04    0.35      15.8  T
  10   -177.4446006 -0.146741E-07  0.341E-04    0.35      29.7  T
     SCC iter.                  ...        0 min,  0.114 sec
     gradient                   ...        0 min,  0.021 sec
 * total energy  :  -174.7474999 Eh     change       -0.3121850E-03 Eh
   gradient norm :     0.0036089 Eh/α   predicted    -0.2158052E-03 ( -30.87%)
   displ. norm   :     0.5765790 α      lambda       -0.3565258E-03
   maximum displ.:     0.3896079 α      in ANC's #6, #8, #9, ...

........................................................................
.............................. CYCLE   55 ..............................
........................................................................
   1   -177.4449553 -0.177445E+03  0.167E-01    0.35       0.0  T
   2   -177.4449758 -0.205438E-04  0.825E-02    0.35       1.0  T
   3   -177.4446179  0.357933E-03  0.493E-02    0.35       1.0  T
   4   -177.4449819 -0.364038E-03  0.138E-02    0.35       1.0  T
   5   -177.4449795  0.246162E-05  0.107E-02    0.35       1.0  T
   6   -177.4449929 -0.134254E-04  0.355E-03    0.35       2.9  T
   7   -177.4449941 -0.121971E-05  0.163E-03    0.35       6.2  T
   8   -177.4449941 -0.120174E-07  0.123E-03    0.35       8.3  T
   9   -177.4449942 -0.608122E-07  0.684E-04    0.35      14.8  T
  10   -177.4449942 -0.131118E-07  0.357E-04    0.35      28.4  T
     SCC iter.                  ...        0 min,  0.116 sec
     gradient                   ...        0 min,  0.021 sec
[...]
    14   6 C      2.934     0.089    26.016     8.365
    15   6 C      3.102    -0.056    29.265     8.865
    16  35 Br     1.139    -0.122   188.408    22.132
    17   6 C      2.869     0.222    23.335     7.918
    18   8 O      0.856    -0.388    21.434     6.207
    19   6 C      3.013    -0.041    29.009     8.835
    20   6 C      2.904    -0.011    28.298     8.723
    21   6 C      2.936    -0.047    29.158     8.856
    22   6 C      2.987     0.045    26.985     8.521
    23   6 C      3.077    -0.042    28.969     8.824
    24   6 C      3.065    -0.036    28.831     8.805
    25   6 C      3.039     0.020    27.523     8.605
    26  16 S      2.379    -0.030   142.280    20.076
    27   6 C      3.035     0.031    27.267     8.565
    28   6 C      3.065    -0.041    28.950     8.823
    29   6 C      3.082    -0.038    28.854     8.806
    30   6 C      2.973     0.031    27.298     8.570
    31  16 S      2.377    -0.034   142.461    20.089
    32   6 C      2.990    -0.043    29.051     8.841
    33   6 C      2.975     0.021    27.532     8.607
    34  16 S      2.387    -0.053   143.251    20.144
    35   6 C      2.978     0.026    27.411     8.588
    36   6 C      3.132    -0.004    27.920     8.650
    37   6 C      3.129     0.000    27.816     8.635
    38   6 C      3.811    -0.063    21.692     6.629
    39   6 C      3.808    -0.066    21.767     6.641
    40   6 C      3.787     0.054    19.684     6.319
    41   7 N      2.633    -0.345    28.888     7.982
    42   6 C      3.812    -0.066    21.755     6.639
    43   6 C      2.961    -0.039    28.975     8.829
    44   6 C      2.916    -0.042    29.031     8.835
    45   6 C      2.986     0.013    27.727     8.637
    46  16 S      2.326    -0.016   141.734    20.037
    47   6 C      2.933    -0.025    28.639     8.777
    48   6 C      3.250    -0.008    27.162     8.437
    49   6 C      3.206     0.020    26.961     8.456
    50  16 S      2.137    -0.067   143.845    20.186
    51   6 C      3.207     0.015    27.076     8.474
    52   6 C      3.248    -0.010    27.237     8.452
    53   6 C      2.934    -0.029    28.730     8.791
    54  16 S      2.431    -0.005   141.245    20.003
    55   6 C      2.981     0.017    27.620     8.621
    56   6 C      2.948    -0.055    29.373     8.889
    57   6 C      2.977     0.040    27.098     8.539
    58   6 C      3.063    -0.041    28.951     8.823
    59   6 C      3.053    -0.038    28.884     8.814
    60   6 C      3.021     0.027    27.383     8.584
    61  16 S      2.401    -0.065   143.756    20.180
    62   6 C      3.019     0.029    27.322     8.574
    63   6 C      3.049    -0.034    28.794     8.801
    64   6 C      3.047    -0.040    28.947     8.824
    65   6 C      2.969     0.052    26.821     8.495
    66  16 S      2.290    -0.078   144.291    20.217
    67   6 C      2.879    -0.101    30.533     9.059
    68   1 H      0.926     0.063     2.162     2.299
    69   1 H      0.926     0.062     2.178     2.308
    70   1 H      0.926     0.064     2.151     2.294
    71   1 H      0.925     0.056     2.248     2.345
    72   1 H      0.926     0.084     1.941     2.179
    73   1 H      0.926     0.052     2.289     2.366
    74   1 H      0.926     0.045     2.378     2.412
    75   1 H      0.926     0.047     2.356     2.400
    76   1 H      0.926     0.048     2.343     2.394
    77   1 H      0.925     0.059     2.207     2.323
    78   1 H      0.924     0.048     2.344     2.394
    79   1 H      0.924     0.070     2.083     2.257
    80   1 H      0.924     0.031     2.566     2.505
    81   1 H      0.924     0.039     2.461     2.453
    82   1 H      0.924     0.042     2.417     2.431
    83   1 H      0.860     0.136     1.503     1.921
    84   1 H      0.860     0.145     1.435     1.877
    85   1 H      0.924     0.054     2.276     2.359
    86   1 H      0.924     0.059     2.207     2.323
    87   1 H      0.925     0.054     2.271     2.356
    88   1 H      0.926     0.062     2.178     2.308
    89   1 H      0.926     0.053     2.278     2.360
    90   1 H      0.926     0.053     2.283     2.363
    91   1 H      0.925     0.056     2.251     2.346
    92   1 H      0.926     0.046     2.373     2.409
    93   1 H      0.926     0.043     2.404     2.425
    94   1 H      0.926     0.043     2.405     2.425
    95   1 H      0.926     0.047     2.359     2.402
    96   1 H      0.926     0.053     2.281     2.362
    97   1 H      0.926     0.054     2.266     2.354

 Mol. C6AA /au·bohr⁶  :     214908.316411
 Mol. C8AA /au·bohr⁸  :    6774745.943133
 Mol. α(0) /au        :        753.098314


Wiberg/Mayer (AO) data.
largest (>0.10) Wiberg bond orders for each atom
          total WBO             WBO to atom ...
     1  C   3.964        C    2 1.434    C   19 1.190    C    7 1.080
     2  C   3.911        C    1 1.434    C    5 1.109    C    3 1.107
     3  C   3.942        N    4 2.745    C    2 1.107
     4  N   2.950        C    3 2.745
     5  C   3.943        N    6 2.737    C    2 1.109
     6  N   2.951        C    5 2.737
     7  C   3.976        C   12 1.436    C    8 1.251    C    1 1.080
     8  C   3.977        C    9 1.482    C    7 1.251    C   17 1.011
     9  C   3.968        C    8 1.482    C   10 1.308    H   68 0.963
    10  C   3.974        C    9 1.308    C   11 1.278    C   15 1.200
    11  C   3.947        C   12 1.369    C   10 1.278    S   13 1.112
    12  C   3.969        C    7 1.436    C   11 1.369    H   69 0.958
    13  S   2.550        C   14 1.132    C   11 1.112
    14  C   3.898        C   15 1.614    S   13 1.132    Br  16 1.021
    15  C   3.976        C   14 1.614    C   10 1.200    H   70 0.960
    16  Br  1.157        C   14 1.021
    17  C   3.912        O   18 1.738    C   19 1.059    C    8 1.011
    18  O   2.002        C   17 1.738
    19  C   3.885        C   20 1.407    C    1 1.190    C   17 1.059
    20  C   3.944        C   19 1.407    C   21 1.402    H   71 0.940
    21  C   3.894        C   20 1.402    C   22 1.373    H   72 0.946
    22  C   3.922        C   21 1.373    C   23 1.279    S   26 1.113
    23  C   3.924        C   24 1.529    C   22 1.279    H   73 0.963
    24  C   3.945        C   23 1.529    C   25 1.290    H   74 0.963
    25  C   3.918        C   27 1.340    C   24 1.290    S   26 1.100
    26  S   2.540        C   22 1.113    C   25 1.100
    27  C   3.905        C   25 1.340    C   28 1.269    S   31 1.123
    28  C   3.949        C   29 1.560    C   27 1.269    H   75 0.963
    29  C   3.917        C   28 1.560    C   30 1.244    H   76 0.963
    30  C   3.935        C   32 1.447    C   29 1.244    S   31 1.078
    31  S   2.522        C   27 1.123    C   30 1.078
    32  C   3.876        C   30 1.447    C   33 1.294    H   77 0.951
    33  C   3.922        C   37 1.349    C   32 1.294    S   34 1.092
    34  S   2.522        C   35 1.131    C   33 1.092
    35  C   3.889        C   36 1.365    C   43 1.233    S   34 1.131
    36  C   3.944        C   35 1.365    C   37 1.358    C   42 1.016
    37  C   3.924        C   36 1.358    C   33 1.349    C   38 1.017
    38  C   3.994        C   37 1.017    C   39 1.000    H   78 0.964    H   79 0.941
    39  C   3.995        C   38 1.000    C   40 0.984    H   80 0.977    H   81 0.975
    40  C   3.984        N   41 1.021    C   42 0.987    C   39 0.984    H   82 0.965
    41  N   3.011        C   40 1.021    H   83 0.966    H   84 0.964
    42  C   3.995        C   36 1.016    C   40 0.987    H   86 0.953    H   85 0.953
    43  C   3.978        C   44 1.599    C   35 1.233    H   87 0.956
    44  C   3.934        C   43 1.599    C   45 1.221    H   88 0.945
    45  C   3.935        C   49 1.426    C   44 1.221    S   46 1.096
    46  S   2.588        C   47 1.198    C   45 1.096
    47  C   3.911        C   48 1.520    S   46 1.198    H   89 0.968
    48  C   3.982        C   47 1.520    C   49 1.197    C   52 1.099
    49  C   3.908        C   45 1.426    C   48 1.197    S   50 1.080
    50  S   2.442        C   49 1.080    C   51 1.066
    51  C   3.885        C   55 1.402    C   52 1.210    S   50 1.066
    52  C   3.981        C   53 1.504    C   51 1.210    C   48 1.099
    53  C   3.894        C   52 1.504    S   54 1.196    H   90 0.968
    54  S   2.608        C   53 1.196    C   55 1.099
    55  C   3.944        C   51 1.402    C   56 1.255    S   54 1.099
    56  C   3.906        C   57 1.498    C   55 1.255    H   91 0.948
    57  C   3.955        C   56 1.498    C   58 1.207    S   61 1.080
    58  C   3.939        C   59 1.614    C   57 1.207    H   92 0.963
    59  C   3.949        C   58 1.614    C   60 1.222    H   93 0.962
    60  C   3.956        C   62 1.433    C   59 1.222    S   61 1.074
    61  S   2.485        C   57 1.080    C   60 1.074
    62  C   3.915        C   60 1.433    C   63 1.200    S   66 1.091
    63  C   3.986        C   64 1.662    C   62 1.200    H   94 0.961
    64  C   3.915        C   63 1.662    C   65 1.151    H   95 0.963
    65  C   3.961        C   67 1.723    C   64 1.151    S   66 1.038
    66  S   2.411        C   62 1.091    C   65 1.038
    67  C   3.867        C   65 1.723    H   97 0.976    H   96 0.969
    68  H   0.995        C    9 0.963
    69  H   0.995        C   12 0.958
    70  H   0.996        C   15 0.960
    71  H   0.996        C   20 0.940
    72  H   0.992        C   21 0.946
    73  H   0.996        C   23 0.963
    74  H   0.997        C   24 0.963
    75  H   0.997        C   28 0.963
    76  H   0.997        C   29 0.963
    77  H   0.995        C   32 0.951
    78  H   0.996        C   38 0.964
    79  H   0.992        C   38 0.941
    80  H   0.999        C   39 0.977
    81  H   0.997        C   39 0.975
    82  H   0.998        C   40 0.965
    83  H   0.982        N   41 0.966
    84  H   0.978        N   41 0.964
    85  H   0.995        C   42 0.953
    86  H   0.994        C   42 0.953
    87  H   0.996        C   43 0.956
    88  H   0.996        C   44 0.945
    89  H   0.997        C   47 0.968
    90  H   0.997        C   53 0.968
    91  H   0.996        C   56 0.948
    92  H   0.997        C   58 0.963
    93  H   0.997        C   59 0.962
    94  H   0.998        C   63 0.961
    95  H   0.997        C   64 0.963
    96  H   0.997        C   67 0.969
    97  H   0.996        C   67 0.976

molecular dipole:
                 x           y           z       tot (Debye)
 q only:       -1.911      -4.179      -0.629
   full:       -2.490      -3.331      -0.447      10.632
molecular quadrupole (traceless):
                xx          xy          yy          xz          yz          zz
 q only:       66.327      43.630     -12.868      22.667     -18.864     -53.459
  q+dip:       91.346      10.539     -35.452      22.869     -31.111     -55.894
   full:       87.704      12.325     -40.366      15.816     -31.813     -47.338

           -------------------------------------------------
          |                Geometry Summary                 |
           -------------------------------------------------

      molecular mass/u    :     1093.2835000
   center of mass at/Å    :       -5.4261102      -3.5073391       0.7047224
  moments of inertia/u·Å² :        0.2651885E+05   0.7225047E+05   0.9744282E+05
rotational constants/cm⁻¹ :        0.6356848E-03   0.2333221E-03   0.1730002E-03

 * 102 selected distances

     #   Z        #   Z                                     value/Å
     1   6 C      2   6 C                                 1.3790003
     3   6 C      4   7 N                                 1.1496275
     5   6 C      6   7 N                                 1.1505978
     7   6 C      8   6 C                                 1.4156687
     8   6 C      9   6 C                                 1.3720067
     9   6 C     10   6 C                                 1.4001359
    10   6 C     11   6 C                                 1.4126681
     7   6 C     12   6 C                                 1.3808738
    11   6 C     12   6 C                                 1.3905385
    11   6 C     13  16 S                                 1.7389356
    13  16 S     14   6 C                                 1.7434496
    10   6 C     15   6 C                                 1.4225780
    14   6 C     15   6 C                                 1.3532985
    14   6 C     16  35 Br                                1.8769777 (max)
    17   6 C     18   8 O                                 1.2169795
     1   6 C     19   6 C                                 1.4355290
    19   6 C     20   6 C                                 1.3845770
    20   6 C     21   6 C                                 1.3858722
    21   6 C     22   6 C                                 1.3872128
    22   6 C     23   6 C                                 1.4092119
    23   6 C     24   6 C                                 1.3695614
    24   6 C     25   6 C                                 1.4052072
    22   6 C     26  16 S                                 1.7467253
    25   6 C     26  16 S                                 1.7492232
    25   6 C     27   6 C                                 1.3881113
    27   6 C     28   6 C                                 1.4091818
    28   6 C     29   6 C                                 1.3646288
    29   6 C     30   6 C                                 1.4176897
    27   6 C     31  16 S                                 1.7409552
    30   6 C     31  16 S                                 1.7530517
    30   6 C     32   6 C                                 1.3757144
    32   6 C     33   6 C                                 1.4057608
    33   6 C     34  16 S                                 1.7527160
    34  16 S     35   6 C                                 1.7391902
    35   6 C     36   6 C                                 1.3965420
    33   6 C     37   6 C                                 1.3983851
    36   6 C     37   6 C                                 1.4001503
    37   6 C     38   6 C                                 1.4938306
    38   6 C     39   6 C                                 1.5244262
    39   6 C     40   6 C                                 1.5332514
    40   6 C     41   7 N                                 1.4521617
    36   6 C     42   6 C                                 1.4957052
    40   6 C     42   6 C                                 1.5329275
    35   6 C     43   6 C                                 1.4166648
    43   6 C     44   6 C                                 1.3560376
    44   6 C     45   6 C                                 1.4149331
    45   6 C     46  16 S                                 1.7547436
    46  16 S     47   6 C                                 1.7227913
    47   6 C     48   6 C                                 1.3632326
    45   6 C     49   6 C                                 1.3768142
    48   6 C     49   6 C                                 1.4265065
    49   6 C     50  16 S                                 1.7451241
    50  16 S     51   6 C                                 1.7490511
    48   6 C     52   6 C                                 1.4370448
    51   6 C     52   6 C                                 1.4231006
    52   6 C     53   6 C                                 1.3648111
    53   6 C     54  16 S                                 1.7236848
    51   6 C     55   6 C                                 1.3806012
    54  16 S     55   6 C                                 1.7546409
    55   6 C     56   6 C                                 1.4073152
    56   6 C     57   6 C                                 1.3655309
    57   6 C     58   6 C                                 1.4230802
    58   6 C     59   6 C                                 1.3557315
    59   6 C     60   6 C                                 1.4191623
    57   6 C     61  16 S                                 1.7554052
    60   6 C     61  16 S                                 1.7574332
    60   6 C     62   6 C                                 1.3721137
    62   6 C     63   6 C                                 1.4247127
    63   6 C     64   6 C                                 1.3501034
    64   6 C     65   6 C                                 1.4358245
    62   6 C     66  16 S                                 1.7529889
    65   6 C     67   6 C                                 1.3393542
     9   6 C     68   1 H                                 1.0787610
    12   6 C     69   1 H                                 1.0770019
    15   6 C     70   1 H                                 1.0747420
    20   6 C     71   1 H                                 1.0836648
    21   6 C     72   1 H                                 1.0799458
    23   6 C     73   1 H                                 1.0755341
    24   6 C     74   1 H                                 1.0755435
    28   6 C     75   1 H                                 1.0750642
    29   6 C     76   1 H                                 1.0759429
    32   6 C     77   1 H                                 1.0848279
    38   6 C     78   1 H                                 1.0917978
    38   6 C     79   1 H                                 1.0929982
    39   6 C     80   1 H                                 1.0936988
    39   6 C     81   1 H                                 1.0916129
    40   6 C     82   1 H                                 1.0957670
    41   7 N     83   1 H                                 1.0153423
    41   7 N     84   1 H                                 1.0135856 (min)
    42   6 C     85   1 H                                 1.0952853
    42   6 C     86   1 H                                 1.0915657
    43   6 C     87   1 H                                 1.0843441
    44   6 C     88   1 H                                 1.0780669
    47   6 C     89   1 H                                 1.0711961
    53   6 C     90   1 H                                 1.0709822
    56   6 C     91   1 H                                 1.0834579
    58   6 C     92   1 H                                 1.0758279
    59   6 C     93   1 H                                 1.0751517
    63   6 C     94   1 H                                 1.0756316
    64   6 C     95   1 H                                 1.0756288
    67   6 C     96   1 H                                 1.0757198
    67   6 C     97   1 H                                 1.0744745

 * 7 distinct bonds (by element types)

   Z      Z             #   av. dist./Å        max./Å        min./Å
   1 H    6 C          28     1.0812227     1.0957670     1.0709822
   6 C    6 C          50     1.4058584     1.5332514     1.3393542
   1 H    7 N           2     1.0144640     1.0153423     1.0135856
   6 C    7 N           3     1.2507957     1.4521617     1.1496275
   6 C    8 O           1     1.2169795     1.2169795     1.2169795
   6 C   16 S          17     1.7458888     1.7574332     1.7227913
   6 C   35 Br          1     1.8769777     1.8769777     1.8769777


optimized geometry written to: xtbopt.xyz


           -------------------------------------------------
          | TOTAL ENERGY             -174.757362785393 Eh   |
          | GRADIENT NORM               0.000362938552 Eh/α |
          | HOMO-LUMO GAP               0.396643296107 eV   |
           -------------------------------------------------

------------------------------------------------------------------------
 * finished run on 2021/06/12 at 02:47:04.517     
------------------------------------------------------------------------
 total:
 * wall-time:     0 d,  0 h,  0 min, 28.262 sec
 *  cpu-time:     0 d,  0 h,  5 min, 38.745 sec
 * ratio c/w:    11.986 speedup
 SCF:
 * wall-time:     0 d,  0 h,  0 min,  0.262 sec
 *  cpu-time:     0 d,  0 h,  0 min,  3.127 sec
 * ratio c/w:    11.944 speedup
 ANC optimizer:
 * wall-time:     0 d,  0 h,  0 min, 27.949 sec
 *  cpu-time:     0 d,  0 h,  5 min, 35.086 sec
 * ratio c/w:    11.989 speedup

