      -----------------------------------------------------------      
     |                   =====================                   |     
     |                           x T B                           |     
     |                   =====================                   |     
     |                         S. Grimme                         |     
     |          Mulliken Center for Theoretical Chemistry        |     
     |                    University of Bonn                     |     
     |                Version 6.2 RC2 (SAW190805)                |     
      -----------------------------------------------------------      

   This program is distributed in the hope that it will be useful,
   but WITHOUT ANY WARRANTY; without even the implied warranty of
   MERCHANTABILITY or FITNESS FOR A PARTICULAR PURPOSE.
   
   FOR NON-COMMERCIAL, ACADEMIA USE ONLY.
   
   Cite this work as:
   * S. Grimme, C. Bannwarth, P. Shushkov, J. Chem. Theory Comput., 2017,
     13, 1989-2009. DOI: 10.1021/acs.jctc.7b00118
   * C. Bannwarth, S. Ehlert and S. Grimme., J. Chem. Theory Comput., 2019,
     15, 1652-1671. DOI: 10.1021/acs.jctc.8b01176
   * P. Pracht, E. Caldeweyher, S. Ehlert, S. Grimme, ChemRxiv, 2019, preprint.
     DOI: 10.26434/chemrxiv.8326202.v1
   
   for DFT-D4:
   * E. Caldeweyher, C. Bannwarth and S. Grimme, J. Chem. Phys., 2017,
     147, 034112. DOI: 10.1063/1.4993215
   * E. Caldeweyher, S. Ehlert, A. Hansen, H. Neugebauer, S. Spicher,
     C. Bannwarth and S. Grimme, J. Chem. Phys., 2019, 150, 154122.
     DOI: 10.1063/1.5090222
   
   for sTDA-xTB:
   * S. Grimme and C. Bannwarth, J. Chem. Phys., 2016, 145, 054103.
     DOI: 10.1063/1.4959605
   
   in the mass-spec context:
   * V. Asgeirsson, C. Bauer and S. Grimme, Chem. Sci., 2017, 8, 4879.
     DOI: 10.1039/c7sc00601b
   
   for metadynamics refer to:
   * S. Grimme, J. Chem. Theory Comput., 2019, 155, 2847-2862
     DOI: 10.1021/acs.jctc.9b00143
   
   with help from (in alphabetical order)
   C. Bannwarth, F. Bohle, G. Brandenburg, E. Caldeweyher, M. Checinski,
   S. Dohm, S. Ehlert, S. Ehrlich, F. März, H. Neugebauer, J. Pisarek,
   P. Pracht, P. Shushkov, and S. Spicher.
   
 * started run on 2021/06/12 at 08:31:08.911     

           -------------------------------------------------
          |                Calculation Setup                |
           -------------------------------------------------

          program call               : /ihome/ghutchison/geoffh/xtb/xtb /ihome/ghutchison/blp62/GA/running_GA/sequence/generations/123/278_206_206_206_278_13331.xyz -opt
          hostname                   : smp-n55
          coordinate file            : /ihome/ghutchison/blp62/GA/running_GA/sequence/generations/123/278_206_206_206_278_13331.xyz
          omp threads                :                    12
          number of atoms            :                    99
          number of electrons        :                   374
          charge                     :                     0
          spin                       :                   0.0
          first test random number   :      0.96027811878530


########################################################################
# WARNING! Please study the warnings concerning your input carefully
#  - XTBPATH is not set, using XTBHOME instead
#  - the use of '-opt' is discouraged, please use '--opt' next time
########################################################################

           ------------------------------------------------- 
          |                 G F N 2 - x T B                 |
          | Geometry, Frequencies, Noncovalent interactions |
          |            JCTC 2019 parametrisation            |
           ------------------------------------------------- 
             KAB for C  - Si     :                1.0500
             KAB for H  - Pd     :                0.9500
             k(s)              :                1.8500
             k(p)              :                2.2300
             k(d)              :                2.2300
             k(f)              :                2.0000
             kEN (H0ij)        :               -2.0000
             D4 a1             :                0.5200
             D4 a2             :                5.0000
             D4 s6             :                1.0000
             D4 s8             :                2.7000
             D4 s9             :                5.0000
             alphaj            :                2.0000

  Z AO/shell   Hii/eV     exponent
  1     Wed Apr 25 08:07:45 CEST 2018   EN: 2.200 GM2: 0.406  GM3: 0.0800  RAES: 1.40
     1s    -10.707211    1.230000
  6     Wed Apr 25 08:07:45 CEST 2018   EN: 2.550 GM2: 0.538  GM3: 0.1500  RAES: 3.00
     2s    -13.970922    2.096432
     2p    -10.063292    1.800000
  7     Wed Apr 25 08:07:45 CEST 2018   EN: 3.040 GM2: 0.461  GM3:-0.0640  RAES: 1.90
     2s    -16.686243    2.339881
     2p    -12.523956    2.014332
  8     Wed Apr 25 08:07:45 CEST 2018   EN: 3.440 GM2: 0.452  GM3:-0.0517  RAES: 1.80
     2s    -20.229985    2.439742
     2p    -15.503117    2.137023
  9     Mon Apr 23 13:58:50 CEST 2018   EN: 3.980 GM2: 0.532  GM3: 0.1426  RAES: 2.40
     2s    -23.458179    2.416361
     2p    -15.746583    2.308399
 16     Tue Apr 24 11:44:34 CEST 2018   EN: 2.580 GM2: 0.340  GM3:-0.0502  RAES: 3.10
     3s    -20.029654    1.981333
     3p    -11.377694    2.025643
     3d     -0.420282    1.702555

           ------------------------------------------------- 
          |        Self-Consistent Charge Iterations        |
           ------------------------------------------------- 

          ...................................................
          :                      SETUP                      :
          :.................................................:
          :  # basis functions                 348          :
          :  # atomic orbitals                 345          :
          :  # shells                          179          :
          :  # electrons                       374          :
          :  max. iterations                   250          :
          :  Hamiltonian                  GFN2-xTB          :
          :  restarted?                      false          :
          :  GBSA solvation                  false          :
          :  PC potential                    false          :
          :  electronic temp.          300.0000000     K    :
          :  accuracy                    1.0000000          :
          :  -> integral cutoff          0.2500000E+02      :
          :  -> integral neglect         0.1000000E-07      :
          :  -> SCF convergence          0.1000000E-05 Eh   :
          :  -> wf. convergence          0.1000000E-03 e    :
          :  Broyden damping             0.4000000          :
          ...................................................

 iter      E             dE          RMSdq      gap      omega  full diag
   1   -214.4441367 -0.214444E+03  0.572E+00    0.71       0.0  T
   2   -214.9394348 -0.495298E+00  0.358E+00    1.46       1.0  T
   3   -214.9321460  0.728874E-02  0.233E+00    0.87       1.0  T
   4   -215.1643809 -0.232235E+00  0.122E+00    1.16       1.0  T
   5   -215.2454926 -0.811117E-01  0.380E-01    1.05       1.0  T
   6   -215.2573522 -0.118596E-01  0.118E-01    1.08       1.0  T
   7   -215.2578398 -0.487594E-03  0.626E-02    1.06       1.0  T
   8   -215.2579738 -0.134038E-03  0.303E-02    1.08       1.0  T
   9   -215.2580300 -0.561813E-04  0.135E-02    1.07       1.0  T
  10   -215.2580380 -0.805638E-05  0.712E-03    1.07       1.4  T
  11   -215.2580397 -0.163789E-05  0.319E-03    1.07       3.1  T
  12   -215.2580403 -0.620833E-06  0.136E-03    1.07       7.4  T
  13   -215.2580403 -0.259691E-07  0.866E-04    1.07      11.6  T
  14   -215.2580404 -0.369483E-07  0.298E-04    1.07      33.7  T

   *** convergence criteria satisfied after 14 iterations ***

         #    Occupation            Energy/Eh            Energy/eV
      -------------------------------------------------------------
         1        2.0000           -0.8554068             -23.2768
       ...           ...                  ...                  ...
       181        2.0000           -0.4317673             -11.7490
       182        2.0000           -0.4272265             -11.6254
       183        2.0000           -0.4239141             -11.5353
       184        2.0000           -0.4218325             -11.4786
       185        2.0000           -0.4187432             -11.3946
       186        2.0000           -0.4088064             -11.1242
       187        2.0000           -0.3927523             -10.6873 (HOMO)
       188                         -0.3533928              -9.6163 (LUMO)
       189                         -0.3509454              -9.5497
       190                         -0.3445419              -9.3755
       191                         -0.3390284              -9.2254
       192                         -0.3383958              -9.2082
       ...                                ...                  ...
       345                          1.0784905              29.3472
      -------------------------------------------------------------
                  HL-Gap            0.0393596 Eh            1.0710 eV
             Fermi-level           -0.3731074 Eh          -10.1528 eV

 SCC (total)                   0 d,  0 h,  0 min,  0.225 sec
 SCC setup                      ...        0 min,  0.003 sec (  1.166%)
 Dispersion                     ...        0 min,  0.005 sec (  2.315%)
 integral evaluation            ...        0 min,  0.023 sec ( 10.202%)
 zeroth order Hamiltonian       ...        0 min,  0.001 sec (  0.591%)
 iterations                     ...        0 min,  0.172 sec ( 76.199%)
 molecular gradient             ...        0 min,  0.020 sec (  9.003%)
 printout                       ...        0 min,  0.001 sec (  0.477%)

         :::::::::::::::::::::::::::::::::::::::::::::::::::::
         ::                     SUMMARY                     ::
         :::::::::::::::::::::::::::::::::::::::::::::::::::::
         :: total energy            -212.425551787736 Eh    ::
         :: gradient norm              0.204906288067 Eh/a0 ::
         :: HOMO-LUMO gap              1.071028171461 eV    ::
         ::.................................................::
         :: SCC energy              -215.258040359544 Eh    ::
         :: -> isotropic ES            0.288669005124 Eh    ::
         :: -> anisotropic ES          0.028154243505 Eh    ::
         :: -> anisotropic XC          0.091151670503 Eh    ::
         :: -> dispersion             -0.142435275200 Eh    ::
         :: repulsion energy           2.834443202425 Eh    ::
         :: add. restraining           0.000000000000 Eh    ::
         :::::::::::::::::::::::::::::::::::::::::::::::::::::

      ----------------------------------------------------------- 
     |                   =====================                   |
     |                        A N C O P T                        |
     |                   =====================                   |
     |               Approximate Normal Coordinate               |
     |                Rational Function Optimizer                |
      ----------------------------------------------------------- 

          ...................................................
          :                      SETUP                      :
          :.................................................:
          :   optimization level            normal          :
          :   max. optcycles                   297          :
          :   ANC micro-cycles                  20          :
          :   degrees of freedom               291          :
          :.................................................:
          :   RF solver                   davidson          :
          :   input Hessian                  false          :
          :   write xtbopt.log                true          :
          :   linear?                        false          :
          :   energy convergence         0.5000000E-05 Eh   :
          :   grad. convergence          0.1000000E-02 Eh/α :
          :   maximium RF displ.         2.0000000          :
          :   Hlow (freq-cutoff)         0.5000000E-02      :
          :   Hmax (freq-cutoff)         5.0000000          :
          :   S6 in model hess.         20.0000000          :
          ...................................................

generating ANC from model Hessian ...
Using Lindh-Hessian (1995)
 Shifting diagonal of input Hessian by   4.996782962195434E-003
 Lowest  eigenvalues of input Hessian
   -0.000000   -0.000000    0.000000    0.000000    0.000000    0.000000
    0.005000    0.005010    0.005032    0.005051    0.005085    0.005129
    0.005190    0.005269    0.005314    0.005400    0.005522    0.005705
 Highest eigenvalues
    2.479399    2.481661    2.498958    2.501704    2.566992    2.569813
 

........................................................................
.............................. CYCLE    1 ..............................
........................................................................
   1   -215.2580404 -0.215258E+03  0.153E-04    1.07       0.0  T
   2   -215.2580404 -0.133980E-09  0.122E-04    1.07      82.5  T
   3   -215.2580404 -0.927798E-09  0.663E-05    1.07     151.7  T
     SCC iter.                  ...        0 min,  0.037 sec
     gradient                   ...        0 min,  0.021 sec
 * total energy  :  -212.4255516 Eh     change        0.1681539E-06 Eh
   gradient norm :     0.2049070 Eh/α   predicted     0.0000000E+00 (-100.00%)
   displ. norm   :     0.4308782 α      lambda       -0.4165094E-01
   maximum displ.:     0.1052573 α      in ANC's #74, #42, #45, ...

........................................................................
.............................. CYCLE    2 ..............................
........................................................................
   1   -215.3651885 -0.215365E+03  0.275E-01    1.04       0.0  T
   2   -215.3658603 -0.671784E-03  0.148E-01    1.08       1.0  T
   3   -215.3656354  0.224905E-03  0.879E-02    1.07       1.0  T
   4   -215.3660573 -0.421942E-03  0.340E-02    1.08       1.0  T
   5   -215.3661098 -0.524825E-04  0.153E-02    1.08       1.0  T
   6   -215.3661209 -0.111426E-04  0.660E-03    1.08       1.5  T
   7   -215.3661222 -0.124803E-05  0.348E-03    1.08       2.9  T
   8   -215.3661229 -0.757701E-06  0.154E-03    1.08       6.5  T
     SCC iter.                  ...        0 min,  0.092 sec
     gradient                   ...        0 min,  0.020 sec
 * total energy  :  -212.4552368 Eh     change       -0.2968521E-01 Eh
   gradient norm :     0.0893855 Eh/α   predicted    -0.2469194E-01 ( -16.82%)
   displ. norm   :     0.5680338 α      lambda       -0.2106911E-01
   maximum displ.:     0.1782752 α      in ANC's #42, #39, #55, ...

........................................................................
.............................. CYCLE    3 ..............................
........................................................................
   1   -215.4077329 -0.215408E+03  0.305E-01    1.04       0.0  T
   2   -215.4081748 -0.441872E-03  0.173E-01    1.10       1.0  T
   3   -215.4075735  0.601345E-03  0.115E-01    1.08       1.0  T
   4   -215.4084973 -0.923872E-03  0.323E-02    1.10       1.0  T
   5   -215.4085443 -0.469807E-04  0.170E-02    1.10       1.0  T
   6   -215.4085613 -0.170182E-04  0.662E-03    1.10       1.5  T
   7   -215.4085632 -0.183807E-05  0.345E-03    1.10       2.9  T
   8   -215.4085639 -0.762269E-06  0.141E-03    1.10       7.1  T
     SCC iter.                  ...        0 min,  0.092 sec
     gradient                   ...        0 min,  0.020 sec
 * total energy  :  -212.4691489 Eh     change       -0.1391203E-01 Eh
   gradient norm :     0.0306260 Eh/α   predicted    -0.1393366E-01 (   0.16%)
   displ. norm   :     0.6515308 α      lambda       -0.1140758E-01
   maximum displ.:     0.2061091 α      in ANC's #42, #38, #41, ...

........................................................................
.............................. CYCLE    4 ..............................
........................................................................
   1   -215.4164439 -0.215416E+03  0.336E-01    1.06       0.0  T
   2   -215.4167255 -0.281554E-03  0.197E-01    1.13       1.0  T
   3   -215.4154643  0.126116E-02  0.137E-01    1.09       1.0  T
   4   -215.4170349 -0.157061E-02  0.279E-02    1.12       1.0  T
   5   -215.4170885 -0.535896E-04  0.127E-02    1.12       1.0  T
   6   -215.4170968 -0.827060E-05  0.694E-03    1.12       1.4  T
   7   -215.4170991 -0.233156E-05  0.261E-03    1.12       3.8  T
   8   -215.4170993 -0.184848E-06  0.124E-03    1.12       8.1  T
     SCC iter.                  ...        0 min,  0.097 sec
     gradient                   ...        0 min,  0.020 sec
 * total energy  :  -212.4765561 Eh     change       -0.7407234E-02 Eh
   gradient norm :     0.0377745 Eh/α   predicted    -0.8125008E-02 (   9.69%)
   displ. norm   :     0.7041527 α      lambda       -0.9699596E-02
   maximum displ.:     0.2391335 α      in ANC's #55, #42, #39, ...

........................................................................
.............................. CYCLE    5 ..............................
........................................................................
   1   -215.4166285 -0.215417E+03  0.416E-01    1.10       0.0  T
   2   -215.4171137 -0.485269E-03  0.239E-01    1.17       1.0  T
   3   -215.4150212  0.209258E-02  0.160E-01    1.11       1.0  T
   4   -215.4174851 -0.246396E-02  0.293E-02    1.15       1.0  T
   5   -215.4175290 -0.438992E-04  0.163E-02    1.15       1.0  T
   6   -215.4175482 -0.191925E-04  0.795E-03    1.15       1.3  T
   7   -215.4175507 -0.251353E-05  0.331E-03    1.15       3.0  T
   8   -215.4175509 -0.176803E-06  0.159E-03    1.15       6.3  T
     SCC iter.                  ...        0 min,  0.092 sec
     gradient                   ...        0 min,  0.020 sec
 * total energy  :  -212.4816671 Eh     change       -0.5111027E-02 Eh
   gradient norm :     0.0531802 Eh/α   predicted    -0.7254492E-02 (  41.94%)
   displ. norm   :     0.5637176 α      lambda       -0.8744816E-02
   maximum displ.:     0.1625310 α      in ANC's #42, #55, #28, ...

........................................................................
.............................. CYCLE    6 ..............................
........................................................................
   1   -215.4249871 -0.215425E+03  0.368E-01    1.14       0.0  T
   2   -215.4256595 -0.672433E-03  0.209E-01    1.18       1.0  T
   3   -215.4250976  0.561912E-03  0.114E-01    1.15       1.0  T
   4   -215.4257890 -0.691391E-03  0.444E-02    1.18       1.0  T
   5   -215.4259867 -0.197637E-03  0.134E-02    1.17       1.0  T
   6   -215.4259908 -0.416341E-05  0.811E-03    1.17       1.2  T
   7   -215.4259953 -0.442620E-05  0.286E-03    1.17       3.5  T
   8   -215.4259955 -0.252761E-06  0.142E-03    1.17       7.1  T
     SCC iter.                  ...        0 min,  0.098 sec
     gradient                   ...        0 min,  0.021 sec
 * total energy  :  -212.4843444 Eh     change       -0.2677333E-02 Eh
   gradient norm :     0.0739745 Eh/α   predicted    -0.5761866E-02 ( 115.21%)
   displ. norm   :     0.3707019 α      lambda       -0.8307300E-02
   maximum displ.:     0.1146787 α      in ANC's #19, #23, #35, ...

........................................................................
.............................. CYCLE    7 ..............................
........................................................................
   1   -215.4390861 -0.215439E+03  0.238E-01    1.14       0.0  T
   2   -215.4398486 -0.762471E-03  0.126E-01    1.15       1.0  T
   3   -215.4398801 -0.315360E-04  0.666E-02    1.15       1.0  T
   4   -215.4399434 -0.632544E-04  0.287E-02    1.16       1.0  T
   5   -215.4399950 -0.516033E-04  0.151E-02    1.16       1.0  T
   6   -215.4400127 -0.176540E-04  0.566E-03    1.16       1.8  T
   7   -215.4400136 -0.964191E-06  0.328E-03    1.16       3.1  T
   8   -215.4400142 -0.618354E-06  0.139E-03    1.16       7.2  T
     SCC iter.                  ...        0 min,  0.095 sec
     gradient                   ...        0 min,  0.020 sec
 * total energy  :  -212.4888148 Eh     change       -0.4470326E-02 Eh
   gradient norm :     0.0295108 Eh/α   predicted    -0.4724444E-02 (   5.68%)
   displ. norm   :     0.5270281 α      lambda       -0.5227068E-02
   maximum displ.:     0.1724682 α      in ANC's #55, #23, #58, ...

........................................................................
.............................. CYCLE    8 ..............................
........................................................................
   1   -215.4348306 -0.215435E+03  0.339E-01    1.15       0.0  T
   2   -215.4354881 -0.657522E-03  0.194E-01    1.18       1.0  T
   3   -215.4348110  0.677074E-03  0.117E-01    1.14       1.0  T
   4   -215.4357208 -0.909749E-03  0.322E-02    1.17       1.0  T
   5   -215.4357881 -0.673316E-04  0.144E-02    1.16       1.0  T
   6   -215.4358004 -0.122377E-04  0.797E-03    1.17       1.3  T
   7   -215.4358042 -0.381217E-05  0.376E-03    1.17       2.7  T
   8   -215.4358045 -0.307605E-06  0.141E-03    1.17       7.1  T
     SCC iter.                  ...        0 min,  0.095 sec
     gradient                   ...        0 min,  0.020 sec
 * total energy  :  -212.4915163 Eh     change       -0.2701575E-02 Eh
   gradient norm :     0.0514757 Eh/α   predicted    -0.3339462E-02 (  23.61%)
   displ. norm   :     0.4457061 α      lambda       -0.4335921E-02
   maximum displ.:     0.1375564 α      in ANC's #55, #23, #58, ...

........................................................................
.............................. CYCLE    9 ..............................
........................................................................
   1   -215.4368286 -0.215437E+03  0.241E-01    1.16       0.0  T
   2   -215.4372573 -0.428627E-03  0.140E-01    1.17       1.0  T
   3   -215.4371940  0.632055E-04  0.703E-02    1.16       1.0  T
   4   -215.4373705 -0.176415E-03  0.229E-02    1.17       1.0  T
   5   -215.4374128 -0.423553E-04  0.985E-03    1.17       1.0  T
   6   -215.4374161 -0.332725E-05  0.486E-03    1.17       2.1  T
   7   -215.4374174 -0.130188E-05  0.258E-03    1.17       3.9  T
     SCC iter.                  ...        0 min,  0.083 sec
     gradient                   ...        0 min,  0.020 sec
 * total energy  :  -212.4940010 Eh     change       -0.2484649E-02 Eh
   gradient norm :     0.0489217 Eh/α   predicted    -0.2598630E-02 (   4.59%)
   displ. norm   :     0.4748094 α      lambda       -0.5226398E-02
   maximum displ.:     0.1688874 α      in ANC's #29, #13, #19, ...

........................................................................
.............................. CYCLE   10 ..............................
........................................................................
   1   -215.4504033 -0.215450E+03  0.290E-01    1.16       0.0  T
   2   -215.4513177 -0.914344E-03  0.155E-01    1.17       1.0  T
   3   -215.4513792 -0.615429E-04  0.811E-02    1.17       1.0  T
   4   -215.4515206 -0.141399E-03  0.231E-02    1.17       1.0  T
   5   -215.4515414 -0.207950E-04  0.133E-02    1.17       1.0  T
   6   -215.4515518 -0.103940E-04  0.485E-03    1.17       2.1  T
   7   -215.4515523 -0.529377E-06  0.271E-03    1.17       3.7  T
   8   -215.4515527 -0.340784E-06  0.129E-03    1.17       7.8  T
     SCC iter.                  ...        0 min,  0.094 sec
     gradient                   ...        0 min,  0.020 sec
 * total energy  :  -212.4955239 Eh     change       -0.1522923E-02 Eh
   gradient norm :     0.0564318 Eh/α   predicted    -0.3202322E-02 ( 110.27%)
   displ. norm   :     0.3992197 α      lambda       -0.4870965E-02
   maximum displ.:     0.1411679 α      in ANC's #58, #38, #55, ...

........................................................................
.............................. CYCLE   11 ..............................
........................................................................
   1   -215.4532500 -0.215453E+03  0.258E-01    1.16       0.0  T
   2   -215.4539044 -0.654375E-03  0.147E-01    1.17       1.0  T
   3   -215.4539006  0.375863E-05  0.822E-02    1.16       1.0  T
   4   -215.4540771 -0.176499E-03  0.270E-02    1.17       1.0  T
   5   -215.4541379 -0.608199E-04  0.103E-02    1.16       1.0  T
   6   -215.4541427 -0.474145E-05  0.544E-03    1.17       1.8  T
   7   -215.4541438 -0.111277E-05  0.314E-03    1.17       3.2  T
     SCC iter.                  ...        0 min,  0.083 sec
     gradient                   ...        0 min,  0.020 sec
 * total energy  :  -212.4980759 Eh     change       -0.2551948E-02 Eh
   gradient norm :     0.0466056 Eh/α   predicted    -0.2823636E-02 (  10.65%)
   displ. norm   :     0.4375936 α      lambda       -0.4894901E-02
   maximum displ.:     0.1425254 α      in ANC's #58, #55, #38, ...

........................................................................
.............................. CYCLE   12 ..............................
........................................................................
   1   -215.4516205 -0.215452E+03  0.346E-01    1.19       0.0  T
   2   -215.4537554 -0.213495E-02  0.202E-01    1.21       1.0  T
   3   -215.4544342 -0.678817E-03  0.114E-01    1.18       1.0  T
   4   -215.4545601 -0.125836E-03  0.367E-02    1.19       1.0  T
   5   -215.4546675 -0.107411E-03  0.140E-02    1.19       1.0  T
   6   -215.4546737 -0.622511E-05  0.724E-03    1.19       1.4  T
   7   -215.4546745 -0.762338E-06  0.416E-03    1.19       2.4  T
   8   -215.4546753 -0.847994E-06  0.182E-03    1.19       5.5  T
     SCC iter.                  ...        0 min,  0.096 sec
     gradient                   ...        0 min,  0.020 sec
 * total energy  :  -212.4966268 Eh     change        0.1449073E-02 Eh
   gradient norm :     0.0892283 Eh/α   predicted    -0.2916112E-02 (-301.24%)
   displ. norm   :     0.2312728 α      lambda       -0.7838110E-02
   maximum displ.:     0.0805444 α      in ANC's #13, #62, #57, ...

........................................................................
.............................. CYCLE   13 ..............................
........................................................................
   1   -215.4559520 -0.215456E+03  0.211E-01    1.17       0.0  T
   2   -215.4571222 -0.117017E-02  0.125E-01    1.15       1.0  T
   3   -215.4574637 -0.341563E-03  0.674E-02    1.18       1.0  T
   4   -215.4574703 -0.662072E-05  0.288E-02    1.16       1.0  T
   5   -215.4575271 -0.567746E-04  0.114E-02    1.17       1.0  T
   6   -215.4575333 -0.615621E-05  0.526E-03    1.17       1.9  T
   7   -215.4575337 -0.415003E-06  0.358E-03    1.17       2.8  T
   8   -215.4575343 -0.577105E-06  0.154E-03    1.17       6.5  T
     SCC iter.                  ...        0 min,  0.096 sec
     gradient                   ...        0 min,  0.020 sec
 * total energy  :  -212.5005792 Eh     change       -0.3952414E-02 Eh
   gradient norm :     0.0352554 Eh/α   predicted    -0.4128668E-02 (   4.46%)
   displ. norm   :     0.4308341 α      lambda       -0.4740448E-02
   maximum displ.:     0.1346139 α      in ANC's #29, #25, #57, ...

........................................................................
.............................. CYCLE   14 ..............................
........................................................................
   1   -215.4489425 -0.215449E+03  0.348E-01    1.18       0.0  T
   2   -215.4509877 -0.204523E-02  0.186E-01    1.20       1.0  T
   3   -215.4510295 -0.417602E-04  0.106E-01    1.17       1.0  T
   4   -215.4512868 -0.257331E-03  0.468E-02    1.19       1.0  T
   5   -215.4514135 -0.126729E-03  0.184E-02    1.18       1.0  T
   6   -215.4514310 -0.174218E-04  0.775E-03    1.18       1.3  T
   7   -215.4514317 -0.752955E-06  0.487E-03    1.18       2.1  T
   8   -215.4514326 -0.925185E-06  0.201E-03    1.18       5.0  T
     SCC iter.                  ...        0 min,  0.095 sec
     gradient                   ...        0 min,  0.020 sec
 * total energy  :  -212.4959665 Eh     change        0.4612664E-02 Eh
   gradient norm :     0.1073644 Eh/α   predicted    -0.2810173E-02 (-160.92%)
   displ. norm   :     0.2747979 α      lambda       -0.1204722E-01
   maximum displ.:     0.1010722 α      in ANC's #57, #38, #24, ...

........................................................................
.............................. CYCLE   15 ..............................
........................................................................
   1   -215.4549130 -0.215455E+03  0.258E-01    1.16       0.0  T
   2   -215.4563377 -0.142468E-02  0.141E-01    1.16       1.0  T
   3   -215.4564477 -0.110027E-03  0.841E-02    1.17       1.0  T
   4   -215.4565871 -0.139410E-03  0.390E-02    1.17       1.0  T
   5   -215.4566580 -0.708534E-04  0.179E-02    1.17       1.0  T
   6   -215.4566802 -0.222493E-04  0.759E-03    1.17       1.3  T
   7   -215.4566825 -0.226893E-05  0.457E-03    1.17       2.2  T
   8   -215.4566831 -0.584118E-06  0.215E-03    1.17       4.7  T
     SCC iter.                  ...        0 min,  0.094 sec
     gradient                   ...        0 min,  0.020 sec
 * total energy  :  -212.5022179 Eh     change       -0.6251379E-02 Eh
   gradient norm :     0.0266011 Eh/α   predicted    -0.6478461E-02 (   3.63%)
   displ. norm   :     0.3432359 α      lambda       -0.2556433E-02
   maximum displ.:     0.1023032 α      in ANC's #13, #30, #33, ...

........................................................................
.............................. CYCLE   16 ..............................
........................................................................
   1   -215.4697883 -0.215470E+03  0.226E-01    1.19       0.0  T
   2   -215.4702346 -0.446316E-03  0.123E-01    1.18       1.0  T
   3   -215.4701024  0.132212E-03  0.640E-02    1.19       1.0  T
   4   -215.4702758 -0.173384E-03  0.264E-02    1.18       1.0  T
   5   -215.4703310 -0.552296E-04  0.112E-02    1.19       1.0  T
   6   -215.4703402 -0.924421E-05  0.488E-03    1.18       2.1  T
   7   -215.4703411 -0.872358E-06  0.285E-03    1.19       3.5  T
   8   -215.4703414 -0.257874E-06  0.124E-03    1.19       8.1  T
     SCC iter.                  ...        0 min,  0.094 sec
     gradient                   ...        0 min,  0.020 sec
 * total energy  :  -212.5014905 Eh     change        0.7274090E-03 Eh
   gradient norm :     0.0614580 Eh/α   predicted    -0.1428807E-02 (-296.42%)
   displ. norm   :     0.3677115 α      lambda       -0.4750111E-02
   maximum displ.:     0.1149117 α      in ANC's #55, #29, #17, ...

........................................................................
.............................. CYCLE   17 ..............................
........................................................................
   1   -215.4571869 -0.215457E+03  0.255E-01    1.15       0.0  T
   2   -215.4580132 -0.826234E-03  0.143E-01    1.17       1.0  T
   3   -215.4577508  0.262380E-03  0.875E-02    1.16       1.0  T
   4   -215.4581793 -0.428498E-03  0.340E-02    1.17       1.0  T
   5   -215.4582436 -0.642988E-04  0.135E-02    1.17       1.0  T
   6   -215.4582536 -0.999378E-05  0.642E-03    1.17       1.6  T
   7   -215.4582552 -0.166106E-05  0.373E-03    1.17       2.7  T
   8   -215.4582557 -0.500345E-06  0.174E-03    1.17       5.8  T
     SCC iter.                  ...        0 min,  0.094 sec
     gradient                   ...        0 min,  0.020 sec
 * total energy  :  -212.5029947 Eh     change       -0.1504205E-02 Eh
   gradient norm :     0.0507659 Eh/α   predicted    -0.2696192E-02 (  79.24%)
   displ. norm   :     0.4065949 α      lambda       -0.6114764E-02
   maximum displ.:     0.1509477 α      in ANC's #28, #33, #30, ...

........................................................................
.............................. CYCLE   18 ..............................
........................................................................
   1   -215.4362987 -0.215436E+03  0.352E-01    1.15       0.0  T
   2   -215.4377000 -0.140126E-02  0.198E-01    1.17       1.0  T
   3   -215.4377190 -0.190466E-04  0.114E-01    1.15       1.0  T
   4   -215.4379640 -0.244960E-03  0.521E-02    1.17       1.0  T
   5   -215.4382365 -0.272568E-03  0.139E-02    1.16       1.0  T
   6   -215.4382446 -0.801366E-05  0.809E-03    1.16       1.2  T
   7   -215.4382478 -0.328070E-05  0.446E-03    1.16       2.3  T
   8   -215.4382484 -0.586886E-06  0.212E-03    1.16       4.7  T
     SCC iter.                  ...        0 min,  0.095 sec
     gradient                   ...        0 min,  0.020 sec
 * total energy  :  -212.4996514 Eh     change        0.3343326E-02 Eh
   gradient norm :     0.1213702 Eh/α   predicted    -0.3562816E-02 (-206.57%)
   displ. norm   :     0.2996769 α      lambda       -0.1188990E-01
   maximum displ.:     0.1155675 α      in ANC's #28, #42, #18, ...

........................................................................
.............................. CYCLE   19 ..............................
........................................................................
   1   -215.4663868 -0.215466E+03  0.257E-01    1.18       0.0  T
   2   -215.4668617 -0.474825E-03  0.142E-01    1.19       1.0  T
   3   -215.4667283  0.133408E-03  0.654E-02    1.18       1.0  T
   4   -215.4669341 -0.205841E-03  0.231E-02    1.18       1.0  T
   5   -215.4669828 -0.487349E-04  0.965E-03    1.18       1.0  T
   6   -215.4669909 -0.805839E-05  0.426E-03    1.18       2.4  T
   7   -215.4669917 -0.819243E-06  0.226E-03    1.18       4.4  T
   8   -215.4669918 -0.119997E-06  0.103E-03    1.18       9.7  T
     SCC iter.                  ...        0 min,  0.094 sec
     gradient                   ...        0 min,  0.020 sec
 * total energy  :  -212.5035277 Eh     change       -0.3876339E-02 Eh
   gradient norm :     0.0513424 Eh/α   predicted    -0.6478837E-02 (  67.14%)
   displ. norm   :     0.4390648 α      lambda       -0.8563845E-02
   maximum displ.:     0.1478510 α      in ANC's #42, #49, #33, ...

........................................................................
.............................. CYCLE   20 ..............................
........................................................................
   1   -215.4624605 -0.215462E+03  0.410E-01    1.16       0.0  T
   2   -215.4651323 -0.267185E-02  0.224E-01    1.13       1.0  T
   3   -215.4654133 -0.280941E-03  0.120E-01    1.17       1.0  T
   4   -215.4655115 -0.982387E-04  0.500E-02    1.15       1.0  T
   5   -215.4657638 -0.252314E-03  0.163E-02    1.16       1.0  T
   6   -215.4657776 -0.138029E-04  0.901E-03    1.16       1.1  T
   7   -215.4657818 -0.419164E-05  0.470E-03    1.16       2.1  T
   8   -215.4657823 -0.492926E-06  0.241E-03    1.16       4.2  T
     SCC iter.                  ...        0 min,  0.094 sec
     gradient                   ...        0 min,  0.020 sec
 * total energy  :  -212.4994705 Eh     change        0.4057201E-02 Eh
   gradient norm :     0.1106425 Eh/α   predicted    -0.5107369E-02 (-225.88%)
   displ. norm   :     0.2562788 α      lambda       -0.1267939E-01
   maximum displ.:     0.0705073 α      in ANC's #41, #55, #58, ...
 * RMSD in coord.:     0.5512018 α      energy gain  -0.7391875E-01 Eh

generating ANC from model Hessian ...
Using Lindh-Hessian (1995)
 Shifting diagonal of input Hessian by   5.032983918042265E-003
 Lowest  eigenvalues of input Hessian
    0.005000    0.005010   -0.000000   -0.000000    0.000000    0.000000
    0.000000    0.000000    0.005068    0.005079    0.005109    0.005134
    0.005200    0.005306    0.005351    0.005523    0.005588    0.005762
 Highest eigenvalues
    2.604644    2.610060    2.627563    2.631692    2.647074    2.658505
 

........................................................................
.............................. CYCLE   21 ..............................
........................................................................
   1   -215.4587642 -0.215459E+03  0.259E-01    1.17       0.0  T
   2   -215.4607085 -0.194427E-02  0.145E-01    1.20       1.0  T
   3   -215.4611620 -0.453523E-03  0.796E-02    1.18       1.0  T
   4   -215.4611431  0.188696E-04  0.394E-02    1.18       1.0  T
   5   -215.4612599 -0.116726E-03  0.155E-02    1.18       1.0  T
   6   -215.4612763 -0.164762E-04  0.690E-03    1.18       1.5  T
   7   -215.4612785 -0.217423E-05  0.415E-03    1.18       2.4  T
   8   -215.4612789 -0.432652E-06  0.209E-03    1.18       4.8  T
   9   -215.4612792 -0.241961E-06  0.787E-04    1.18      12.8  T
  10   -215.4612792 -0.156313E-07  0.462E-04    1.18      21.8  T
     SCC iter.                  ...        0 min,  0.116 sec
     gradient                   ...        0 min,  0.021 sec
 * total energy  :  -212.5054879 Eh     change       -0.6017320E-02 Eh
   gradient norm :     0.0288719 Eh/α   predicted     0.0000000E+00 (-100.00%)
   displ. norm   :     0.3506387 α      lambda       -0.2430404E-02
   maximum displ.:     0.1472744 α      in ANC's #36, #8, #20, ...

........................................................................
.............................. CYCLE   22 ..............................
........................................................................
   1   -215.4595996 -0.215460E+03  0.251E-01    1.17       0.0  T
   2   -215.4596800 -0.804603E-04  0.138E-01    1.17       1.0  T
   3   -215.4595086  0.171466E-03  0.482E-02    1.17       1.0  T
   4   -215.4597110 -0.202484E-03  0.151E-02    1.17       1.0  T
   5   -215.4597189 -0.789302E-05  0.757E-03    1.17       1.3  T
   6   -215.4597228 -0.384666E-05  0.357E-03    1.17       2.8  T
   7   -215.4597238 -0.104837E-05  0.147E-03    1.17       6.8  T
     SCC iter.                  ...        0 min,  0.082 sec
     gradient                   ...        0 min,  0.020 sec
 * total energy  :  -212.5071175 Eh     change       -0.1629635E-02 Eh
   gradient norm :     0.0167318 Eh/α   predicted    -0.1364609E-02 ( -16.26%)
   displ. norm   :     0.4395086 α      lambda       -0.2172135E-02
   maximum displ.:     0.1603110 α      in ANC's #36, #34, #20, ...

........................................................................
.............................. CYCLE   23 ..............................
........................................................................
   1   -215.4620272 -0.215462E+03  0.313E-01    1.17       0.0  T
   2   -215.4621479 -0.120743E-03  0.173E-01    1.17       1.0  T
   3   -215.4620178  0.130066E-03  0.468E-02    1.17       1.0  T
   4   -215.4621891 -0.171264E-03  0.178E-02    1.17       1.0  T
   5   -215.4622017 -0.126334E-04  0.808E-03    1.17       1.2  T
   6   -215.4622044 -0.268379E-05  0.305E-03    1.17       3.3  T
   7   -215.4622049 -0.430811E-06  0.180E-03    1.17       5.6  T
   8   -215.4622050 -0.177920E-06  0.926E-04    1.17      10.9  T
     SCC iter.                  ...        0 min,  0.094 sec
     gradient                   ...        0 min,  0.020 sec
 * total energy  :  -212.5086187 Eh     change       -0.1501195E-02 Eh
   gradient norm :     0.0164949 Eh/α   predicted    -0.1295867E-02 ( -13.68%)
   displ. norm   :     0.5253759 α      lambda       -0.1882271E-02
   maximum displ.:     0.1863082 α      in ANC's #8, #20, #36, ...

........................................................................
.............................. CYCLE   24 ..............................
........................................................................
   1   -215.4599069 -0.215460E+03  0.332E-01    1.16       0.0  T
   2   -215.4600592 -0.152302E-03  0.186E-01    1.17       1.0  T
   3   -215.4598439  0.215261E-03  0.565E-02    1.16       1.0  T
   4   -215.4601227 -0.278759E-03  0.171E-02    1.16       1.0  T
   5   -215.4601311 -0.835054E-05  0.882E-03    1.16       1.1  T
   6   -215.4601337 -0.269185E-05  0.443E-03    1.16       2.3  T
   7   -215.4601350 -0.126519E-05  0.210E-03    1.16       4.8  T
   8   -215.4601353 -0.243025E-06  0.105E-03    1.16       9.5  T
     SCC iter.                  ...        0 min,  0.098 sec
     gradient                   ...        0 min,  0.021 sec
 * total energy  :  -212.5097246 Eh     change       -0.1105910E-02 Eh
   gradient norm :     0.0271705 Eh/α   predicted    -0.1200917E-02 (   8.59%)
   displ. norm   :     0.4599705 α      lambda       -0.2177105E-02
   maximum displ.:     0.2134869 α      in ANC's #8, #20, #21, ...

........................................................................
.............................. CYCLE   25 ..............................
........................................................................
   1   -215.4577267 -0.215458E+03  0.264E-01    1.17       0.0  T
   2   -215.4578566 -0.129886E-03  0.148E-01    1.17       1.0  T
   3   -215.4577322  0.124413E-03  0.420E-02    1.16       1.0  T
   4   -215.4578896 -0.157463E-03  0.143E-02    1.17       1.0  T
   5   -215.4579025 -0.128610E-04  0.588E-03    1.17       1.7  T
   6   -215.4579033 -0.797041E-06  0.325E-03    1.17       3.1  T
   7   -215.4579037 -0.385434E-06  0.145E-03    1.17       6.9  T
     SCC iter.                  ...        0 min,  0.080 sec
     gradient                   ...        0 min,  0.020 sec
 * total energy  :  -212.5104044 Eh     change       -0.6798196E-03 Eh
   gradient norm :     0.0285894 Eh/α   predicted    -0.1318867E-02 (  94.00%)
   displ. norm   :     0.3168860 α      lambda       -0.2636685E-02
   maximum displ.:     0.1492594 α      in ANC's #8, #6, #19, ...

........................................................................
.............................. CYCLE   26 ..............................
........................................................................
   1   -215.4708717 -0.215471E+03  0.192E-01    1.17       0.0  T
   2   -215.4711247 -0.252926E-03  0.106E-01    1.16       1.0  T
   3   -215.4709736  0.151083E-03  0.547E-02    1.17       1.0  T
   4   -215.4711732 -0.199649E-03  0.176E-02    1.17       1.0  T
   5   -215.4711934 -0.201278E-04  0.696E-03    1.17       1.4  T
   6   -215.4711955 -0.218397E-05  0.334E-03    1.17       3.0  T
   7   -215.4711956 -0.812128E-07  0.227E-03    1.17       4.4  T
     SCC iter.                  ...        0 min,  0.081 sec
     gradient                   ...        0 min,  0.020 sec
 * total energy  :  -212.5107286 Eh     change       -0.3241774E-03 Eh
   gradient norm :     0.0333339 Eh/α   predicted    -0.1450733E-02 ( 347.51%)
   displ. norm   :     0.3395119 α      lambda       -0.2820103E-02
   maximum displ.:     0.1303029 α      in ANC's #8, #36, #56, ...

........................................................................
.............................. CYCLE   27 ..............................
........................................................................
   1   -215.4661827 -0.215466E+03  0.262E-01    1.14       0.0  T
   2   -215.4667032 -0.520549E-03  0.140E-01    1.14       1.0  T
   3   -215.4663616  0.341597E-03  0.827E-02    1.16       1.0  T
   4   -215.4668306 -0.468944E-03  0.296E-02    1.15       1.0  T
   5   -215.4668808 -0.502073E-04  0.131E-02    1.15       1.0  T
   6   -215.4668891 -0.834182E-05  0.644E-03    1.15       1.6  T
   7   -215.4668911 -0.202754E-05  0.331E-03    1.15       3.0  T
   8   -215.4668917 -0.610281E-06  0.154E-03    1.15       6.5  T
     SCC iter.                  ...        0 min,  0.092 sec
     gradient                   ...        0 min,  0.020 sec
 * total energy  :  -212.5116272 Eh     change       -0.8986499E-03 Eh
   gradient norm :     0.0300056 Eh/α   predicted    -0.1572586E-02 (  74.99%)
   displ. norm   :     0.2486145 α      lambda       -0.1649527E-02
   maximum displ.:     0.1062303 α      in ANC's #8, #21, #6, ...

........................................................................
.............................. CYCLE   28 ..............................
........................................................................
   1   -215.4634596 -0.215463E+03  0.171E-01    1.16       0.0  T
   2   -215.4636855 -0.225825E-03  0.942E-02    1.18       1.0  T
   3   -215.4635977  0.877058E-04  0.504E-02    1.16       1.0  T
   4   -215.4637390 -0.141281E-03  0.186E-02    1.17       1.0  T
   5   -215.4637606 -0.215523E-04  0.816E-03    1.17       1.2  T
   6   -215.4637635 -0.290587E-05  0.391E-03    1.17       2.6  T
   7   -215.4637641 -0.621376E-06  0.227E-03    1.17       4.4  T
     SCC iter.                  ...        0 min,  0.093 sec
     gradient                   ...        0 min,  0.023 sec
 * total energy  :  -212.5121685 Eh     change       -0.5412868E-03 Eh
   gradient norm :     0.0244261 Eh/α   predicted    -0.8757442E-03 (  61.79%)
   displ. norm   :     0.2571163 α      lambda       -0.1328510E-02
   maximum displ.:     0.1485580 α      in ANC's #8, #6, #21, ...

........................................................................
.............................. CYCLE   29 ..............................
........................................................................
   1   -215.4653142 -0.215465E+03  0.138E-01    1.17       0.0  T
   2   -215.4655801 -0.265952E-03  0.776E-02    1.16       1.0  T
   3   -215.4656091 -0.289326E-04  0.427E-02    1.17       1.0  T
   4   -215.4656408 -0.317775E-04  0.161E-02    1.16       1.0  T
   5   -215.4656607 -0.198749E-04  0.593E-03    1.16       1.7  T
   6   -215.4656620 -0.128846E-05  0.288E-03    1.16       3.5  T
   7   -215.4656622 -0.231191E-06  0.177E-03    1.16       5.7  T
     SCC iter.                  ...        0 min,  0.084 sec
     gradient                   ...        0 min,  0.020 sec
 * total energy  :  -212.5124424 Eh     change       -0.2738847E-03 Eh
   gradient norm :     0.0245254 Eh/α   predicted    -0.7081729E-03 ( 158.57%)
   displ. norm   :     0.3249672 α      lambda       -0.1417085E-02
   maximum displ.:     0.1763560 α      in ANC's #8, #6, #17, ...

........................................................................
.............................. CYCLE   30 ..............................
........................................................................
   1   -215.4663304 -0.215466E+03  0.171E-01    1.16       0.0  T
   2   -215.4665130 -0.182589E-03  0.930E-02    1.16       1.0  T
   3   -215.4664410  0.719088E-04  0.460E-02    1.16       1.0  T
   4   -215.4665348 -0.937437E-04  0.182E-02    1.16       1.0  T
   5   -215.4665618 -0.270028E-04  0.697E-03    1.16       1.4  T
   6   -215.4665641 -0.229961E-05  0.364E-03    1.16       2.8  T
   7   -215.4665648 -0.756714E-06  0.175E-03    1.16       5.7  T
     SCC iter.                  ...        0 min,  0.083 sec
     gradient                   ...        0 min,  0.020 sec
 * total energy  :  -212.5130820 Eh     change       -0.6395685E-03 Eh
   gradient norm :     0.0193155 Eh/α   predicted    -0.7833639E-03 (  22.48%)
   displ. norm   :     0.3843479 α      lambda       -0.1128109E-02
   maximum displ.:     0.2133742 α      in ANC's #8, #6, #21, ...

........................................................................
.............................. CYCLE   31 ..............................
........................................................................
   1   -215.4667059 -0.215467E+03  0.182E-01    1.16       0.0  T
   2   -215.4668800 -0.174071E-03  0.102E-01    1.16       1.0  T
   3   -215.4668090  0.709516E-04  0.495E-02    1.16       1.0  T
   4   -215.4669276 -0.118620E-03  0.164E-02    1.16       1.0  T
   5   -215.4669464 -0.188013E-04  0.698E-03    1.16       1.4  T
   6   -215.4669480 -0.157757E-05  0.335E-03    1.16       3.0  T
   7   -215.4669486 -0.633956E-06  0.165E-03    1.16       6.1  T
   8   -215.4669488 -0.143589E-06  0.853E-04    1.16      11.8  T
     SCC iter.                  ...        0 min,  0.092 sec
     gradient                   ...        0 min,  0.020 sec
 * total energy  :  -212.5133887 Eh     change       -0.3067480E-03 Eh
   gradient norm :     0.0223856 Eh/α   predicted    -0.6473792E-03 ( 111.05%)
   displ. norm   :     0.3110845 α      lambda       -0.9714295E-03
   maximum displ.:     0.1679731 α      in ANC's #8, #6, #21, ...

........................................................................
.............................. CYCLE   32 ..............................
........................................................................
   1   -215.4651887 -0.215465E+03  0.153E-01    1.16       0.0  T
   2   -215.4652793 -0.905432E-04  0.827E-02    1.17       1.0  T
   3   -215.4652350  0.442174E-04  0.333E-02    1.16       1.0  T
   4   -215.4652995 -0.644426E-04  0.114E-02    1.16       1.0  T
   5   -215.4653061 -0.658783E-05  0.591E-03    1.16       1.7  T
   6   -215.4653077 -0.165268E-05  0.225E-03    1.16       4.5  T
   7   -215.4653079 -0.195588E-06  0.130E-03    1.16       7.7  T
     SCC iter.                  ...        0 min,  0.080 sec
     gradient                   ...        0 min,  0.020 sec
 * total energy  :  -212.5139151 Eh     change       -0.5263626E-03 Eh
   gradient norm :     0.0164448 Eh/α   predicted    -0.5327196E-03 (   1.21%)
   displ. norm   :     0.3601492 α      lambda       -0.1227816E-02
   maximum displ.:     0.1860746 α      in ANC's #8, #6, #4, ...

........................................................................
.............................. CYCLE   33 ..............................
........................................................................
   1   -215.4783953 -0.215478E+03  0.160E-01    1.17       0.0  T
   2   -215.4786749 -0.279595E-03  0.892E-02    1.17       1.0  T
   3   -215.4785385  0.136378E-03  0.528E-02    1.18       1.0  T
   4   -215.4787271 -0.188646E-03  0.197E-02    1.17       1.0  T
   5   -215.4787446 -0.174853E-04  0.926E-03    1.17       1.1  T
   6   -215.4787511 -0.651785E-05  0.400E-03    1.17       2.5  T
   7   -215.4787517 -0.540884E-06  0.223E-03    1.17       4.5  T
   8   -215.4787518 -0.154679E-06  0.108E-03    1.17       9.3  T
     SCC iter.                  ...        0 min,  0.091 sec
     gradient                   ...        0 min,  0.020 sec
 * total energy  :  -212.5134093 Eh     change        0.5057927E-03 Eh
   gradient norm :     0.0397886 Eh/α   predicted    -0.6935379E-03 (-237.12%)
   displ. norm   :     0.2765526 α      lambda       -0.2109207E-02
   maximum displ.:     0.1147262 α      in ANC's #8, #20, #21, ...

........................................................................
.............................. CYCLE   34 ..............................
........................................................................
   1   -215.4695113 -0.215470E+03  0.172E-01    1.17       0.0  T
   2   -215.4697114 -0.200123E-03  0.962E-02    1.17       1.0  T
   3   -215.4695359  0.175468E-03  0.547E-02    1.16       1.0  T
   4   -215.4697507 -0.214806E-03  0.191E-02    1.17       1.0  T
   5   -215.4697744 -0.237009E-04  0.832E-03    1.17       1.2  T
   6   -215.4697795 -0.509457E-05  0.382E-03    1.17       2.6  T
   7   -215.4697803 -0.799225E-06  0.183E-03    1.17       5.5  T
     SCC iter.                  ...        0 min,  0.080 sec
     gradient                   ...        0 min,  0.020 sec
 * total energy  :  -212.5144401 Eh     change       -0.1030777E-02 Eh
   gradient norm :     0.0126478 Eh/α   predicted    -0.1135263E-02 (  10.14%)
   displ. norm   :     0.3285174 α      lambda       -0.1041670E-02
   maximum displ.:     0.1646133 α      in ANC's #8, #6, #50, ...

........................................................................
.............................. CYCLE   35 ..............................
........................................................................
   1   -215.4647450 -0.215465E+03  0.190E-01    1.16       0.0  T
   2   -215.4648838 -0.138754E-03  0.105E-01    1.16       1.0  T
   3   -215.4647846  0.991725E-04  0.429E-02    1.17       1.0  T
   4   -215.4649135 -0.128832E-03  0.136E-02    1.16       1.0  T
   5   -215.4649263 -0.128003E-04  0.584E-03    1.16       1.7  T
   6   -215.4649278 -0.158965E-05  0.298E-03    1.16       3.4  T
   7   -215.4649282 -0.333601E-06  0.163E-03    1.16       6.1  T
     SCC iter.                  ...        0 min,  0.081 sec
     gradient                   ...        0 min,  0.020 sec
 * total energy  :  -212.5140397 Eh     change        0.4003748E-03 Eh
   gradient norm :     0.0350136 Eh/α   predicted    -0.5770458E-03 (-244.13%)
   displ. norm   :     0.2118809 α      lambda       -0.1681806E-02
   maximum displ.:     0.0990967 α      in ANC's #8, #50, #6, ...

........................................................................
.............................. CYCLE   36 ..............................
........................................................................
   1   -215.4710978 -0.215471E+03  0.128E-01    1.17       0.0  T
   2   -215.4711646 -0.668804E-04  0.702E-02    1.17       1.0  T
   3   -215.4711280  0.366550E-04  0.274E-02    1.16       1.0  T
   4   -215.4711782 -0.502333E-04  0.877E-03    1.17       1.1  T
   5   -215.4711830 -0.475491E-05  0.429E-03    1.17       2.3  T
   6   -215.4711839 -0.938435E-06  0.205E-03    1.17       4.9  T
     SCC iter.                  ...        0 min,  0.069 sec
     gradient                   ...        0 min,  0.020 sec
 * total energy  :  -212.5149006 Eh     change       -0.8608989E-03 Eh
   gradient norm :     0.0099536 Eh/α   predicted    -0.8786585E-03 (   2.06%)
   displ. norm   :     0.3513627 α      lambda       -0.4139325E-03
   maximum displ.:     0.2051364 α      in ANC's #8, #6, #4, ...

........................................................................
.............................. CYCLE   37 ..............................
........................................................................
   1   -215.4689446 -0.215469E+03  0.117E-01    1.17       0.0  T
   2   -215.4690032 -0.586398E-04  0.632E-02    1.17       1.0  T
   3   -215.4689788  0.244196E-04  0.264E-02    1.17       1.0  T
   4   -215.4690143 -0.355397E-04  0.948E-03    1.17       1.1  T
   5   -215.4690190 -0.463877E-05  0.506E-03    1.17       2.0  T
   6   -215.4690203 -0.132252E-05  0.191E-03    1.17       5.2  T
   7   -215.4690205 -0.170126E-06  0.984E-04    1.17      10.2  T
     SCC iter.                  ...        0 min,  0.086 sec
     gradient                   ...        0 min,  0.020 sec
 * total energy  :  -212.5150638 Eh     change       -0.1631769E-03 Eh
   gradient norm :     0.0139192 Eh/α   predicted    -0.2325190E-03 (  42.50%)
   displ. norm   :     0.4773163 α      lambda       -0.5103631E-03
   maximum displ.:     0.2758953 α      in ANC's #8, #6, #1, ...

........................................................................
.............................. CYCLE   38 ..............................
........................................................................
   1   -215.4690152 -0.215469E+03  0.148E-01    1.17       0.0  T
   2   -215.4690861 -0.708591E-04  0.809E-02    1.17       1.0  T
   3   -215.4690503  0.357629E-04  0.299E-02    1.18       1.0  T
   4   -215.4690986 -0.483276E-04  0.111E-02    1.17       1.0  T
   5   -215.4691046 -0.600997E-05  0.576E-03    1.17       1.7  T
   6   -215.4691065 -0.188469E-05  0.202E-03    1.17       5.0  T
   7   -215.4691067 -0.157695E-06  0.115E-03    1.17       8.7  T
     SCC iter.                  ...        0 min,  0.081 sec
     gradient                   ...        0 min,  0.020 sec
 * total energy  :  -212.5153229 Eh     change       -0.2590844E-03 Eh
   gradient norm :     0.0122921 Eh/α   predicted    -0.3133204E-03 (  20.93%)
   displ. norm   :     0.4702861 α      lambda       -0.6119563E-03
   maximum displ.:     0.2480767 α      in ANC's #8, #6, #1, ...

........................................................................
.............................. CYCLE   39 ..............................
........................................................................
   1   -215.4716923 -0.215472E+03  0.157E-01    1.16       0.0  T
   2   -215.4717852 -0.929209E-04  0.859E-02    1.16       1.0  T
   3   -215.4716467  0.138501E-03  0.437E-02    1.17       1.0  T
   4   -215.4718132 -0.166496E-03  0.135E-02    1.16       1.0  T
   5   -215.4718241 -0.108956E-04  0.544E-03    1.16       1.8  T
   6   -215.4718250 -0.876070E-06  0.257E-03    1.16       3.9  T
   7   -215.4718252 -0.232976E-06  0.137E-03    1.16       7.4  T
     SCC iter.                  ...        0 min,  0.086 sec
     gradient                   ...        0 min,  0.020 sec
 * total energy  :  -212.5154796 Eh     change       -0.1567479E-03 Eh
   gradient norm :     0.0188046 Eh/α   predicted    -0.3736508E-03 ( 138.38%)
   displ. norm   :     0.2502876 α      lambda       -0.5734312E-03
   maximum displ.:     0.0993514 α      in ANC's #1, #8, #10, ...

........................................................................
.............................. CYCLE   40 ..............................
........................................................................
   1   -215.4783132 -0.215478E+03  0.872E-02    1.17       0.0  T
   2   -215.4784117 -0.984913E-04  0.504E-02    1.17       1.0  T
   3   -215.4784153 -0.361333E-05  0.274E-02    1.17       1.0  T
   4   -215.4784338 -0.184825E-04  0.104E-02    1.17       1.0  T
   5   -215.4784415 -0.777497E-05  0.443E-03    1.17       2.3  T
   6   -215.4784425 -0.948524E-06  0.211E-03    1.17       4.8  T
   7   -215.4784426 -0.134243E-06  0.125E-03    1.17       8.0  T
     SCC iter.                  ...        0 min,  0.085 sec
     gradient                   ...        0 min,  0.020 sec
 * total energy  :  -212.5156623 Eh     change       -0.1826592E-03 Eh
   gradient norm :     0.0155671 Eh/α   predicted    -0.3046777E-03 (  66.80%)
   displ. norm   :     0.3377020 α      lambda       -0.6481674E-03
   maximum displ.:     0.1639199 α      in ANC's #8, #4, #1, ...

........................................................................
.............................. CYCLE   41 ..............................
........................................................................
   1   -215.4763706 -0.215476E+03  0.120E-01    1.18       0.0  T
   2   -215.4765315 -0.160909E-03  0.684E-02    1.18       1.0  T
   3   -215.4765387 -0.721829E-05  0.359E-02    1.17       1.0  T
   4   -215.4765744 -0.357138E-04  0.126E-02    1.18       1.0  T
   5   -215.4765852 -0.107745E-04  0.589E-03    1.18       1.7  T
   6   -215.4765866 -0.144137E-05  0.295E-03    1.18       3.4  T
   7   -215.4765871 -0.456740E-06  0.148E-03    1.18       6.8  T
     SCC iter.                  ...        0 min,  0.082 sec
     gradient                   ...        0 min,  0.020 sec
 * total energy  :  -212.5156718 Eh     change       -0.9507759E-05 Eh
   gradient norm :     0.0233743 Eh/α   predicted    -0.3610468E-03 (3697.39%)
   displ. norm   :     0.2992605 α      lambda       -0.7633191E-03
   maximum displ.:     0.1683566 α      in ANC's #8, #6, #4, ...

........................................................................
.............................. CYCLE   42 ..............................
........................................................................
   1   -215.4653697 -0.215465E+03  0.126E-01    1.17       0.0  T
   2   -215.4654964 -0.126660E-03  0.693E-02    1.17       1.0  T
   3   -215.4654612  0.351649E-04  0.379E-02    1.17       1.0  T
   4   -215.4655258 -0.646228E-04  0.142E-02    1.17       1.0  T
   5   -215.4655409 -0.150798E-04  0.537E-03    1.17       1.9  T
   6   -215.4655419 -0.102208E-05  0.274E-03    1.17       3.7  T
   7   -215.4655424 -0.434866E-06  0.129E-03    1.17       7.8  T
     SCC iter.                  ...        0 min,  0.080 sec
     gradient                   ...        0 min,  0.020 sec
 * total energy  :  -212.5159594 Eh     change       -0.2876155E-03 Eh
   gradient norm :     0.0144732 Eh/α   predicted    -0.4158454E-03 (  44.58%)
   displ. norm   :     0.2339633 α      lambda       -0.4663364E-03
   maximum displ.:     0.1114772 α      in ANC's #1, #10, #4, ...
 * RMSD in coord.:     0.6117895 α      energy gain  -0.1648886E-01 Eh

generating ANC from model Hessian ...
Using Lindh-Hessian (1995)
 Shifting diagonal of input Hessian by   5.079442932137955E-003
 Lowest  eigenvalues of input Hessian
    0.005000   -0.000000   -0.000000   -0.000000    0.000000    0.000000
    0.000000    0.005094    0.005119    0.005143    0.005174    0.005270
    0.005304    0.005378    0.005477    0.005667    0.005818    0.005882
 Highest eigenvalues
    2.609384    2.649412    2.651809    2.657813    2.686374    2.689316
 

........................................................................
.............................. CYCLE   43 ..............................
........................................................................
   1   -215.4783874 -0.215478E+03  0.842E-02    1.17       0.0  T
   2   -215.4784213 -0.338803E-04  0.477E-02    1.16       1.0  T
   3   -215.4783709  0.503315E-04  0.270E-02    1.17       1.0  T
   4   -215.4784332 -0.622721E-04  0.680E-03    1.17       1.5  T
   5   -215.4784357 -0.245983E-05  0.309E-03    1.17       3.3  T
   6   -215.4784361 -0.427438E-06  0.164E-03    1.17       6.1  T
   7   -215.4784362 -0.978378E-07  0.920E-04    1.17      10.9  T
   8   -215.4784363 -0.449969E-07  0.403E-04    1.17      24.9  T
     SCC iter.                  ...        0 min,  0.094 sec
     gradient                   ...        0 min,  0.021 sec
 * total energy  :  -212.5161079 Eh     change       -0.1484833E-03 Eh
   gradient norm :     0.0132302 Eh/α   predicted     0.0000000E+00 (-100.00%)
   displ. norm   :     0.1655465 α      lambda       -0.3782036E-03
   maximum displ.:     0.0539131 α      in ANC's #4, #21, #11, ...

........................................................................
.............................. CYCLE   44 ..............................
........................................................................
   1   -215.4716380 -0.215472E+03  0.123E-01    1.17       0.0  T
   2   -215.4716611 -0.231815E-04  0.682E-02    1.17       1.0  T
   3   -215.4715751  0.860626E-04  0.309E-02    1.16       1.0  T
   4   -215.4716753 -0.100239E-03  0.520E-03    1.17       1.9  T
   5   -215.4716773 -0.194452E-05  0.274E-03    1.17       3.7  T
   6   -215.4716778 -0.542845E-06  0.125E-03    1.17       8.0  T
     SCC iter.                  ...        0 min,  0.069 sec
     gradient                   ...        0 min,  0.020 sec
 * total energy  :  -212.5160502 Eh     change        0.5769657E-04 Eh
   gradient norm :     0.0112575 Eh/α   predicted    -0.1944167E-03 (-436.96%)
   displ. norm   :     0.1292901 α      lambda       -0.6788270E-03
   maximum displ.:     0.0444860 α      in ANC's #20, #11, #21, ...

........................................................................
.............................. CYCLE   45 ..............................
........................................................................
   1   -215.4703313 -0.215470E+03  0.915E-02    1.17       0.0  T
   2   -215.4703505 -0.191929E-04  0.506E-02    1.18       1.0  T
   3   -215.4703285  0.220602E-04  0.180E-02    1.17       1.0  T
   4   -215.4703568 -0.283348E-04  0.433E-03    1.17       2.3  T
   5   -215.4703579 -0.108069E-05  0.206E-03    1.17       4.9  T
   6   -215.4703580 -0.140957E-06  0.118E-03    1.17       8.5  T
     SCC iter.                  ...        0 min,  0.069 sec
     gradient                   ...        0 min,  0.020 sec
 * total energy  :  -212.5162620 Eh     change       -0.2118012E-03 Eh
   gradient norm :     0.0112133 Eh/α   predicted    -0.3450890E-03 (  62.93%)
   displ. norm   :     0.1240947 α      lambda       -0.3917189E-03
   maximum displ.:     0.0432736 α      in ANC's #18, #42, #52, ...

........................................................................
.............................. CYCLE   46 ..............................
........................................................................
   1   -215.4721432 -0.215472E+03  0.108E-01    1.17       0.0  T
   2   -215.4721556 -0.123773E-04  0.598E-02    1.17       1.0  T
   3   -215.4721071  0.485451E-04  0.233E-02    1.18       1.0  T
   4   -215.4721645 -0.574324E-04  0.338E-03    1.17       3.0  T
   5   -215.4721650 -0.484171E-06  0.218E-03    1.17       4.6  T
   6   -215.4721652 -0.256586E-06  0.102E-03    1.17       9.9  T
     SCC iter.                  ...        0 min,  0.069 sec
     gradient                   ...        0 min,  0.020 sec
 * total energy  :  -212.5161680 Eh     change        0.9401503E-04 Eh
   gradient norm :     0.0091320 Eh/α   predicted    -0.1988802E-03 (-311.54%)
   displ. norm   :     0.1134488 α      lambda       -0.5613901E-03
   maximum displ.:     0.0504790 α      in ANC's #1, #18, #7, ...

........................................................................
.............................. CYCLE   47 ..............................
........................................................................
   1   -215.4747271 -0.215475E+03  0.103E-01    1.17       0.0  T
   2   -215.4747404 -0.133623E-04  0.568E-02    1.17       1.0  T
   3   -215.4747275  0.129085E-04  0.139E-02    1.17       1.0  T
   4   -215.4747465 -0.190267E-04  0.263E-03    1.17       3.8  T
   5   -215.4747468 -0.293055E-06  0.162E-03    1.17       6.2  T
   6   -215.4747470 -0.155290E-06  0.828E-04    1.17      12.1  T
     SCC iter.                  ...        0 min,  0.070 sec
     gradient                   ...        0 min,  0.020 sec
 * total energy  :  -212.5162823 Eh     change       -0.1143427E-03 Eh
   gradient norm :     0.0100798 Eh/α   predicted    -0.2843089E-03 ( 148.65%)
   displ. norm   :     0.1487256 α      lambda       -0.6178143E-03
   maximum displ.:     0.0728191 α      in ANC's #42, #18, #4, ...

........................................................................
.............................. CYCLE   48 ..............................
........................................................................
   1   -215.4729738 -0.215473E+03  0.128E-01    1.17       0.0  T
   2   -215.4729895 -0.156372E-04  0.716E-02    1.17       1.0  T
   3   -215.4729216  0.678658E-04  0.271E-02    1.17       1.0  T
   4   -215.4730019 -0.802987E-04  0.382E-03    1.17       2.6  T
   5   -215.4730022 -0.243035E-06  0.269E-03    1.17       3.7  T
   6   -215.4730026 -0.417326E-06  0.101E-03    1.17       9.9  T
     SCC iter.                  ...        0 min,  0.070 sec
     gradient                   ...        0 min,  0.020 sec
 * total energy  :  -212.5161986 Eh     change        0.8367664E-04 Eh
   gradient norm :     0.0097217 Eh/α   predicted    -0.3157420E-03 (-477.34%)
   displ. norm   :     0.1023185 α      lambda       -0.5863187E-03
   maximum displ.:     0.0459918 α      in ANC's #42, #52, #51, ...

........................................................................
.............................. CYCLE   49 ..............................
........................................................................
   1   -215.4731469 -0.215473E+03  0.863E-02    1.17       0.0  T
   2   -215.4731553 -0.839259E-05  0.477E-02    1.17       1.0  T
   3   -215.4731320  0.233450E-04  0.168E-02    1.17       1.0  T
   4   -215.4731605 -0.285628E-04  0.263E-03    1.17       3.8  T
   5   -215.4731608 -0.304515E-06  0.166E-03    1.17       6.1  T
   6   -215.4731610 -0.154837E-06  0.810E-04    1.17      12.4  T
     SCC iter.                  ...        0 min,  0.069 sec
     gradient                   ...        0 min,  0.020 sec
 * total energy  :  -212.5164977 Eh     change       -0.2990431E-03 Eh
   gradient norm :     0.0035491 Eh/α   predicted    -0.2962284E-03 (  -0.94%)
   displ. norm   :     0.1001331 α      lambda       -0.9970696E-04
   maximum displ.:     0.0405076 α      in ANC's #11, #4, #5, ...

........................................................................
.............................. CYCLE   50 ..............................
........................................................................
   1   -215.4729550 -0.215473E+03  0.433E-02    1.17       0.0  T
   2   -215.4729573 -0.226025E-05  0.241E-02    1.17       1.0  T
   3   -215.4729546  0.267461E-05  0.622E-03    1.17       1.6  T
   4   -215.4729582 -0.356689E-05  0.220E-03    1.17       4.6  T
   5   -215.4729584 -0.188445E-06  0.121E-03    1.17       8.3  T
   6   -215.4729584 -0.682452E-07  0.535E-04    1.17      18.8  T
   7   -215.4729585 -0.215547E-07  0.244E-04    1.17      41.2  T
     SCC iter.                  ...        0 min,  0.081 sec
     gradient                   ...        0 min,  0.021 sec
 * total energy  :  -212.5165322 Eh     change       -0.3456410E-04 Eh
   gradient norm :     0.0035553 Eh/α   predicted    -0.5035775E-04 (  45.69%)
   displ. norm   :     0.1604098 α      lambda       -0.1231337E-03
   maximum displ.:     0.0671851 α      in ANC's #11, #4, #5, ...

........................................................................
.............................. CYCLE   51 ..............................
........................................................................
   1   -215.4728227 -0.215473E+03  0.486E-02    1.17       0.0  T
   2   -215.4728252 -0.253578E-05  0.270E-02    1.17       1.0  T
   3   -215.4728209  0.429517E-05  0.730E-03    1.17       1.4  T
   4   -215.4728262 -0.532520E-05  0.266E-03    1.17       3.8  T
   5   -215.4728265 -0.222128E-06  0.130E-03    1.17       7.7  T
   6   -215.4728266 -0.100523E-06  0.567E-04    1.17      17.7  T
   7   -215.4728266 -0.240723E-07  0.257E-04    1.17      39.1  T
     SCC iter.                  ...        0 min,  0.087 sec
     gradient                   ...        0 min,  0.022 sec
 * total energy  :  -212.5166339 Eh     change       -0.1017084E-03 Eh
   gradient norm :     0.0040071 Eh/α   predicted    -0.6315214E-04 ( -37.91%)
   displ. norm   :     0.4663053 α      lambda       -0.2786346E-03
   maximum displ.:     0.1957819 α      in ANC's #4, #11, #6, ...

........................................................................
.............................. CYCLE   52 ..............................
........................................................................
   1   -215.4714104 -0.215471E+03  0.130E-01    1.17       0.0  T
   2   -215.4714273 -0.168835E-04  0.722E-02    1.17       1.0  T
   3   -215.4714052  0.221001E-04  0.176E-02    1.18       1.0  T
   4   -215.4714328 -0.276098E-04  0.776E-03    1.17       1.3  T
   5   -215.4714354 -0.259025E-05  0.311E-03    1.17       3.2  T
   6   -215.4714360 -0.599670E-06  0.117E-03    1.17       8.6  T
   7   -215.4714360 -0.708038E-07  0.628E-04    1.17      16.0  T
     SCC iter.                  ...        0 min,  0.080 sec
     gradient                   ...        0 min,  0.020 sec
 * total energy  :  -212.5168180 Eh     change       -0.1840665E-03 Eh
   gradient norm :     0.0054321 Eh/α   predicted    -0.1696129E-03 (  -7.85%)
   displ. norm   :     0.5079727 α      lambda       -0.2473538E-03
   maximum displ.:     0.2172844 α      in ANC's #4, #11, #5, ...

........................................................................
.............................. CYCLE   53 ..............................
........................................................................
   1   -215.4702344 -0.215470E+03  0.134E-01    1.17       0.0  T
   2   -215.4702534 -0.190169E-04  0.734E-02    1.17       1.0  T
   3   -215.4702283  0.251136E-04  0.188E-02    1.17       1.0  T
   4   -215.4702583 -0.300341E-04  0.871E-03    1.17       1.2  T
   5   -215.4702616 -0.323451E-05  0.404E-03    1.17       2.5  T
   6   -215.4702628 -0.117007E-05  0.139E-03    1.17       7.2  T
   7   -215.4702629 -0.136972E-06  0.693E-04    1.17      14.5  T
     SCC iter.                  ...        0 min,  0.080 sec
     gradient                   ...        0 min,  0.020 sec
 * total energy  :  -212.5169688 Eh     change       -0.1508307E-03 Eh
   gradient norm :     0.0054119 Eh/α   predicted    -0.1555925E-03 (   3.16%)
   displ. norm   :     0.3544570 α      lambda       -0.1576017E-03
   maximum displ.:     0.1592259 α      in ANC's #4, #11, #5, ...

........................................................................
.............................. CYCLE   54 ..............................
........................................................................
   1   -215.4711384 -0.215471E+03  0.826E-02    1.17       0.0  T
   2   -215.4711462 -0.775516E-05  0.449E-02    1.17       1.0  T
   3   -215.4711320  0.141696E-04  0.133E-02    1.18       1.0  T
   4   -215.4711486 -0.165609E-04  0.541E-03    1.17       1.9  T
   5   -215.4711496 -0.106241E-05  0.205E-03    1.17       4.9  T
   6   -215.4711499 -0.239067E-06  0.985E-04    1.17      10.2  T
     SCC iter.                  ...        0 min,  0.069 sec
     gradient                   ...        0 min,  0.020 sec
 * total energy  :  -212.5170941 Eh     change       -0.1252684E-03 Eh
   gradient norm :     0.0034360 Eh/α   predicted    -0.8870206E-04 ( -29.19%)
   displ. norm   :     0.3959942 α      lambda       -0.1704234E-03
   maximum displ.:     0.1845372 α      in ANC's #4, #5, #6, ...

........................................................................
.............................. CYCLE   55 ..............................
........................................................................
   1   -215.4726745 -0.215473E+03  0.903E-02    1.18       0.0  T
   2   -215.4726847 -0.102157E-04  0.485E-02    1.18       1.0  T
   3   -215.4726745  0.101363E-04  0.130E-02    1.18       1.0  T
   4   -215.4726855 -0.109893E-04  0.672E-03    1.18       1.5  T
   5   -215.4726879 -0.234681E-05  0.266E-03    1.18       3.8  T
   6   -215.4726883 -0.438107E-06  0.109E-03    1.18       9.2  T
   7   -215.4726884 -0.826780E-07  0.506E-04    1.18      19.8  T
   8   -215.4726884 -0.116812E-07  0.298E-04    1.18      33.7  T
     SCC iter.                  ...        0 min,  0.093 sec
     gradient                   ...        0 min,  0.021 sec
 * total energy  :  -212.5172124 Eh     change       -0.1182660E-03 Eh
   gradient norm :     0.0039402 Eh/α   predicted    -0.9857740E-04 ( -16.65%)
   displ. norm   :     0.4074258 α      lambda       -0.1378580E-03
   maximum displ.:     0.1910044 α      in ANC's #4, #5, #6, ...

........................................................................
.............................. CYCLE   56 ..............................
........................................................................
   1   -215.4729449 -0.215473E+03  0.976E-02    1.18       0.0  T
   2   -215.4729557 -0.107450E-04  0.518E-02    1.18       1.0  T
   3   -215.4729467  0.897426E-05  0.136E-02    1.18       1.0  T
   4   -215.4729575 -0.107567E-04  0.674E-03    1.18       1.5  T
   5   -215.4729590 -0.150100E-05  0.331E-03    1.18       3.0  T
   6   -215.4729598 -0.881669E-06  0.776E-04    1.18      12.9  T
   7   -215.4729599 -0.390133E-07  0.416E-04    1.18      24.1  T
     SCC iter.                  ...        0 min,  0.083 sec
     gradient                   ...        0 min,  0.021 sec
 * total energy  :  -212.5173016 Eh     change       -0.8919775E-04 Eh
   gradient norm :     0.0054483 Eh/α   predicted    -0.8035877E-04 (  -9.91%)
   displ. norm   :     0.3589697 α      lambda       -0.1319583E-03
   maximum displ.:     0.1685547 α      in ANC's #4, #9, #5, ...

........................................................................
.............................. CYCLE   57 ..............................
........................................................................
   1   -215.4726903 -0.215473E+03  0.888E-02    1.18       0.0  T
   2   -215.4726982 -0.784665E-05  0.473E-02    1.18       1.0  T
   3   -215.4726922  0.594694E-05  0.113E-02    1.18       1.0  T
   4   -215.4726989 -0.663967E-05  0.630E-03    1.18       1.6  T
   5   -215.4727007 -0.176935E-05  0.264E-03    1.18       3.8  T
   6   -215.4727012 -0.530450E-06  0.835E-04    1.18      12.0  T
     SCC iter.                  ...        0 min,  0.068 sec
     gradient                   ...        0 min,  0.020 sec
 * total energy  :  -212.5174078 Eh     change       -0.1062569E-03 Eh
   gradient norm :     0.0042614 Eh/α   predicted    -0.7448183E-04 ( -29.90%)
   displ. norm   :     0.4016790 α      lambda       -0.1770109E-03
   maximum displ.:     0.1774461 α      in ANC's #4, #9, #5, ...

........................................................................
.............................. CYCLE   58 ..............................
........................................................................
   1   -215.4734061 -0.215473E+03  0.107E-01    1.18       0.0  T
   2   -215.4734172 -0.110718E-04  0.580E-02    1.18       1.0  T
   3   -215.4734104  0.676320E-05  0.134E-02    1.18       1.0  T
   4   -215.4734189 -0.846429E-05  0.698E-03    1.18       1.4  T
   5   -215.4734197 -0.796036E-06  0.418E-03    1.18       2.4  T
   6   -215.4734214 -0.171958E-05  0.107E-03    1.18       9.4  T
   7   -215.4734215 -0.938427E-07  0.479E-04    1.18      21.0  T
     SCC iter.                  ...        0 min,  0.080 sec
     gradient                   ...        0 min,  0.020 sec
 * total energy  :  -212.5175458 Eh     change       -0.1379353E-03 Eh
   gradient norm :     0.0042310 Eh/α   predicted    -0.1027883E-03 ( -25.48%)
   displ. norm   :     0.4260311 α      lambda       -0.1579440E-03
   maximum displ.:     0.1909668 α      in ANC's #9, #4, #5, ...

........................................................................
.............................. CYCLE   59 ..............................
........................................................................
   1   -215.4710675 -0.215471E+03  0.113E-01    1.18       0.0  T
   2   -215.4710811 -0.135511E-04  0.613E-02    1.18       1.0  T
   3   -215.4710724  0.867042E-05  0.144E-02    1.18       1.0  T
   4   -215.4710829 -0.104711E-04  0.755E-03    1.18       1.3  T
   5   -215.4710843 -0.144850E-05  0.428E-03    1.18       2.3  T
   6   -215.4710860 -0.162888E-05  0.123E-03    1.18       8.1  T
   7   -215.4710861 -0.129953E-06  0.526E-04    1.18      19.1  T
     SCC iter.                  ...        0 min,  0.080 sec
     gradient                   ...        0 min,  0.020 sec
 * total energy  :  -212.5176646 Eh     change       -0.1188832E-03 Eh
   gradient norm :     0.0034380 Eh/α   predicted    -0.9331074E-04 ( -21.51%)
   displ. norm   :     0.3931047 α      lambda       -0.1207828E-03
   maximum displ.:     0.1765588 α      in ANC's #9, #4, #5, ...

........................................................................
.............................. CYCLE   60 ..............................
........................................................................
   1   -215.4713354 -0.215471E+03  0.105E-01    1.18       0.0  T
   2   -215.4713448 -0.938130E-05  0.575E-02    1.18       1.0  T
   3   -215.4713423  0.252431E-05  0.108E-02    1.18       1.0  T
   4   -215.4713468 -0.450659E-05  0.585E-03    1.18       1.7  T
   5   -215.4713477 -0.917781E-06  0.281E-03    1.18       3.6  T
   6   -215.4713485 -0.788622E-06  0.822E-04    1.18      12.2  T
   7   -215.4713485 -0.354476E-07  0.495E-04    1.18      20.3  T
[...]
    11   6 C      3.034    -0.019    28.447     8.748
    12   6 C      2.913    -0.018    28.448     8.746
    13   6 C      2.874     0.220    23.378     7.926
    14   8 O      0.856    -0.419    22.056     6.297
    15   6 C      3.025    -0.058    29.404     8.895
    16   6 C      3.011     0.031    27.300     8.571
    17   6 C      2.947     0.005    27.904     8.664
    18   6 C      1.935     0.123    28.059     8.554
    19   7 N      0.911    -0.227    25.954     7.368
    20   6 C      1.935     0.118    28.172     8.572
    21   7 N      0.911    -0.229    26.009     7.376
    22   6 C      2.837     0.038    27.136     8.537
    23   7 N      2.726    -0.085    22.906     7.108
    24   6 C      2.940     0.063    26.588     8.457
    25  16 S      2.257     0.084   137.686    19.749
    26   6 C      2.941    -0.002    28.084     8.692
    27   7 N      2.791     0.542    13.570     5.471
    28   8 O      0.933    -0.391    21.460     6.213
    29   8 O      0.936    -0.386    21.357     6.198
    30   6 C      3.070    -0.040    28.929     8.819
    31   6 C      3.109    -0.013    28.196     8.700
    32   6 C      2.898    -0.065    29.629     8.925
    33   6 C      2.840     0.012    27.742     8.632
    34   7 N      2.726    -0.093    23.067     7.133
    35   6 C      2.933     0.067    26.502     8.443
    36  16 S      2.287     0.059   138.664    19.819
    37   6 C      2.936    -0.004    28.132     8.699
    38   7 N      2.793     0.537    13.616     5.481
    39   8 O      0.933    -0.397    21.589     6.231
    40   8 O      0.937    -0.394    21.531     6.223
    41   6 C      3.082    -0.037    28.828     8.802
    42   6 C      3.107    -0.024    28.453     8.740
    43   6 C      2.903    -0.059    29.475     8.902
    44   6 C      2.830    -0.001    28.046     8.678
    45   7 N      2.728    -0.090    22.997     7.122
    46   6 C      2.930     0.073    26.368     8.421
    47  16 S      2.267     0.053   138.907    19.836
    48   6 C      2.940    -0.000    28.040     8.685
    49   7 N      2.796     0.530    13.691     5.495
    50   8 O      0.932    -0.395    21.554     6.226
    51   8 O      0.938    -0.420    22.051     6.298
    52   6 C      3.064    -0.027    28.599     8.769
    53   6 C      3.107    -0.018    28.315     8.719
    54   6 C      2.904    -0.023    28.581     8.766
    55   6 C      2.897    -0.028    28.700     8.784
    56   6 C      2.906    -0.007    28.200     8.707
    57   6 C      3.008    -0.028    28.680     8.785
    58   6 C      2.867     0.227    23.245     7.903
    59   8 O      0.856    -0.357    20.845     6.121
    60   6 C      3.032    -0.018    28.414     8.743
    61   6 C      2.913    -0.016    28.400     8.739
    62   6 C      2.989     0.016    27.645     8.625
    63   6 C      2.988     0.018    27.597     8.617
    64   6 C      2.919    -0.054    29.345     8.883
    65   6 C      2.775     0.163    24.467     8.101
    66   6 C      2.775     0.162    24.482     8.104
    67   6 C      2.919    -0.054    29.342     8.883
    68   9 F      0.787    -0.189    11.122     3.939
    69   9 F      0.787    -0.188    11.110     3.937
    70   6 C      2.915    -0.029    28.719     8.788
    71   6 C      3.028     0.007    27.830     8.653
    72   6 C      3.012     0.033    27.244     8.562
    73   6 C      2.947     0.009    27.812     8.650
    74   6 C      1.933     0.123    28.062     8.555
    75   7 N      0.911    -0.236    26.174     7.399
    76   6 C      1.934     0.121    28.103     8.561
    77   7 N      0.911    -0.222    25.859     7.355
    78   1 H      0.926     0.082     1.960     2.189
    79   1 H      0.926     0.104     1.751     2.069
    80   1 H      0.926     0.065     2.137     2.286
    81   1 H      0.926     0.101     1.772     2.082
    82   1 H      0.925     0.080     1.979     2.200
    83   1 H      0.858     0.255     0.863     1.455
    84   1 H      0.926     0.088     1.895     2.153
    85   1 H      0.925     0.054     2.268     2.355
    86   1 H      0.926     0.080     1.979     2.200
    87   1 H      0.860     0.193     1.140     1.673
    88   1 H      0.926     0.085     1.930     2.172
    89   1 H      0.925     0.058     2.219     2.330
    90   1 H      0.926     0.063     2.166     2.301
    91   1 H      0.860     0.197     1.120     1.658
    92   1 H      0.926     0.092     1.858     2.131
    93   1 H      0.925     0.043     2.415     2.430
    94   1 H      0.926     0.056     2.242     2.341
    95   1 H      0.925     0.073     2.058     2.243
    96   1 H      0.926     0.071     2.074     2.252
    97   1 H      0.926     0.085     1.933     2.174
    98   1 H      0.926     0.082     1.962     2.190
    99   1 H      0.926     0.066     2.131     2.283

 Mol. C6AA /au·bohr⁶  :     188627.486771
 Mol. C8AA /au·bohr⁸  :    5088489.075583
 Mol. α(0) /au        :        687.801571


Wiberg/Mayer (AO) data.
largest (>0.10) Wiberg bond orders for each atom
          total WBO             WBO to atom ...
     1  C   3.974        C    2 1.492    C    8 1.288    H   78 0.961    C    6 0.105
     2  C   3.886        C    1 1.492    C    4 1.243    F    3 0.986
     3  F   1.123        C    2 0.986
     4  C   3.885        C    6 1.491    C    2 1.243    F    5 0.988
     5  F   1.127        C    4 0.988
     6  C   3.971        C    4 1.491    C    7 1.288    H   79 0.955    C    1 0.105
     7  C   3.970        C    6 1.288    C   12 1.273    C    8 1.239
     8  C   3.982        C    1 1.288    C    9 1.273    C    7 1.239
     9  C   3.971        C   10 1.507    C    8 1.273    H   80 0.957
    10  C   3.980        C    9 1.507    C   11 1.192    C   16 1.088
    11  C   3.978        C   12 1.509    C   10 1.192    C   13 1.055
    12  C   3.965        C   11 1.509    C    7 1.273    H   81 0.946
    13  C   3.921        O   14 1.661    C   15 1.073    C   11 1.055
    14  O   2.032        C   13 1.661
    15  C   3.943        C   22 1.483    C   16 1.139    C   13 1.073
    16  C   3.976        C   17 1.489    C   15 1.139    C   10 1.088
    17  C   3.938        C   16 1.489    C   20 1.098    C   18 1.096
    18  C   3.947        N   19 2.770    C   17 1.096
    19  N   2.975        C   18 2.770
    20  C   3.947        N   21 2.766    C   17 1.098
    21  N   2.977        C   20 2.766
    22  C   3.931        C   15 1.483    N   23 1.292    H   82 0.943
    23  N   3.577        C   22 1.292    C   24 1.197    H   83 0.822
    24  C   3.930        C   31 1.336    N   23 1.197    S   25 1.175
    25  S   2.647        C   24 1.175    C   26 1.117    C   30 0.102
    26  C   3.898        C   30 1.494    S   25 1.117    N   27 1.038
    27  N   3.909        O   29 1.416    O   28 1.416    C   26 1.038
    28  O   1.903        N   27 1.416    O   29 0.340
    29  O   1.917        N   27 1.416    O   28 0.340
    30  C   3.977        C   26 1.494    C   31 1.289    H   84 0.954    S   25 0.102
    31  C   3.962        C   24 1.336    C   30 1.289    C   32 1.133
    32  C   3.951        C   33 1.683    C   31 1.133    H   85 0.953
    33  C   3.931        C   32 1.683    N   34 1.152    H   86 0.944
    34  N   3.520        C   35 1.209    C   33 1.152    H   87 0.914
    35  C   3.929        C   42 1.329    N   34 1.209    S   36 1.178
    36  S   2.634        C   35 1.178    C   37 1.094
    37  C   3.898        C   41 1.494    S   36 1.094    N   38 1.050
    38  N   3.907        O   39 1.409    O   40 1.405    C   37 1.050
    39  O   1.893        N   38 1.409    O   40 0.332
    40  O   1.905        N   38 1.405    O   39 0.332
    41  C   3.972        C   37 1.494    C   42 1.291    H   88 0.956
    42  C   3.961        C   35 1.329    C   41 1.291    C   43 1.131
    43  C   3.943        C   44 1.691    C   42 1.131    H   89 0.954
    44  C   3.938        C   43 1.691    N   45 1.131    H   90 0.945
    45  N   3.527        C   46 1.243    C   44 1.131    H   91 0.911
    46  C   3.918        C   53 1.286    N   45 1.243    S   47 1.181
    47  S   2.614        C   46 1.181    C   48 1.075
    48  C   3.895        C   52 1.491    S   47 1.075    N   49 1.071
    49  N   3.900        O   50 1.410    O   51 1.369    C   48 1.071
    50  O   1.888        N   49 1.410    O   51 0.315
    51  O   1.870        N   49 1.369    O   50 0.315
    52  C   3.966        C   48 1.491    C   53 1.290    H   92 0.951
    53  C   3.963        C   52 1.290    C   46 1.286    C   54 1.178
    54  C   3.969        C   55 1.626    C   53 1.178    H   93 0.955
    55  C   3.963        C   54 1.626    C   56 1.234    H   94 0.953
    56  C   3.953        C   57 1.568    C   55 1.234    H   95 0.952
    57  C   3.937        C   56 1.568    C   72 1.131    C   58 1.008
    58  C   3.926        O   59 1.784    C   60 1.021    C   57 1.008
    59  O   2.057        C   58 1.784
    60  C   3.975        C   61 1.520    C   71 1.201    C   58 1.021
    61  C   3.980        C   60 1.520    C   62 1.273    H   96 0.962
    62  C   3.980        C   67 1.286    C   61 1.273    C   63 1.239
    63  C   3.984        C   64 1.284    C   70 1.278    C   62 1.239
    64  C   3.975        C   65 1.496    C   63 1.284    H   97 0.961    C   67 0.106
    65  C   3.889        C   64 1.496    C   66 1.241    F   69 0.988
    66  C   3.885        C   67 1.495    C   65 1.241    F   68 0.987
    67  C   3.977        C   66 1.495    C   62 1.286    H   98 0.961    C   64 0.106
    68  F   1.124        C   66 0.987
    69  F   1.126        C   65 0.988
    70  C   3.973        C   71 1.502    C   63 1.278    H   99 0.958
    71  C   3.979        C   70 1.502    C   60 1.201    C   72 1.082
    72  C   3.976        C   73 1.494    C   57 1.131    C   71 1.082
    73  C   3.958        C   72 1.494    C   74 1.096    C   76 1.093
    74  C   3.947        N   75 2.767    C   73 1.096
    75  N   2.982        C   74 2.767
    76  C   3.947        N   77 2.774    C   73 1.093
    77  N   2.977        C   76 2.774
    78  H   0.993        C    1 0.961
    79  H   0.989        C    6 0.955
    80  H   0.995        C    9 0.957
    81  H   0.989        C   12 0.946
    82  H   0.993        C   22 0.943
    83  H   0.934        N   23 0.822
    84  H   0.992        C   30 0.954
    85  H   0.996        C   32 0.953
    86  H   0.993        C   33 0.944
    87  H   0.962        N   34 0.914
    88  H   0.992        C   41 0.956
    89  H   0.996        C   43 0.954
    90  H   0.996        C   44 0.945
    91  H   0.961        N   45 0.911
    92  H   0.991        C   52 0.951
    93  H   0.998        C   54 0.955
    94  H   0.997        C   55 0.953
    95  H   0.993        C   56 0.952
    96  H   0.994        C   61 0.962
    97  H   0.992        C   64 0.961
    98  H   0.993        C   67 0.961
    99  H   0.995        C   70 0.958

molecular dipole:
                 x           y           z       tot (Debye)
 q only:        1.519      -1.548       1.062
   full:        2.426      -2.460       1.132       9.242
molecular quadrupole (traceless):
                xx          xy          yy          xz          yz          zz
 q only:      -48.171       8.056       6.945     -53.769    -103.992      41.226
  q+dip:      -85.509      10.041      45.259     -59.501    -101.428      40.250
   full:      -88.229      12.462      40.781     -67.969    -111.193      47.448

           -------------------------------------------------
          |                Geometry Summary                 |
           -------------------------------------------------

      molecular mass/u    :     1086.9816000
   center of mass at/Å    :       -7.2347511      -7.7975843      -4.9175245
  moments of inertia/u·Å² :        0.2156873E+05   0.5651521E+05   0.7432705E+05
rotational constants/cm⁻¹ :        0.7815773E-03   0.2982849E-03   0.2268035E-03

 * 94 selected distances

     #   Z        #   Z                                     value/Å
     1   6 C      2   6 C                                 1.3673458
     2   6 C      3   9 F                                 1.3392436
     2   6 C      4   6 C                                 1.4099996
     4   6 C      5   9 F                                 1.3379762
     4   6 C      6   6 C                                 1.3672428
     6   6 C      7   6 C                                 1.4084195
     1   6 C      8   6 C                                 1.4085527
     7   6 C      8   6 C                                 1.4251964
     8   6 C      9   6 C                                 1.4146558
     9   6 C     10   6 C                                 1.3690354
    10   6 C     11   6 C                                 1.4274112
     7   6 C     12   6 C                                 1.4125172
    11   6 C     12   6 C                                 1.3664041
    13   6 C     14   8 O                                 1.2304894
    16   6 C     17   6 C                                 1.3696657
    18   6 C     19   7 N                                 1.1475901
    20   6 C     21   7 N                                 1.1479034
    15   6 C     22   6 C                                 1.3715053
    22   6 C     23   7 N                                 1.3400265
    23   7 N     24   6 C                                 1.3545633
    24   6 C     25  16 S                                 1.7352806
    25  16 S     26   6 C                                 1.7322218
    26   6 C     27   7 N                                 1.4041512
    27   7 N     28   8 O                                 1.2151535
    27   7 N     29   8 O                                 1.2166978
    26   6 C     30   6 C                                 1.3682253
    24   6 C     31   6 C                                 1.4007487
    30   6 C     31   6 C                                 1.4089389
    32   6 C     33   6 C                                 1.3435230
    33   6 C     34   7 N                                 1.3706497
    34   7 N     35   6 C                                 1.3556326
    35   6 C     36  16 S                                 1.7368542
    36  16 S     37   6 C                                 1.7347482
    37   6 C     38   7 N                                 1.3979617
    38   7 N     39   8 O                                 1.2165731
    38   7 N     40   8 O                                 1.2193525
    37   6 C     41   6 C                                 1.3662138
    35   6 C     42   6 C                                 1.4018214
    41   6 C     42   6 C                                 1.4097755
    42   6 C     43   6 C                                 1.4407607
    43   6 C     44   6 C                                 1.3430612
    44   6 C     45   7 N                                 1.3765691
    45   7 N     46   6 C                                 1.3465746
    46   6 C     47  16 S                                 1.7318999
    47  16 S     48   6 C                                 1.7412512 (max)
    48   6 C     49   7 N                                 1.3889231
    49   7 N     50   8 O                                 1.2164181
    49   7 N     51   8 O                                 1.2263290
    48   6 C     52   6 C                                 1.3666804
    46   6 C     53   6 C                                 1.4113341
    52   6 C     53   6 C                                 1.4081390
    53   6 C     54   6 C                                 1.4290882
    54   6 C     55   6 C                                 1.3547030
    55   6 C     56   6 C                                 1.4159086
    56   6 C     57   6 C                                 1.3608408
    58   6 C     59   8 O                                 1.2091865
    60   6 C     61   6 C                                 1.3652440
    61   6 C     62   6 C                                 1.4126555
    62   6 C     63   6 C                                 1.4254664
    63   6 C     64   6 C                                 1.4094117
    64   6 C     65   6 C                                 1.3667183
    65   6 C     66   6 C                                 1.4099348
    62   6 C     67   6 C                                 1.4085110
    66   6 C     67   6 C                                 1.3667700
    66   6 C     68   9 F                                 1.3387413
    65   6 C     69   9 F                                 1.3382361
    63   6 C     70   6 C                                 1.4136542
    60   6 C     71   6 C                                 1.4249195
    70   6 C     71   6 C                                 1.3694554
    72   6 C     73   6 C                                 1.3700778
    74   6 C     75   7 N                                 1.1479249
    76   6 C     77   7 N                                 1.1472391
     1   6 C     78   1 H                                 1.0788747
     6   6 C     79   1 H                                 1.0784884
     9   6 C     80   1 H                                 1.0780684
    12   6 C     81   1 H                                 1.0789833
    22   6 C     82   1 H                                 1.0822360
    23   7 N     83   1 H                                 1.0387124
    30   6 C     84   1 H                                 1.0740507
    32   6 C     85   1 H                                 1.0814820
    33   6 C     86   1 H                                 1.0790101
    34   7 N     87   1 H                                 1.0113008 (min)
    41   6 C     88   1 H                                 1.0750548
    43   6 C     89   1 H                                 1.0833668
    44   6 C     90   1 H                                 1.0790725
    45   7 N     91   1 H                                 1.0131406
    52   6 C     92   1 H                                 1.0738536
    54   6 C     93   1 H                                 1.0831316
    55   6 C     94   1 H                                 1.0782116
    56   6 C     95   1 H                                 1.0856120
    61   6 C     96   1 H                                 1.0793409
    64   6 C     97   1 H                                 1.0788190
    67   6 C     98   1 H                                 1.0787480
    70   6 C     99   1 H                                 1.0782776

 * 8 distinct bonds (by element types)

   Z      Z             #   av. dist./Å        max./Å        min./Å
   1 H    6 C          19     1.0791938     1.0856120     1.0738536
   6 C    6 C          41     1.3924520     1.4407607     1.3430612
   1 H    7 N           3     1.0210513     1.0387124     1.0113008
   6 C    7 N          13     1.3019776     1.4041512     1.1472391
   6 C    8 O           2     1.2198380     1.2304894     1.2091865
   7 N    8 O           6     1.2184207     1.2263290     1.2151535
   6 C    9 F           4     1.3385493     1.3392436     1.3379762
   6 C   16 S           6     1.7353760     1.7412512     1.7318999


optimized geometry written to: xtbopt.xyz


           -------------------------------------------------
          | TOTAL ENERGY             -212.518827054269 Eh   |
          | GRADIENT NORM               0.000766426898 Eh/α |
          | HOMO-LUMO GAP               1.173858199779 eV   |
           -------------------------------------------------

------------------------------------------------------------------------
 * finished run on 2021/06/12 at 08:31:23.851     
------------------------------------------------------------------------
 total:
 * wall-time:     0 d,  0 h,  0 min, 14.940 sec
 *  cpu-time:     0 d,  0 h,  2 min, 59.105 sec
 * ratio c/w:    11.989 speedup
 SCF:
 * wall-time:     0 d,  0 h,  0 min,  0.226 sec
 *  cpu-time:     0 d,  0 h,  0 min,  2.688 sec
 * ratio c/w:    11.889 speedup
 ANC optimizer:
 * wall-time:     0 d,  0 h,  0 min, 14.666 sec
 *  cpu-time:     0 d,  0 h,  2 min, 55.956 sec
 * ratio c/w:    11.997 speedup

