      -----------------------------------------------------------      
     |                   =====================                   |     
     |                           x T B                           |     
     |                   =====================                   |     
     |                         S. Grimme                         |     
     |          Mulliken Center for Theoretical Chemistry        |     
     |                    University of Bonn                     |     
     |                Version 6.2 RC2 (SAW190805)                |     
      -----------------------------------------------------------      

   This program is distributed in the hope that it will be useful,
   but WITHOUT ANY WARRANTY; without even the implied warranty of
   MERCHANTABILITY or FITNESS FOR A PARTICULAR PURPOSE.
   
   FOR NON-COMMERCIAL, ACADEMIA USE ONLY.
   
   Cite this work as:
   * S. Grimme, C. Bannwarth, P. Shushkov, J. Chem. Theory Comput., 2017,
     13, 1989-2009. DOI: 10.1021/acs.jctc.7b00118
   * C. Bannwarth, S. Ehlert and S. Grimme., J. Chem. Theory Comput., 2019,
     15, 1652-1671. DOI: 10.1021/acs.jctc.8b01176
   * P. Pracht, E. Caldeweyher, S. Ehlert, S. Grimme, ChemRxiv, 2019, preprint.
     DOI: 10.26434/chemrxiv.8326202.v1
   
   for DFT-D4:
   * E. Caldeweyher, C. Bannwarth and S. Grimme, J. Chem. Phys., 2017,
     147, 034112. DOI: 10.1063/1.4993215
   * E. Caldeweyher, S. Ehlert, A. Hansen, H. Neugebauer, S. Spicher,
     C. Bannwarth and S. Grimme, J. Chem. Phys., 2019, 150, 154122.
     DOI: 10.1063/1.5090222
   
   for sTDA-xTB:
   * S. Grimme and C. Bannwarth, J. Chem. Phys., 2016, 145, 054103.
     DOI: 10.1063/1.4959605
   
   in the mass-spec context:
   * V. Asgeirsson, C. Bauer and S. Grimme, Chem. Sci., 2017, 8, 4879.
     DOI: 10.1039/c7sc00601b
   
   for metadynamics refer to:
   * S. Grimme, J. Chem. Theory Comput., 2019, 155, 2847-2862
     DOI: 10.1021/acs.jctc.9b00143
   
   with help from (in alphabetical order)
   C. Bannwarth, F. Bohle, G. Brandenburg, E. Caldeweyher, M. Checinski,
   S. Dohm, S. Ehlert, S. Ehrlich, F. März, H. Neugebauer, J. Pisarek,
   P. Pracht, P. Shushkov, and S. Spicher.
   
 * started run on 2021/06/12 at 02:46:51.126     

           -------------------------------------------------
          |                Calculation Setup                |
           -------------------------------------------------

          program call               : /ihome/ghutchison/geoffh/xtb/xtb /ihome/ghutchison/blp62/GA/running_GA/sequence/generations/113/278_47_206_215_206_10323.xyz -opt
          hostname                   : smp-n47
          coordinate file            : /ihome/ghutchison/blp62/GA/running_GA/sequence/generations/113/278_47_206_215_206_10323.xyz
          omp threads                :                    12
          number of atoms            :                    92
          number of electrons        :                   322
          charge                     :                     0
          spin                       :                   0.0
          first test random number   :      0.80905900791754


########################################################################
# WARNING! Please study the warnings concerning your input carefully
#  - XTBPATH is not set, using XTBHOME instead
#  - the use of '-opt' is discouraged, please use '--opt' next time
########################################################################

           ------------------------------------------------- 
          |                 G F N 2 - x T B                 |
          | Geometry, Frequencies, Noncovalent interactions |
          |            JCTC 2019 parametrisation            |
           ------------------------------------------------- 
             KAB for C  - Si     :                1.0500
             KAB for H  - Pd     :                0.9500
             k(s)              :                1.8500
             k(p)              :                2.2300
             k(d)              :                2.2300
             k(f)              :                2.0000
             kEN (H0ij)        :               -2.0000
             D4 a1             :                0.5200
             D4 a2             :                5.0000
             D4 s6             :                1.0000
             D4 s8             :                2.7000
             D4 s9             :                5.0000
             alphaj            :                2.0000

  Z AO/shell   Hii/eV     exponent
  1     Wed Apr 25 08:07:45 CEST 2018   EN: 2.200 GM2: 0.406  GM3: 0.0800  RAES: 1.40
     1s    -10.707211    1.230000
  6     Wed Apr 25 08:07:45 CEST 2018   EN: 2.550 GM2: 0.538  GM3: 0.1500  RAES: 3.00
     2s    -13.970922    2.096432
     2p    -10.063292    1.800000
  7     Wed Apr 25 08:07:45 CEST 2018   EN: 3.040 GM2: 0.461  GM3:-0.0640  RAES: 1.90
     2s    -16.686243    2.339881
     2p    -12.523956    2.014332
  8     Wed Apr 25 08:07:45 CEST 2018   EN: 3.440 GM2: 0.452  GM3:-0.0517  RAES: 1.80
     2s    -20.229985    2.439742
     2p    -15.503117    2.137023
  9     Mon Apr 23 13:58:50 CEST 2018   EN: 3.980 GM2: 0.532  GM3: 0.1426  RAES: 2.40
     2s    -23.458179    2.416361
     2p    -15.746583    2.308399
 16     Tue Apr 24 11:44:34 CEST 2018   EN: 2.580 GM2: 0.340  GM3:-0.0502  RAES: 3.10
     3s    -20.029654    1.981333
     3p    -11.377694    2.025643
     3d     -0.420282    1.702555

           ------------------------------------------------- 
          |        Self-Consistent Charge Iterations        |
           ------------------------------------------------- 

          ...................................................
          :                      SETUP                      :
          :.................................................:
          :  # basis functions                 314          :
          :  # atomic orbitals                 310          :
          :  # shells                          162          :
          :  # electrons                       322          :
          :  max. iterations                   250          :
          :  Hamiltonian                  GFN2-xTB          :
          :  restarted?                      false          :
          :  GBSA solvation                  false          :
          :  PC potential                    false          :
          :  electronic temp.          300.0000000     K    :
          :  accuracy                    1.0000000          :
          :  -> integral cutoff          0.2500000E+02      :
          :  -> integral neglect         0.1000000E-07      :
          :  -> SCF convergence          0.1000000E-05 Eh   :
          :  -> wf. convergence          0.1000000E-03 e    :
          :  Broyden damping             0.4000000          :
          ...................................................

 iter      E             dE          RMSdq      gap      omega  full diag
   1   -181.5254984 -0.181525E+03  0.516E+00    0.71       0.0  T
   2   -181.9367685 -0.411270E+00  0.325E+00    0.44       1.0  T
   3   -181.8875901  0.491784E-01  0.208E+00    0.35       1.0  T
   4   -182.0140490 -0.126459E+00  0.134E+00    0.67       1.0  T
   5   -182.1464654 -0.132416E+00  0.525E-01    0.38       1.0  T
   6   -182.1711762 -0.247108E-01  0.187E-01    0.45       1.0  T
   7   -182.1732440 -0.206778E-02  0.997E-02    0.44       1.0  T
   8   -182.1736192 -0.375261E-03  0.466E-02    0.44       1.0  T
   9   -182.1737084 -0.891740E-04  0.195E-02    0.45       1.0  T
  10   -182.1737219 -0.134968E-04  0.991E-03    0.44       1.1  T
  11   -182.1737263 -0.440406E-05  0.489E-03    0.45       2.1  T
  12   -182.1737274 -0.112221E-05  0.264E-03    0.45       3.9  T
  13   -182.1737277 -0.267014E-06  0.131E-03    0.45       7.9  T
  14   -182.1737278 -0.554091E-07  0.697E-04    0.45      15.0  T
  15   -182.1737278 -0.112761E-07  0.336E-04    0.45      31.0  T

   *** convergence criteria satisfied after 15 iterations ***

         #    Occupation            Energy/Eh            Energy/eV
      -------------------------------------------------------------
         1        2.0000           -0.8425904             -22.9281
       ...           ...                  ...                  ...
       155        2.0000           -0.4078281             -11.0976
       156        2.0000           -0.4066584             -11.0657
       157        2.0000           -0.4037482             -10.9865
       158        2.0000           -0.3978449             -10.8259
       159        2.0000           -0.3800992             -10.3430
       160        2.0000           -0.3683184             -10.0225
       161        1.9996           -0.3535461              -9.6205 (HOMO)
       162        0.0004           -0.3371655              -9.1747 (LUMO)
       163                         -0.3270809              -8.9003
       164                         -0.3199615              -8.7066
       165                         -0.3121410              -8.4938
       166                         -0.3112926              -8.4707
       ...                                ...                  ...
       310                          1.0902583              29.6674
      -------------------------------------------------------------
                  HL-Gap            0.0163806 Eh            0.4457 eV
             Fermi-level           -0.3453558 Eh           -9.3976 eV

 SCC (total)                   0 d,  0 h,  0 min,  0.198 sec
 SCC setup                      ...        0 min,  0.002 sec (  0.998%)
 Dispersion                     ...        0 min,  0.004 sec (  2.174%)
 integral evaluation            ...        0 min,  0.020 sec ( 10.234%)
 zeroth order Hamiltonian       ...        0 min,  0.001 sec (  0.484%)
 iterations                     ...        0 min,  0.152 sec ( 76.868%)
 molecular gradient             ...        0 min,  0.017 sec (  8.701%)
 printout                       ...        0 min,  0.001 sec (  0.490%)

         :::::::::::::::::::::::::::::::::::::::::::::::::::::
         ::                     SUMMARY                     ::
         :::::::::::::::::::::::::::::::::::::::::::::::::::::
         :: total energy            -179.641725988921 Eh    ::
         :: gradient norm              0.206397573746 Eh/a0 ::
         :: HOMO-LUMO gap              0.445738182617 eV    ::
         ::.................................................::
         :: SCC energy              -182.173727766469 Eh    ::
         :: -> isotropic ES            0.189673323867 Eh    ::
         :: -> anisotropic ES          0.023252124653 Eh    ::
         :: -> anisotropic XC          0.078042054303 Eh    ::
         :: -> dispersion             -0.123672654924 Eh    ::
         :: repulsion energy           2.533275455028 Eh    ::
         :: add. restraining           0.000000000000 Eh    ::
         :::::::::::::::::::::::::::::::::::::::::::::::::::::

      ----------------------------------------------------------- 
     |                   =====================                   |
     |                        A N C O P T                        |
     |                   =====================                   |
     |               Approximate Normal Coordinate               |
     |                Rational Function Optimizer                |
      ----------------------------------------------------------- 

          ...................................................
          :                      SETUP                      :
          :.................................................:
          :   optimization level            normal          :
          :   max. optcycles                   276          :
          :   ANC micro-cycles                  20          :
          :   degrees of freedom               270          :
          :.................................................:
          :   RF solver                   davidson          :
          :   input Hessian                  false          :
          :   write xtbopt.log                true          :
          :   linear?                        false          :
          :   energy convergence         0.5000000E-05 Eh   :
          :   grad. convergence          0.1000000E-02 Eh/α :
          :   maximium RF displ.         2.0000000          :
          :   Hlow (freq-cutoff)         0.5000000E-02      :
          :   Hmax (freq-cutoff)         5.0000000          :
          :   S6 in model hess.         20.0000000          :
          ...................................................

generating ANC from model Hessian ...
Using Lindh-Hessian (1995)
 Shifting diagonal of input Hessian by   5.017597909021995E-003
 Lowest  eigenvalues of input Hessian
    0.005000   -0.000000   -0.000000   -0.000000   -0.000000    0.000000
    0.000000    0.005030    0.005049    0.005072    0.005104    0.005137
    0.005158    0.005201    0.005303    0.005457    0.005622    0.005678
 Highest eigenvalues
    2.267902    2.339264    2.494436    2.496026    2.510892    2.574143
 

........................................................................
.............................. CYCLE    1 ..............................
........................................................................
   1   -182.1737278 -0.182174E+03  0.126E-04    0.45       0.0  T
   2   -182.1737278  0.537170E-10  0.108E-04    0.45      96.8  T
   3   -182.1737278 -0.887383E-09  0.559E-05    0.45     186.5  T
     SCC iter.                  ...        0 min,  0.031 sec
     gradient                   ...        0 min,  0.017 sec
 * total energy  :  -179.6417260 Eh     change       -0.2040184E-07 Eh
   gradient norm :     0.2063978 Eh/α   predicted     0.0000000E+00 (-100.00%)
   displ. norm   :     0.4192200 α      lambda       -0.4822446E-01
   maximum displ.:     0.1198344 α      in ANC's #61, #69, #58, ...

........................................................................
.............................. CYCLE    2 ..............................
........................................................................
   1   -182.2578206 -0.182258E+03  0.286E-01    0.44       0.0  T
   2   -182.2578658 -0.451188E-04  0.173E-01    0.49       1.0  T
   3   -182.2557253  0.214044E-02  0.171E-01    0.45       1.0  T
   4   -182.2587771 -0.305181E-02  0.702E-02    0.49       1.0  T
   5   -182.2593071 -0.529946E-03  0.217E-02    0.48       1.0  T
   6   -182.2593271 -0.200609E-04  0.101E-02    0.48       1.0  T
   7   -182.2593316 -0.448862E-05  0.496E-03    0.48       2.1  T
   8   -182.2593333 -0.164193E-05  0.216E-03    0.48       4.8  T
     SCC iter.                  ...        0 min,  0.076 sec
     gradient                   ...        0 min,  0.016 sec
 * total energy  :  -179.6770518 Eh     change       -0.3532574E-01 Eh
   gradient norm :     0.0999023 Eh/α   predicted    -0.2834992E-01 ( -19.75%)
   displ. norm   :     0.4741152 α      lambda       -0.2278210E-01
   maximum displ.:     0.1570921 α      in ANC's #61, #58, #50, ...

........................................................................
.............................. CYCLE    3 ..............................
........................................................................
   1   -182.2939323 -0.182294E+03  0.284E-01    0.43       0.0  T
   2   -182.2919099  0.202245E-02  0.204E-01    0.51       1.0  T
   3   -182.2897720  0.213783E-02  0.210E-01    0.47       1.0  T
   4   -182.2955091 -0.573710E-02  0.641E-02    0.49       1.0  T
   5   -182.2958255 -0.316393E-03  0.215E-02    0.49       1.0  T
   6   -182.2958477 -0.221863E-04  0.112E-02    0.49       1.0  T
   7   -182.2958547 -0.699622E-05  0.502E-03    0.49       2.1  T
   8   -182.2958563 -0.160029E-05  0.193E-03    0.49       5.4  T
   9   -182.2958565 -0.203315E-06  0.996E-04    0.49      10.5  T
     SCC iter.                  ...        0 min,  0.086 sec
     gradient                   ...        0 min,  0.016 sec
 * total energy  :  -179.6909672 Eh     change       -0.1391550E-01 Eh
   gradient norm :     0.0301639 Eh/α   predicted    -0.1395159E-01 (   0.26%)
   displ. norm   :     0.5746164 α      lambda       -0.8132620E-02
   maximum displ.:     0.1907625 α      in ANC's #29, #17, #61, ...

........................................................................
.............................. CYCLE    4 ..............................
........................................................................
   1   -182.2925181 -0.182293E+03  0.344E-01    0.44       0.0  T
   2   -182.2909454  0.157268E-02  0.218E-01    0.51       1.0  T
   3   -182.2780456  0.128999E-01  0.308E-01    0.46       1.0  T
   4   -182.2931350 -0.150894E-01  0.540E-02    0.48       1.0  T
   5   -182.2934030 -0.267998E-03  0.214E-02    0.49       1.0  T
   6   -182.2934435 -0.405513E-04  0.101E-02    0.49       1.0  T
   7   -182.2934457 -0.219897E-05  0.537E-03    0.49       1.9  T
   8   -182.2934485 -0.278601E-05  0.180E-03    0.49       5.8  T
     SCC iter.                  ...        0 min,  0.076 sec
     gradient                   ...        0 min,  0.016 sec
 * total energy  :  -179.6929580 Eh     change       -0.1990745E-02 Eh
   gradient norm :     0.0462718 Eh/α   predicted    -0.5408947E-02 ( 171.70%)
   displ. norm   :     0.5332442 α      lambda       -0.1003608E-01
   maximum displ.:     0.1588017 α      in ANC's #16, #33, #38, ...

........................................................................
.............................. CYCLE    5 ..............................
........................................................................
   1   -182.3078340 -0.182308E+03  0.336E-01    0.46       0.0  T
   2   -182.3072893  0.544630E-03  0.196E-01    0.50       1.0  T
   3   -182.2950288  0.122605E-01  0.279E-01    0.47       1.0  T
   4   -182.3080872 -0.130583E-01  0.498E-02    0.49       1.0  T
   5   -182.3083489 -0.261725E-03  0.147E-02    0.49       1.0  T
   6   -182.3083666 -0.177651E-04  0.696E-03    0.49       1.5  T
   7   -182.3083677 -0.109271E-05  0.390E-03    0.49       2.7  T
   8   -182.3083693 -0.153111E-05  0.142E-03    0.49       7.3  T
     SCC iter.                  ...        0 min,  0.076 sec
     gradient                   ...        0 min,  0.016 sec
 * total energy  :  -179.6976332 Eh     change       -0.4675159E-02 Eh
   gradient norm :     0.0337653 Eh/α   predicted    -0.6444953E-02 (  37.86%)
   displ. norm   :     0.4293033 α      lambda       -0.4935348E-02
   maximum displ.:     0.1819298 α      in ANC's #29, #10, #38, ...

........................................................................
.............................. CYCLE    6 ..............................
........................................................................
   1   -182.3028870 -0.182303E+03  0.281E-01    0.48       0.0  T
   2   -182.3029523 -0.653138E-04  0.159E-01    0.50       1.0  T
   3   -182.3009710  0.198125E-02  0.111E-01    0.48       1.0  T
   4   -182.3027070 -0.173596E-02  0.481E-02    0.49       1.0  T
   5   -182.3030615 -0.354545E-03  0.135E-02    0.49       1.0  T
   6   -182.3030714 -0.989084E-05  0.800E-03    0.49       1.3  T
   7   -182.3030764 -0.492336E-05  0.280E-03    0.49       3.7  T
   8   -182.3030768 -0.479547E-06  0.133E-03    0.49       7.8  T
     SCC iter.                  ...        0 min,  0.076 sec
     gradient                   ...        0 min,  0.016 sec
 * total energy  :  -179.6985566 Eh     change       -0.9234815E-03 Eh
   gradient norm :     0.0348446 Eh/α   predicted    -0.2922473E-02 ( 216.46%)
   displ. norm   :     0.4186913 α      lambda       -0.5214435E-02
   maximum displ.:     0.2000678 α      in ANC's #33, #17, #19, ...

........................................................................
.............................. CYCLE    7 ..............................
........................................................................
   1   -182.3045416 -0.182305E+03  0.256E-01    0.49       0.0  T
   2   -182.3045205  0.210908E-04  0.144E-01    0.50       1.0  T
   3   -182.3014369  0.308369E-02  0.138E-01    0.48       1.0  T
   4   -182.3045329 -0.309604E-02  0.322E-02    0.50       1.0  T
   5   -182.3046838 -0.150907E-03  0.923E-03    0.50       1.1  T
   6   -182.3046885 -0.472626E-05  0.434E-03    0.50       2.4  T
   7   -182.3046894 -0.839030E-06  0.188E-03    0.50       5.5  T
     SCC iter.                  ...        0 min,  0.070 sec
     gradient                   ...        0 min,  0.017 sec
 * total energy  :  -179.7010570 Eh     change       -0.2500375E-02 Eh
   gradient norm :     0.0248008 Eh/α   predicted    -0.3064272E-02 (  22.55%)
   displ. norm   :     0.4820654 α      lambda       -0.5886229E-02
   maximum displ.:     0.1443661 α      in ANC's #26, #10, #19, ...

........................................................................
.............................. CYCLE    8 ..............................
........................................................................
   1   -182.3079987 -0.182308E+03  0.344E-01    0.49       0.0  T
   2   -182.3080549 -0.561671E-04  0.200E-01    0.51       1.0  T
   3   -182.3024384  0.561651E-02  0.188E-01    0.49       1.0  T
   4   -182.3075188 -0.508045E-02  0.738E-02    0.50       1.0  T
   5   -182.3083921 -0.873343E-03  0.138E-02    0.50       1.0  T
   6   -182.3084010 -0.884218E-05  0.866E-03    0.50       1.2  T
   7   -182.3084038 -0.281411E-05  0.408E-03    0.50       2.6  T
   8   -182.3084054 -0.157691E-05  0.163E-03    0.50       6.4  T
     SCC iter.                  ...        0 min,  0.076 sec
     gradient                   ...        0 min,  0.016 sec
 * total energy  :  -179.7001771 Eh     change        0.8798858E-03 Eh
   gradient norm :     0.0468412 Eh/α   predicted    -0.3627057E-02 (-512.22%)
   displ. norm   :     0.2570205 α      lambda       -0.6339877E-02
   maximum displ.:     0.0869090 α      in ANC's #17, #33, #10, ...

........................................................................
.............................. CYCLE    9 ..............................
........................................................................
   1   -182.3143203 -0.182314E+03  0.205E-01    0.50       0.0  T
   2   -182.3143786 -0.582882E-04  0.119E-01    0.50       1.0  T
   3   -182.3124335  0.194515E-02  0.116E-01    0.49       1.0  T
   4   -182.3139328 -0.149929E-02  0.602E-02    0.50       1.0  T
   5   -182.3145365 -0.603775E-03  0.910E-03    0.50       1.1  T
   6   -182.3145395 -0.296118E-05  0.551E-03    0.50       1.9  T
   7   -182.3145409 -0.140125E-05  0.226E-03    0.50       4.6  T
     SCC iter.                  ...        0 min,  0.066 sec
     gradient                   ...        0 min,  0.016 sec
 * total energy  :  -179.7038331 Eh     change       -0.3655943E-02 Eh
   gradient norm :     0.0129814 Eh/α   predicted    -0.3379346E-02 (  -7.57%)
   displ. norm   :     0.4598901 α      lambda       -0.1635327E-02
   maximum displ.:     0.1868936 α      in ANC's #10, #16, #17, ...

........................................................................
.............................. CYCLE   10 ..............................
........................................................................
   1   -182.3117467 -0.182312E+03  0.179E-01    0.49       0.0  T
   2   -182.3116068  0.139974E-03  0.102E-01    0.51       1.0  T
   3   -182.3078564  0.375033E-02  0.149E-01    0.49       1.0  T
   4   -182.3118041 -0.394771E-02  0.196E-02    0.50       1.0  T
   5   -182.3118291 -0.249771E-04  0.103E-02    0.50       1.0  T
   6   -182.3118346 -0.546712E-05  0.450E-03    0.50       2.3  T
   7   -182.3118363 -0.172280E-05  0.155E-03    0.50       6.7  T
   8   -182.3118365 -0.204787E-06  0.724E-04    0.50      14.4  T
     SCC iter.                  ...        0 min,  0.077 sec
     gradient                   ...        0 min,  0.016 sec
 * total energy  :  -179.7050692 Eh     change       -0.1236114E-02 Eh
   gradient norm :     0.0145717 Eh/α   predicted    -0.9906110E-03 ( -19.86%)
   displ. norm   :     0.6637859 α      lambda       -0.1978644E-02
   maximum displ.:     0.2886400 α      in ANC's #10, #17, #16, ...

........................................................................
.............................. CYCLE   11 ..............................
........................................................................
   1   -182.3140954 -0.182314E+03  0.233E-01    0.49       0.0  T
   2   -182.3139158  0.179607E-03  0.133E-01    0.50       1.0  T
   3   -182.3083489  0.556690E-02  0.181E-01    0.49       1.0  T
   4   -182.3141791 -0.583014E-02  0.263E-02    0.50       1.0  T
   5   -182.3142356 -0.565018E-04  0.117E-02    0.50       1.0  T
   6   -182.3142381 -0.256052E-05  0.694E-03    0.50       1.5  T
   7   -182.3142428 -0.462037E-05  0.177E-03    0.50       5.9  T
   8   -182.3142430 -0.259749E-06  0.962E-04    0.50      10.8  T
   9   -182.3142430 -0.302156E-07  0.535E-04    0.50      19.5  T
     SCC iter.                  ...        0 min,  0.085 sec
     gradient                   ...        0 min,  0.016 sec
 * total energy  :  -179.7064745 Eh     change       -0.1405297E-02 Eh
   gradient norm :     0.0179752 Eh/α   predicted    -0.1425238E-02 (   1.42%)
   displ. norm   :     0.6381942 α      lambda       -0.1751716E-02
   maximum displ.:     0.2883403 α      in ANC's #10, #17, #16, ...

........................................................................
.............................. CYCLE   12 ..............................
........................................................................
   1   -182.3204885 -0.182320E+03  0.217E-01    0.49       0.0  T
   2   -182.3203110  0.177453E-03  0.124E-01    0.50       1.0  T
   3   -182.3150641  0.524689E-02  0.176E-01    0.49       1.0  T
   4   -182.3205722 -0.550809E-02  0.217E-02    0.50       1.0  T
   5   -182.3206017 -0.294538E-04  0.109E-02    0.50       1.0  T
   6   -182.3206051 -0.342253E-05  0.574E-03    0.50       1.8  T
   7   -182.3206089 -0.383115E-05  0.171E-03    0.50       6.1  T
   8   -182.3206092 -0.245851E-06  0.800E-04    0.50      13.0  T
   9   -182.3206092 -0.836357E-08  0.460E-04    0.50      22.7  T
     SCC iter.                  ...        0 min,  0.085 sec
     gradient                   ...        0 min,  0.016 sec
 * total energy  :  -179.7077021 Eh     change       -0.1227652E-02 Eh
   gradient norm :     0.0119338 Eh/α   predicted    -0.1232592E-02 (   0.40%)
   displ. norm   :     0.6120041 α      lambda       -0.1243815E-02
   maximum displ.:     0.2993339 α      in ANC's #10, #16, #17, ...

........................................................................
.............................. CYCLE   13 ..............................
........................................................................
   1   -182.3204985 -0.182320E+03  0.225E-01    0.49       0.0  T
   2   -182.3204208  0.777034E-04  0.124E-01    0.50       1.0  T
   3   -182.3165470  0.387381E-02  0.149E-01    0.49       1.0  T
   4   -182.3205632 -0.401623E-02  0.209E-02    0.49       1.0  T
   5   -182.3205837 -0.204625E-04  0.123E-02    0.50       1.0  T
   6   -182.3205936 -0.992725E-05  0.428E-03    0.50       2.4  T
   7   -182.3205952 -0.165321E-05  0.154E-03    0.50       6.8  T
   8   -182.3205954 -0.126050E-06  0.794E-04    0.50      13.1  T
     SCC iter.                  ...        0 min,  0.075 sec
     gradient                   ...        0 min,  0.016 sec
 * total energy  :  -179.7085672 Eh     change       -0.8650304E-03 Eh
   gradient norm :     0.0123315 Eh/α   predicted    -0.8548443E-03 (  -1.18%)
   displ. norm   :     0.5769644 α      lambda       -0.9587700E-03
   maximum displ.:     0.2981351 α      in ANC's #10, #16, #17, ...

........................................................................
.............................. CYCLE   14 ..............................
........................................................................
   1   -182.3193239 -0.182319E+03  0.179E-01    0.49       0.0  T
   2   -182.3193121  0.118010E-04  0.985E-02    0.49       1.0  T
   3   -182.3177944  0.151775E-02  0.927E-02    0.49       1.0  T
   4   -182.3193500 -0.155563E-02  0.158E-02    0.49       1.0  T
   5   -182.3193654 -0.153736E-04  0.842E-03    0.49       1.2  T
   6   -182.3193697 -0.435820E-05  0.282E-03    0.49       3.7  T
   7   -182.3193705 -0.746391E-06  0.974E-04    0.49      10.7  T
   8   -182.3193705 -0.356822E-07  0.605E-04    0.49      17.2  T
     SCC iter.                  ...        0 min,  0.075 sec
     gradient                   ...        0 min,  0.016 sec
 * total energy  :  -179.7092640 Eh     change       -0.6968583E-03 Eh
   gradient norm :     0.0108690 Eh/α   predicted    -0.6389698E-03 (  -8.31%)
   displ. norm   :     0.5738502 α      lambda       -0.8517292E-03
   maximum displ.:     0.3109887 α      in ANC's #10, #5, #17, ...

........................................................................
.............................. CYCLE   15 ..............................
........................................................................
   1   -182.3274385 -0.182327E+03  0.163E-01    0.49       0.0  T
   2   -182.3274595 -0.209684E-04  0.890E-02    0.49       1.0  T
   3   -182.3272422  0.217228E-03  0.377E-02    0.49       1.0  T
   4   -182.3273875 -0.145302E-03  0.234E-02    0.49       1.0  T
   5   -182.3274682 -0.806371E-04  0.840E-03    0.49       1.2  T
   6   -182.3274728 -0.462147E-05  0.339E-03    0.49       3.1  T
   7   -182.3274739 -0.113017E-05  0.886E-04    0.49      11.8  T
   8   -182.3274740 -0.294369E-07  0.538E-04    0.49      19.4  T
     SCC iter.                  ...        0 min,  0.075 sec
     gradient                   ...        0 min,  0.016 sec
 * total energy  :  -179.7098524 Eh     change       -0.5884084E-03 Eh
   gradient norm :     0.0123528 Eh/α   predicted    -0.5661053E-03 (  -3.79%)
   displ. norm   :     0.6091763 α      lambda       -0.8259295E-03
   maximum displ.:     0.3175450 α      in ANC's #10, #5, #8, ...

........................................................................
.............................. CYCLE   16 ..............................
........................................................................
   1   -182.3209743 -0.182321E+03  0.187E-01    0.48       0.0  T
   2   -182.3209464  0.278359E-04  0.103E-01    0.49       1.0  T
   3   -182.3186152  0.233119E-02  0.115E-01    0.47       1.0  T
   4   -182.3209973 -0.238202E-02  0.220E-02    0.48       1.0  T
   5   -182.3210414 -0.441558E-04  0.106E-02    0.49       1.0  T
   6   -182.3210484 -0.703767E-05  0.371E-03    0.49       2.8  T
   7   -182.3210494 -0.971251E-06  0.151E-03    0.49       6.9  T
   8   -182.3210496 -0.149339E-06  0.684E-04    0.49      15.3  T
     SCC iter.                  ...        0 min,  0.076 sec
     gradient                   ...        0 min,  0.016 sec
 * total energy  :  -179.7102934 Eh     change       -0.4409790E-03 Eh
   gradient norm :     0.0135706 Eh/α   predicted    -0.5662151E-03 (  28.40%)
   displ. norm   :     0.4745574 α      lambda       -0.8419986E-03
   maximum displ.:     0.2645119 α      in ANC's #10, #5, #8, ...

........................................................................
.............................. CYCLE   17 ..............................
........................................................................
   1   -182.3239165 -0.182324E+03  0.132E-01    0.49       0.0  T
   2   -182.3239413 -0.247770E-04  0.724E-02    0.48       1.0  T
   3   -182.3239055  0.357541E-04  0.218E-02    0.49       1.0  T
   4   -182.3239350 -0.294812E-04  0.116E-02    0.48       1.0  T
   5   -182.3239335  0.156274E-05  0.102E-02    0.49       1.0  T
   6   -182.3239485 -0.150857E-04  0.436E-03    0.49       2.4  T
   7   -182.3239511 -0.254022E-05  0.103E-03    0.49      10.1  T
   8   -182.3239511 -0.465071E-07  0.573E-04    0.49      18.2  T
     SCC iter.                  ...        0 min,  0.075 sec
     gradient                   ...        0 min,  0.016 sec
 * total energy  :  -179.7106964 Eh     change       -0.4029599E-03 Eh
   gradient norm :     0.0198356 Eh/α   predicted    -0.5158107E-03 (  28.01%)
   displ. norm   :     0.3944649 α      lambda       -0.6968706E-03
   maximum displ.:     0.2023389 α      in ANC's #10, #5, #9, ...

........................................................................
.............................. CYCLE   18 ..............................
........................................................................
   1   -182.3253023 -0.182325E+03  0.108E-01    0.48       0.0  T
   2   -182.3253127 -0.104275E-04  0.596E-02    0.48       1.0  T
   3   -182.3251706  0.142127E-03  0.300E-02    0.49       1.0  T
   4   -182.3252719 -0.101285E-03  0.177E-02    0.49       1.0  T
   5   -182.3253193 -0.473646E-04  0.585E-03    0.48       1.8  T
   6   -182.3253218 -0.248976E-05  0.203E-03    0.49       5.1  T
   7   -182.3253221 -0.361628E-06  0.694E-04    0.48      15.0  T
     SCC iter.                  ...        0 min,  0.067 sec
     gradient                   ...        0 min,  0.016 sec
 * total energy  :  -179.7111332 Eh     change       -0.4368787E-03 Eh
   gradient norm :     0.0143759 Eh/α   predicted    -0.4026582E-03 (  -7.83%)
   displ. norm   :     0.4948396 α      lambda       -0.6142469E-03
   maximum displ.:     0.2583464 α      in ANC's #10, #5, #8, ...

........................................................................
.............................. CYCLE   19 ..............................
........................................................................
   1   -182.3242729 -0.182324E+03  0.138E-01    0.48       0.0  T
   2   -182.3242903 -0.173914E-04  0.747E-02    0.48       1.0  T
   3   -182.3242197  0.705659E-04  0.254E-02    0.49       1.0  T
   4   -182.3242339 -0.142111E-04  0.198E-02    0.48       1.0  T
   5   -182.3242891 -0.551743E-04  0.897E-03    0.48       1.2  T
   6   -182.3242983 -0.923614E-05  0.298E-03    0.49       3.5  T
   7   -182.3242991 -0.783562E-06  0.763E-04    0.48      13.7  T
   8   -182.3242991 -0.200026E-07  0.471E-04    0.48      22.1  T
     SCC iter.                  ...        0 min,  0.076 sec
     gradient                   ...        0 min,  0.016 sec
 * total energy  :  -179.7116265 Eh     change       -0.4932242E-03 Eh
   gradient norm :     0.0108080 Eh/α   predicted    -0.3823298E-03 ( -22.48%)
   displ. norm   :     0.6194826 α      lambda       -0.8283047E-03
   maximum displ.:     0.2847228 α      in ANC's #10, #5, #8, ...

........................................................................
.............................. CYCLE   20 ..............................
........................................................................
   1   -182.3256209 -0.182326E+03  0.191E-01    0.49       0.0  T
   2   -182.3256390 -0.180520E-04  0.103E-01    0.49       1.0  T
   3   -182.3249802  0.658792E-03  0.657E-02    0.48       1.0  T
   4   -182.3255793 -0.599119E-03  0.254E-02    0.49       1.0  T
   5   -182.3256534 -0.741209E-04  0.140E-02    0.49       1.0  T
   6   -182.3256740 -0.205370E-04  0.351E-03    0.49       3.0  T
   7   -182.3256747 -0.782159E-06  0.142E-03    0.49       7.3  T
   8   -182.3256749 -0.149876E-06  0.702E-04    0.49      14.9  T
     SCC iter.                  ...        0 min,  0.075 sec
     gradient                   ...        0 min,  0.016 sec
 * total energy  :  -179.7122326 Eh     change       -0.6060897E-03 Eh
   gradient norm :     0.0133529 Eh/α   predicted    -0.5730919E-03 (  -5.44%)
   displ. norm   :     0.6675887 α      lambda       -0.8318580E-03
   maximum displ.:     0.2958414 α      in ANC's #10, #5, #8, ...
 * RMSD in coord.:     0.7955355 α      energy gain  -0.7050657E-01 Eh

generating ANC from model Hessian ...
Using Lindh-Hessian (1995)
 Shifting diagonal of input Hessian by   5.018506216132983E-003
 Lowest  eigenvalues of input Hessian
    0.005000   -0.000000   -0.000000   -0.000000   -0.000000    0.000000
    0.000000    0.005031    0.005051    0.005079    0.005112    0.005134
    0.005155    0.005226    0.005309    0.005419    0.005532    0.005778
 Highest eigenvalues
    2.267929    2.285796    2.597804    2.649223    2.655862    2.670438
 

........................................................................
.............................. CYCLE   21 ..............................
........................................................................
   1   -182.3215744 -0.182322E+03  0.224E-01    0.49       0.0  T
   2   -182.3216375 -0.631027E-04  0.119E-01    0.48       1.0  T
   3   -182.3215762  0.612204E-04  0.318E-02    0.49       1.0  T
   4   -182.3215882 -0.119542E-04  0.227E-02    0.49       1.0  T
   5   -182.3215925 -0.429015E-05  0.195E-02    0.49       1.0  T
   6   -182.3216542 -0.617201E-04  0.521E-03    0.49       2.0  T
   7   -182.3216571 -0.286069E-05  0.180E-03    0.49       5.8  T
   8   -182.3216573 -0.264164E-06  0.908E-04    0.49      11.5  T
   9   -182.3216574 -0.570781E-07  0.454E-04    0.49      23.0  T
     SCC iter.                  ...        0 min,  0.085 sec
     gradient                   ...        0 min,  0.017 sec
 * total energy  :  -179.7127550 Eh     change       -0.5223959E-03 Eh
   gradient norm :     0.0168205 Eh/α   predicted     0.0000000E+00 (-100.00%)
   displ. norm   :     0.1936550 α      lambda       -0.5774795E-03
   maximum displ.:     0.0927314 α      in ANC's #1, #5, #10, ...

........................................................................
.............................. CYCLE   22 ..............................
........................................................................
   1   -182.3240825 -0.182324E+03  0.908E-02    0.49       0.0  T
   2   -182.3240945 -0.119872E-04  0.498E-02    0.49       1.0  T
   3   -182.3240473  0.471473E-04  0.196E-02    0.48       1.0  T
   4   -182.3240794 -0.320451E-04  0.111E-02    0.49       1.0  T
   5   -182.3240945 -0.151021E-04  0.615E-03    0.49       1.7  T
   6   -182.3241001 -0.564012E-05  0.173E-03    0.49       6.0  T
   7   -182.3241003 -0.168578E-06  0.742E-04    0.49      14.0  T
   8   -182.3241003 -0.260772E-07  0.392E-04    0.49      26.6  T
     SCC iter.                  ...        0 min,  0.077 sec
     gradient                   ...        0 min,  0.016 sec
 * total energy  :  -179.7130423 Eh     change       -0.2873379E-03 Eh
   gradient norm :     0.0087561 Eh/α   predicted    -0.2995685E-03 (   4.26%)
   displ. norm   :     0.3149165 α      lambda       -0.1046919E-02
   maximum displ.:     0.1133403 α      in ANC's #11, #7, #31, ...

........................................................................
.............................. CYCLE   23 ..............................
........................................................................
   1   -182.3286352 -0.182329E+03  0.187E-01    0.49       0.0  T
   2   -182.3286862 -0.509335E-04  0.103E-01    0.49       1.0  T
   3   -182.3285186  0.167527E-03  0.390E-02    0.48       1.0  T
   4   -182.3286443 -0.125627E-03  0.202E-02    0.49       1.0  T
   5   -182.3286863 -0.420080E-04  0.128E-02    0.49       1.0  T
   6   -182.3287116 -0.253087E-04  0.350E-03    0.49       3.0  T
   7   -182.3287123 -0.725235E-06  0.145E-03    0.49       7.2  T
   8   -182.3287124 -0.805400E-07  0.737E-04    0.49      14.1  T
     SCC iter.                  ...        0 min,  0.075 sec
     gradient                   ...        0 min,  0.016 sec
 * total energy  :  -179.7127801 Eh     change        0.2621456E-03 Eh
   gradient norm :     0.0282289 Eh/α   predicted    -0.5753755E-03 (-319.49%)
   displ. norm   :     0.1146377 α      lambda       -0.1325122E-02
   maximum displ.:     0.0627988 α      in ANC's #1, #33, #34, ...

........................................................................
.............................. CYCLE   24 ..............................
........................................................................
   1   -182.3284945 -0.182328E+03  0.109E-01    0.48       0.0  T
   2   -182.3285103 -0.157238E-04  0.602E-02    0.49       1.0  T
   3   -182.3284375  0.727234E-04  0.243E-02    0.49       1.0  T
   4   -182.3284934 -0.558229E-04  0.124E-02    0.49       1.0  T
   5   -182.3285159 -0.224949E-04  0.544E-03    0.49       1.9  T
   6   -182.3285196 -0.370319E-05  0.182E-03    0.49       5.7  T
   7   -182.3285197 -0.148228E-06  0.953E-04    0.49      10.9  T
     SCC iter.                  ...        0 min,  0.068 sec
     gradient                   ...        0 min,  0.016 sec
 * total energy  :  -179.7134510 Eh     change       -0.6708966E-03 Eh
   gradient norm :     0.0076462 Eh/α   predicted    -0.6712701E-03 (   0.06%)
   displ. norm   :     0.1542694 α      lambda       -0.3292779E-03
   maximum displ.:     0.0718117 α      in ANC's #1, #10, #5, ...

........................................................................
.............................. CYCLE   25 ..............................
........................................................................
   1   -182.3254523 -0.182325E+03  0.828E-02    0.48       0.0  T
   2   -182.3254570 -0.466230E-05  0.458E-02    0.48       1.0  T
   3   -182.3253169  0.140110E-03  0.289E-02    0.49       1.0  T
   4   -182.3254509 -0.134058E-03  0.949E-03    0.48       1.1  T
   5   -182.3254628 -0.118525E-04  0.419E-03    0.48       2.5  T
   6   -182.3254641 -0.135500E-05  0.158E-03    0.48       6.6  T
   7   -182.3254643 -0.143406E-06  0.635E-04    0.48      16.4  T
     SCC iter.                  ...        0 min,  0.066 sec
     gradient                   ...        0 min,  0.016 sec
 * total energy  :  -179.7135406 Eh     change       -0.8953601E-04 Eh
   gradient norm :     0.0072822 Eh/α   predicted    -0.1685585E-03 (  88.26%)
   displ. norm   :     0.3118822 α      lambda       -0.5263641E-03
   maximum displ.:     0.1337374 α      in ANC's #1, #11, #5, ...

........................................................................
.............................. CYCLE   26 ..............................
........................................................................
   1   -182.3219007 -0.182322E+03  0.140E-01    0.48       0.0  T
   2   -182.3219148 -0.140405E-04  0.769E-02    0.48       1.0  T
   3   -182.3217406  0.174152E-03  0.348E-02    0.48       1.0  T
   4   -182.3218929 -0.152310E-03  0.150E-02    0.48       1.0  T
   5   -182.3219232 -0.302584E-04  0.727E-03    0.48       1.4  T
   6   -182.3219283 -0.515469E-05  0.208E-03    0.48       5.0  T
   7   -182.3219287 -0.354054E-06  0.880E-04    0.48      11.8  T
   8   -182.3219287 -0.450178E-07  0.485E-04    0.48      21.5  T
     SCC iter.                  ...        0 min,  0.076 sec
     gradient                   ...        0 min,  0.016 sec
 * total energy  :  -179.7135740 Eh     change       -0.3339861E-04 Eh
   gradient norm :     0.0136721 Eh/α   predicted    -0.2887860E-03 ( 764.66%)
   displ. norm   :     0.2635550 α      lambda       -0.8275164E-03
   maximum displ.:     0.1099399 α      in ANC's #1, #5, #10, ...

........................................................................
.............................. CYCLE   27 ..............................
........................................................................
   1   -182.3242632 -0.182324E+03  0.107E-01    0.48       0.0  T
   2   -182.3242729 -0.969580E-05  0.601E-02    0.48       1.0  T
   3   -182.3242529  0.200688E-04  0.161E-02    0.48       1.0  T
   4   -182.3242628 -0.991851E-05  0.102E-02    0.48       1.0  T
   5   -182.3242700 -0.721081E-05  0.711E-03    0.48       1.5  T
   6   -182.3242773 -0.729491E-05  0.223E-03    0.48       4.7  T
   7   -182.3242778 -0.543460E-06  0.788E-04    0.48      13.2  T
   8   -182.3242779 -0.334422E-07  0.471E-04    0.48      22.1  T
     SCC iter.                  ...        0 min,  0.077 sec
     gradient                   ...        0 min,  0.016 sec
 * total energy  :  -179.7140446 Eh     change       -0.4706485E-03 Eh
   gradient norm :     0.0071766 Eh/α   predicted    -0.4425003E-03 (  -5.98%)
   displ. norm   :     0.3837796 α      lambda       -0.3853350E-03
   maximum displ.:     0.1752507 α      in ANC's #1, #5, #10, ...

........................................................................
.............................. CYCLE   28 ..............................
........................................................................
   1   -182.3257080 -0.182326E+03  0.115E-01    0.48       0.0  T
   2   -182.3257141 -0.607184E-05  0.630E-02    0.48       1.0  T
   3   -182.3255977  0.116358E-03  0.271E-02    0.48       1.0  T
   4   -182.3257068 -0.109113E-03  0.105E-02    0.48       1.0  T
   5   -182.3257172 -0.104058E-04  0.519E-03    0.48       2.0  T
   6   -182.3257201 -0.286961E-05  0.963E-04    0.48      10.8  T
   7   -182.3257202 -0.684557E-07  0.472E-04    0.48      22.1  T
     SCC iter.                  ...        0 min,  0.067 sec
     gradient                   ...        0 min,  0.016 sec
 * total energy  :  -179.7143634 Eh     change       -0.3188058E-03 Eh
   gradient norm :     0.0048460 Eh/α   predicted    -0.2210452E-03 ( -30.66%)
   displ. norm   :     0.6948364 α      lambda       -0.5667728E-03
   maximum displ.:     0.3288493 α      in ANC's #1, #5, #10, ...

........................................................................
.............................. CYCLE   29 ..............................
........................................................................
   1   -182.3255776 -0.182326E+03  0.198E-01    0.48       0.0  T
   2   -182.3255917 -0.140894E-04  0.107E-01    0.47       1.0  T
   3   -182.3250874  0.504288E-03  0.552E-02    0.48       1.0  T
   4   -182.3255837 -0.496372E-03  0.170E-02    0.48       1.0  T
   5   -182.3256045 -0.207912E-04  0.868E-03    0.47       1.2  T
   6   -182.3256140 -0.941785E-05  0.160E-03    0.47       6.5  T
   7   -182.3256141 -0.183692E-06  0.760E-04    0.47      13.7  T
   8   -182.3256141 -0.585672E-08  0.451E-04    0.47      23.1  T
     SCC iter.                  ...        0 min,  0.080 sec
     gradient                   ...        0 min,  0.017 sec
 * total energy  :  -179.7148537 Eh     change       -0.4903008E-03 Eh
   gradient norm :     0.0060189 Eh/α   predicted    -0.4202103E-03 ( -14.30%)
   displ. norm   :     0.7680049 α      lambda       -0.5990054E-03
   maximum displ.:     0.3677234 α      in ANC's #1, #5, #10, ...

........................................................................
.............................. CYCLE   30 ..............................
........................................................................
   1   -182.3258293 -0.182326E+03  0.206E-01    0.47       0.0  T
   2   -182.3258369 -0.751345E-05  0.112E-01    0.47       1.0  T
   3   -182.3249873  0.849584E-03  0.706E-02    0.47       1.0  T
   4   -182.3258448 -0.857538E-03  0.167E-02    0.47       1.0  T
   5   -182.3258592 -0.144110E-04  0.896E-03    0.47       1.2  T
   6   -182.3258696 -0.103678E-04  0.163E-03    0.47       6.4  T
   7   -182.3258698 -0.192884E-06  0.818E-04    0.47      12.7  T
   8   -182.3258698 -0.153125E-07  0.509E-04    0.47      20.5  T
     SCC iter.                  ...        0 min,  0.076 sec
     gradient                   ...        0 min,  0.016 sec
 * total energy  :  -179.7153966 Eh     change       -0.5428618E-03 Eh
   gradient norm :     0.0059307 Eh/α   predicted    -0.4761604E-03 ( -12.29%)
   displ. norm   :     0.7858310 α      lambda       -0.6403747E-03
   maximum displ.:     0.3708178 α      in ANC's #1, #5, #10, ...

........................................................................
.............................. CYCLE   31 ..............................
........................................................................
   1   -182.3281015 -0.182328E+03  0.199E-01    0.47       0.0  T
   2   -182.3280869  0.145491E-04  0.109E-01    0.47       1.0  T
   3   -182.3264676  0.161938E-02  0.961E-02    0.47       1.0  T
   4   -182.3281295 -0.166195E-02  0.149E-02    0.47       1.0  T
   5   -182.3281359 -0.635491E-05  0.911E-03    0.47       1.1  T
   6   -182.3281440 -0.811548E-05  0.190E-03    0.47       5.5  T
   7   -182.3281443 -0.343416E-06  0.773E-04    0.47      13.5  T
   8   -182.3281443 -0.103144E-07  0.484E-04    0.47      21.5  T
     SCC iter.                  ...        0 min,  0.076 sec
     gradient                   ...        0 min,  0.016 sec
 * total energy  :  -179.7159719 Eh     change       -0.5753016E-03 Eh
   gradient norm :     0.0059650 Eh/α   predicted    -0.5179182E-03 (  -9.97%)
   displ. norm   :     0.8289443 α      lambda       -0.6534350E-03
   maximum displ.:     0.3856287 α      in ANC's #1, #5, #10, ...

........................................................................
.............................. CYCLE   32 ..............................
........................................................................
   1   -182.3275573 -0.182328E+03  0.207E-01    0.46       0.0  T
   2   -182.3275431  0.142487E-04  0.115E-01    0.47       1.0  T
   3   -182.3257924  0.175066E-02  0.995E-02    0.47       1.0  T
   4   -182.3275890 -0.179654E-02  0.154E-02    0.47       1.0  T
   5   -182.3275940 -0.500342E-05  0.103E-02    0.47       1.0  T
   6   -182.3276037 -0.977883E-05  0.182E-03    0.47       5.7  T
   7   -182.3276040 -0.266964E-06  0.859E-04    0.47      12.1  T
   8   -182.3276040 -0.200707E-07  0.488E-04    0.47      21.3  T
     SCC iter.                  ...        0 min,  0.076 sec
     gradient                   ...        0 min,  0.016 sec
 * total energy  :  -179.7165453 Eh     change       -0.5733678E-03 Eh
   gradient norm :     0.0059926 Eh/α   predicted    -0.5512271E-03 (  -3.86%)
   displ. norm   :     0.8309688 α      lambda       -0.6472622E-03
   maximum displ.:     0.3727762 α      in ANC's #1, #5, #7, ...

........................................................................
.............................. CYCLE   33 ..............................
........................................................................
   1   -182.3277123 -0.182328E+03  0.200E-01    0.46       0.0  T
   2   -182.3276895  0.228224E-04  0.111E-01    0.46       1.0  T
   3   -182.3257046  0.198487E-02  0.105E-01    0.46       1.0  T
   4   -182.3277447 -0.204011E-02  0.146E-02    0.46       1.0  T
   5   -182.3277491 -0.441239E-05  0.960E-03    0.46       1.1  T
   6   -182.3277564 -0.723536E-05  0.212E-03    0.46       4.9  T
   7   -182.3277568 -0.492402E-06  0.816E-04    0.46      12.8  T
   8   -182.3277569 -0.201776E-07  0.464E-04    0.46      22.5  T
     SCC iter.                  ...        0 min,  0.076 sec
     gradient                   ...        0 min,  0.016 sec
 * total energy  :  -179.7171127 Eh     change       -0.5673969E-03 Eh
   gradient norm :     0.0058744 Eh/α   predicted    -0.5471032E-03 (  -3.58%)
   displ. norm   :     0.8379306 α      lambda       -0.5875370E-03
   maximum displ.:     0.3681623 α      in ANC's #1, #5, #7, ...

........................................................................
.............................. CYCLE   34 ..............................
........................................................................
   1   -182.3283414 -0.182328E+03  0.197E-01    0.46       0.0  T
   2   -182.3283223  0.191414E-04  0.110E-01    0.46       1.0  T
   3   -182.3264984  0.182389E-02  0.101E-01    0.46       1.0  T
   4   -182.3283711 -0.187273E-02  0.141E-02    0.46       1.0  T
   5   -182.3283760 -0.483522E-05  0.916E-03    0.46       1.1  T
   6   -182.3283819 -0.594462E-05  0.204E-03    0.46       5.1  T
   7   -182.3283824 -0.462038E-06  0.847E-04    0.46      12.3  T
   8   -182.3283824 -0.266112E-07  0.460E-04    0.46      22.7  T
     SCC iter.                  ...        0 min,  0.076 sec
     gradient                   ...        0 min,  0.016 sec
 * total energy  :  -179.7176474 Eh     change       -0.5347424E-03 Eh
   gradient norm :     0.0052337 Eh/α   predicted    -0.5000379E-03 (  -6.49%)
   displ. norm   :     0.8435425 α      lambda       -0.5651029E-03
   maximum displ.:     0.3838327 α      in ANC's #1, #5, #7, ...

........................................................................
.............................. CYCLE   35 ..............................
........................................................................
   1   -182.3265179 -0.182327E+03  0.198E-01    0.46       0.0  T
   2   -182.3265054  0.125825E-04  0.110E-01    0.46       1.0  T
   3   -182.3248929  0.161245E-02  0.946E-02    0.46       1.0  T
   4   -182.3265441 -0.165117E-02  0.145E-02    0.46       1.0  T
   5   -182.3265522 -0.812285E-05  0.897E-03    0.46       1.2  T
   6   -182.3265580 -0.580964E-05  0.207E-03    0.46       5.0  T
   7   -182.3265584 -0.391237E-06  0.863E-04    0.46      12.1  T
   8   -182.3265584 -0.308023E-07  0.496E-04    0.46      21.0  T
     SCC iter.                  ...        0 min,  0.076 sec
     gradient                   ...        0 min,  0.016 sec
 * total energy  :  -179.7181537 Eh     change       -0.5063332E-03 Eh
   gradient norm :     0.0057805 Eh/α   predicted    -0.4836103E-03 (  -4.49%)
   displ. norm   :     0.8277612 α      lambda       -0.5241460E-03
   maximum displ.:     0.3640160 α      in ANC's #5, #1, #7, ...

........................................................................
.............................. CYCLE   36 ..............................
........................................................................
   1   -182.3326314 -0.182333E+03  0.182E-01    0.46       0.0  T
   2   -182.3326059  0.254698E-04  0.103E-01    0.46       1.0  T
   3   -182.3307153  0.189062E-02  0.102E-01    0.46       1.0  T
   4   -182.3326549 -0.193959E-02  0.136E-02    0.46       1.0  T
   5   -182.3326618 -0.691183E-05  0.820E-03    0.46       1.3  T
   6   -182.3326660 -0.416490E-05  0.209E-03    0.46       5.0  T
   7   -182.3326664 -0.458728E-06  0.806E-04    0.46      12.9  T
   8   -182.3326664 -0.334882E-07  0.452E-04    0.46      23.1  T
     SCC iter.                  ...        0 min,  0.076 sec
     gradient                   ...        0 min,  0.016 sec
 * total energy  :  -179.7185966 Eh     change       -0.4428997E-03 Eh
   gradient norm :     0.0062638 Eh/α   predicted    -0.4416461E-03 (  -0.28%)
   displ. norm   :     0.8729204 α      lambda       -0.5056819E-03
   maximum displ.:     0.4088344 α      in ANC's #1, #5, #7, ...

........................................................................
.............................. CYCLE   37 ..............................
........................................................................
   1   -182.3210783 -0.182321E+03  0.212E-01    0.45       0.0  T
   2   -182.3210912 -0.129269E-04  0.117E-01    0.45       1.0  T
   3   -182.3203747  0.716494E-03  0.649E-02    0.46       1.0  T
   4   -182.3210743 -0.699626E-03  0.194E-02    0.45       1.0  T
   5   -182.3211032 -0.288900E-04  0.119E-02    0.45       1.0  T
   6   -182.3211197 -0.164870E-04  0.244E-03    0.45       4.3  T
   7   -182.3211202 -0.519239E-06  0.921E-04    0.45      11.3  T
   8   -182.3211203 -0.184658E-07  0.561E-04    0.45      18.6  T
     SCC iter.                  ...        0 min,  0.076 sec
     gradient                   ...        0 min,  0.016 sec
 * total energy  :  -179.7189818 Eh     change       -0.3851892E-03 Eh
   gradient norm :     0.0078461 Eh/α   predicted    -0.4455081E-03 (  15.66%)
   displ. norm   :     0.6963190 α      lambda       -0.4422833E-03
   maximum displ.:     0.3182676 α      in ANC's #5, #1, #7, ...

........................................................................
.............................. CYCLE   38 ..............................
........................................................................
   1   -182.3252315 -0.182325E+03  0.155E-01    0.45       0.0  T
   2   -182.3251825  0.489717E-04  0.885E-02    0.45       1.0  T
   3   -182.3228458  0.233667E-02  0.113E-01    0.45       1.0  T
   4   -182.3252576 -0.241173E-02  0.110E-02    0.45       1.0  T
   5   -182.3252603 -0.269596E-05  0.718E-03    0.45       1.5  T
   6   -182.3252637 -0.340340E-05  0.203E-03    0.45       5.1  T
   7   -182.3252642 -0.482558E-06  0.834E-04    0.45      12.5  T
   8   -182.3252642 -0.496289E-07  0.409E-04    0.45      25.5  T
     SCC iter.                  ...        0 min,  0.076 sec
     gradient                   ...        0 min,  0.016 sec
 * total energy  :  -179.7193189 Eh     change       -0.3370735E-03 Eh
   gradient norm :     0.0140634 Eh/α   predicted    -0.3283669E-03 (  -2.58%)
   displ. norm   :     0.6727986 α      lambda       -0.5593162E-03
   maximum displ.:     0.3140511 α      in ANC's #1, #5, #3, ...

........................................................................
.............................. CYCLE   39 ..............................
........................................................................
   1   -182.3322656 -0.182332E+03  0.150E-01    0.45       0.0  T
   2   -182.3322750 -0.939748E-05  0.830E-02    0.45       1.0  T
   3   -182.3320560  0.218988E-03  0.369E-02    0.45       1.0  T
   4   -182.3322438 -0.187790E-03  0.169E-02    0.45       1.0  T
   5   -182.3322758 -0.319802E-04  0.934E-03    0.45       1.1  T
   6   -182.3322852 -0.941979E-05  0.174E-03    0.45       6.0  T
   7   -182.3322854 -0.233475E-06  0.708E-04    0.45      14.7  T
   8   -182.3322854 -0.268365E-07  0.416E-04    0.45      25.1  T
     SCC iter.                  ...        0 min,  0.076 sec
     gradient                   ...        0 min,  0.016 sec
 * total energy  :  -179.7196413 Eh     change       -0.3224119E-03 Eh
   gradient norm :     0.0151287 Eh/α   predicted    -0.4062484E-03 (  26.00%)
   displ. norm   :     0.7029336 α      lambda       -0.4409713E-03
   maximum displ.:     0.3261708 α      in ANC's #1, #5, #7, ...

........................................................................
.............................. CYCLE   40 ..............................
........................................................................
   1   -182.3282981 -0.182328E+03  0.163E-01    0.45       0.0  T
   2   -182.3282872  0.109205E-04  0.910E-02    0.45       1.0  T
   3   -182.3270995  0.118770E-02  0.813E-02    0.45       1.0  T
   4   -182.3283130 -0.121349E-02  0.124E-02    0.45       1.0  T
   5   -182.3283190 -0.596522E-05  0.771E-03    0.45       1.4  T
   6   -182.3283246 -0.561112E-05  0.154E-03    0.45       6.8  T
   7   -182.3283248 -0.202499E-06  0.739E-04    0.45      14.1  T
   8   -182.3283248 -0.227490E-07  0.419E-04    0.45      24.9  T
     SCC iter.                  ...        0 min,  0.077 sec
     gradient                   ...        0 min,  0.016 sec
 * total energy  :  -179.7200094 Eh     change       -0.3681307E-03 Eh
   gradient norm :     0.0068975 Eh/α   predicted    -0.3294368E-03 ( -10.51%)
   displ. norm   :     0.6976068 α      lambda       -0.4403233E-03
   maximum displ.:     0.3227937 α      in ANC's #1, #5, #3, ...

........................................................................
.............................. CYCLE   41 ..............................
........................................................................
   1   -182.3298622 -0.182330E+03  0.162E-01    0.45       0.0  T
   2   -182.3298541  0.819076E-05  0.901E-02    0.45       1.0  T
   3   -182.3287286  0.112545E-02  0.790E-02    0.45       1.0  T
   4   -182.3298775 -0.114888E-02  0.127E-02    0.45       1.0  T
   5   -182.3298845 -0.696010E-05  0.780E-03    0.45       1.3  T
   6   -182.3298899 -0.542475E-05  0.194E-03    0.45       5.4  T
   7   -182.3298903 -0.369698E-06  0.871E-04    0.45      12.0  T
   8   -182.3298903 -0.493048E-07  0.470E-04    0.45      22.2  T
     SCC iter.                  ...        0 min,  0.076 sec
     gradient                   ...        0 min,  0.016 sec
 * total energy  :  -179.7203440 Eh     change       -0.3345145E-03 Eh
   gradient norm :     0.0109911 Eh/α   predicted    -0.3273074E-03 (  -2.15%)
   displ. norm   :     0.7956804 α      lambda       -0.3899887E-03
   maximum displ.:     0.3870350 α      in ANC's #1, #5, #3, ...

........................................................................
.............................. CYCLE   42 ..............................
........................................................................
   1   -182.3269689 -0.182327E+03  0.177E-01    0.45       0.0  T
   2   -182.3269629  0.599049E-05  0.997E-02    0.45       1.0  T
   3   -182.3258658  0.109712E-02  0.785E-02    0.45       1.0  T
   4   -182.3269763 -0.111053E-02  0.150E-02    0.45       1.0  T
   5   -182.3269906 -0.143185E-04  0.825E-03    0.45       1.3  T
   6   -182.3269969 -0.625847E-05  0.164E-03    0.45       6.4  T
   7   -182.3269972 -0.285294E-06  0.745E-04    0.45      14.0  T
   8   -182.3269972 -0.154643E-07  0.403E-04    0.45      25.9  T
     SCC iter.                  ...        0 min,  0.076 sec
     gradient                   ...        0 min,  0.016 sec
 * total energy  :  -179.7206805 Eh     change       -0.3365005E-03 Eh
   gradient norm :     0.0102920 Eh/α   predicted    -0.3184487E-03 (  -5.36%)
   displ. norm   :     0.6770257 α      lambda       -0.4723329E-03
   maximum displ.:     0.3345095 α      in ANC's #1, #5, #3, ...
 * RMSD in coord.:     1.3122745 α      energy gain  -0.8447898E-02 Eh

generating ANC from model Hessian ...
Using Lindh-Hessian (1995)
 Shifting diagonal of input Hessian by   5.000055646839280E-003
 Lowest  eigenvalues of input Hessian
    0.005000   -0.000000   -0.000000   -0.000000    0.000000    0.000000
    0.000000    0.005012    0.005034    0.005068    0.005100    0.005127
    0.005244    0.005280    0.005379    0.005469    0.005722    0.005790
 Highest eigenvalues
    2.270603    2.271707    2.607307    2.643477    2.647706    2.652098
 

........................................................................
.............................. CYCLE   43 ..............................
........................................................................
   1   -182.3347083 -0.182335E+03  0.149E-01    0.45       0.0  T
   2   -182.3347185 -0.102843E-04  0.831E-02    0.45       1.0  T
   3   -182.3345174  0.201176E-03  0.365E-02    0.45       1.0  T
   4   -182.3346567 -0.139318E-03  0.212E-02    0.45       1.0  T
   5   -182.3347191 -0.623936E-04  0.981E-03    0.45       1.1  T
   6   -182.3347288 -0.967626E-05  0.295E-03    0.45       3.5  T
   7   -182.3347297 -0.958869E-06  0.882E-04    0.45      11.8  T
   8   -182.3347298 -0.511088E-07  0.499E-04    0.45      20.9  T
     SCC iter.                  ...        0 min,  0.075 sec
     gradient                   ...        0 min,  0.017 sec
 * total energy  :  -179.7210051 Eh     change       -0.3246652E-03 Eh
   gradient norm :     0.0076220 Eh/α   predicted     0.0000000E+00 (-100.00%)
   displ. norm   :     0.1748447 α      lambda       -0.2677926E-03
   maximum displ.:     0.1083357 α      in ANC's #1, #10, #16, ...

........................................................................
.............................. CYCLE   44 ..............................
........................................................................
   1   -182.3297489 -0.182330E+03  0.140E-01    0.45       0.0  T
   2   -182.3297593 -0.104103E-04  0.775E-02    0.45       1.0  T
   3   -182.3293358  0.423473E-03  0.498E-02    0.45       1.0  T
   4   -182.3297650 -0.429238E-03  0.949E-03    0.45       1.1  T
   5   -182.3297779 -0.128784E-04  0.300E-03    0.45       3.5  T
   6   -182.3297783 -0.352598E-06  0.167E-03    0.45       6.2  T
   7   -182.3297786 -0.313354E-06  0.547E-04    0.45      19.1  T
     SCC iter.                  ...        0 min,  0.067 sec
     gradient                   ...        0 min,  0.016 sec
 * total energy  :  -179.7208513 Eh     change        0.1537811E-03 Eh
   gradient norm :     0.0142637 Eh/α   predicted    -0.1380772E-03 (-189.79%)
   displ. norm   :     0.1307604 α      lambda       -0.7192576E-03
   maximum displ.:     0.0545500 α      in ANC's #9, #16, #8, ...

........................................................................
.............................. CYCLE   45 ..............................
........................................................................
   1   -182.3309594 -0.182331E+03  0.102E-01    0.45       0.0  T
   2   -182.3309674 -0.796873E-05  0.565E-02    0.45       1.0  T
   3   -182.3308897  0.777007E-04  0.240E-02    0.45       1.0  T
   4   -182.3309594 -0.696520E-04  0.947E-03    0.45       1.1  T
   5   -182.3309737 -0.143095E-04  0.327E-03    0.45       3.2  T
   6   -182.3309744 -0.789618E-06  0.145E-03    0.45       7.2  T
   7   -182.3309747 -0.214851E-06  0.508E-04    0.45      20.5  T
     SCC iter.                  ...        0 min,  0.067 sec
     gradient                   ...        0 min,  0.016 sec
 * total energy  :  -179.7211539 Eh     change       -0.3025996E-03 Eh
   gradient norm :     0.0073011 Eh/α   predicted    -0.3657770E-03 (  20.88%)
   displ. norm   :     0.1186092 α      lambda       -0.2957765E-03
   maximum displ.:     0.0750882 α      in ANC's #47, #1, #5, ...

........................................................................
.............................. CYCLE   46 ..............................
........................................................................
   1   -182.3321076 -0.182332E+03  0.971E-02    0.45       0.0  T
   2   -182.3321146 -0.701290E-05  0.538E-02    0.45       1.0  T
   3   -182.3320124  0.102246E-03  0.247E-02    0.45       1.0  T
   4   -182.3321103 -0.979019E-04  0.825E-03    0.45       1.3  T
   5   -182.3321212 -0.108925E-04  0.188E-03    0.45       5.6  T
   6   -182.3321212 -0.224181E-07  0.944E-04    0.45      11.0  T
   7   -182.3321212 -0.659252E-07  0.344E-04    0.45      30.3  T
     SCC iter.                  ...        0 min,  0.066 sec
     gradient                   ...        0 min,  0.016 sec
 * total energy  :  -179.7210798 Eh     change        0.7418507E-04 Eh
   gradient norm :     0.0070589 Eh/α   predicted    -0.1499745E-03 (-302.16%)
   displ. norm   :     0.0871546 α      lambda       -0.3635041E-03
   maximum displ.:     0.0492105 α      in ANC's #47, #1, #9, ...

........................................................................
.............................. CYCLE   47 ..............................
........................................................................
   1   -182.3331159 -0.182333E+03  0.698E-02    0.45       0.0  T
   2   -182.3331196 -0.375770E-05  0.386E-02    0.45       1.0  T
   3   -182.3330805  0.390919E-04  0.160E-02    0.45       1.0  T
   4   -182.3331170 -0.365012E-04  0.584E-03    0.45       1.8  T
   5   -182.3331228 -0.579565E-05  0.116E-03    0.45       9.0  T
   6   -182.3331228 -0.152245E-07  0.466E-04    0.45      22.4  T
   7   -182.3331229 -0.212081E-07  0.165E-04    0.45      63.1  T
     SCC iter.                  ...        0 min,  0.067 sec
     gradient                   ...        0 min,  0.016 sec
 * total energy  :  -179.7212869 Eh     change       -0.2071548E-03 Eh
   gradient norm :     0.0034673 Eh/α   predicted    -0.1831333E-03 ( -11.60%)
   displ. norm   :     0.1362010 α      lambda       -0.9287653E-04
   maximum displ.:     0.0873439 α      in ANC's #1, #5, #9, ...

........................................................................
.............................. CYCLE   48 ..............................
........................................................................
   1   -182.3316270 -0.182332E+03  0.424E-02    0.45       0.0  T
   2   -182.3316281 -0.111061E-05  0.239E-02    0.45       1.0  T
   3   -182.3316203  0.778418E-05  0.739E-03    0.45       1.4  T
   4   -182.3316267 -0.638822E-05  0.363E-03    0.45       2.9  T
   5   -182.3316285 -0.171905E-05  0.176E-03    0.45       5.9  T
   6   -182.3316288 -0.341406E-06  0.607E-04    0.45      17.2  T
   7   -182.3316288 -0.430624E-07  0.235E-04    0.45      44.3  T
     SCC iter.                  ...        0 min,  0.065 sec
     gradient                   ...        0 min,  0.017 sec
 * total energy  :  -179.7213606 Eh     change       -0.7368338E-04 Eh
   gradient norm :     0.0024385 Eh/α   predicted    -0.4730286E-04 ( -35.80%)
   displ. norm   :     0.2770454 α      lambda       -0.1434874E-03
   maximum displ.:     0.1654350 α      in ANC's #1, #5, #9, ...

........................................................................
.............................. CYCLE   49 ..............................
........................................................................
   1   -182.3307823 -0.182331E+03  0.724E-02    0.45       0.0  T
   2   -182.3307852 -0.290714E-05  0.413E-02    0.45       1.0  T
   3   -182.3307807  0.452778E-05  0.783E-03    0.45       1.3  T
   4   -182.3307852 -0.448363E-05  0.381E-03    0.45       2.7  T
   5   -182.3307839  0.125680E-05  0.406E-03    0.45       2.6  T
   6   -182.3307866 -0.268764E-05  0.116E-03    0.45       9.0  T
   7   -182.3307868 -0.203511E-06  0.363E-04    0.45      28.7  T
   8   -182.3307868 -0.419419E-08  0.196E-04    0.45      53.3  T
     SCC iter.                  ...        0 min,  0.076 sec
     gradient                   ...        0 min,  0.017 sec
 * total energy  :  -179.7214869 Eh     change       -0.1262913E-03 Eh
   gradient norm :     0.0048097 Eh/α   predicted    -0.7725152E-04 ( -38.83%)
   displ. norm   :     0.4764901 α      lambda       -0.2360869E-03
   maximum displ.:     0.2796295 α      in ANC's #1, #5, #9, ...

........................................................................
.............................. CYCLE   50 ..............................
........................................................................
   1   -182.3303733 -0.182330E+03  0.116E-01    0.45       0.0  T
   2   -182.3303801 -0.675186E-05  0.666E-02    0.45       1.0  T
   3   -182.3303699  0.101794E-04  0.114E-02    0.45       1.0  T
   4   -182.3303792 -0.931774E-05  0.598E-03    0.45       1.7  T
   5   -182.3303757  0.348868E-05  0.682E-03    0.45       1.5  T
   6   -182.3303835 -0.783091E-05  0.142E-03    0.45       7.3  T
   7   -182.3303837 -0.205048E-06  0.582E-04    0.45      17.9  T
   8   -182.3303838 -0.134176E-07  0.310E-04    0.45      33.6  T
     SCC iter.                  ...        0 min,  0.076 sec
     gradient                   ...        0 min,  0.016 sec
 * total energy  :  -179.7216883 Eh     change       -0.2014562E-03 Eh
   gradient norm :     0.0046295 Eh/α   predicted    -0.1448472E-03 ( -28.10%)
   displ. norm   :     0.5932220 α      lambda       -0.2829737E-03
   maximum displ.:     0.3572567 α      in ANC's #1, #5, #9, ...

........................................................................
.............................. CYCLE   51 ..............................
........................................................................
   1   -182.3297059 -0.182330E+03  0.140E-01    0.45       0.0  T
   2   -182.3297147 -0.881945E-05  0.802E-02    0.45       1.0  T
   3   -182.3296676  0.471658E-04  0.194E-02    0.45       1.0  T
   4   -182.3297053 -0.376900E-04  0.986E-03    0.45       1.1  T
   5   -182.3297155 -0.102615E-04  0.595E-03    0.45       1.8  T
   6   -182.3297203 -0.479805E-05  0.160E-03    0.45       6.5  T
   7   -182.3297206 -0.273618E-06  0.647E-04    0.45      16.1  T
   8   -182.3297206 -0.927929E-08  0.368E-04    0.45      28.3  T
     SCC iter.                  ...        0 min,  0.076 sec
     gradient                   ...        0 min,  0.016 sec
 * total energy  :  -179.7219230 Eh     change       -0.2346167E-03 Eh
   gradient norm :     0.0044399 Eh/α   predicted    -0.1912816E-03 ( -18.47%)
   displ. norm   :     0.6153460 α      lambda       -0.2870269E-03
   maximum displ.:     0.3833348 α      in ANC's #1, #5, #9, ...

........................................................................
.............................. CYCLE   52 ..............................
........................................................................
   1   -182.3298782 -0.182330E+03  0.139E-01    0.45       0.0  T
   2   -182.3298843 -0.608585E-05  0.794E-02    0.45       1.0  T
   3   -182.3296901  0.194199E-03  0.340E-02    0.45       1.0  T
   4   -182.3298794 -0.189293E-03  0.970E-03    0.45       1.1  T
   5   -182.3298904 -0.109514E-04  0.499E-03    0.45       2.1  T
   6   -182.3298927 -0.228196E-05  0.156E-03    0.45       6.7  T
   7   -182.3298929 -0.231615E-06  0.606E-04    0.45      17.2  T
     SCC iter.                  ...        0 min,  0.067 sec
     gradient                   ...        0 min,  0.016 sec
 * total energy  :  -179.7221766 Eh     change       -0.2536093E-03 Eh
   gradient norm :     0.0037996 Eh/α   predicted    -0.1978591E-03 ( -21.98%)
   displ. norm   :     0.6407728 α      lambda       -0.3353234E-03
   maximum displ.:     0.4111023 α      in ANC's #1, #5, #9, ...

........................................................................
.............................. CYCLE   53 ..............................
........................................................................
   1   -182.3323740 -0.182332E+03  0.139E-01    0.45       0.0  T
   2   -182.3323734  0.603403E-06  0.792E-02    0.46       1.0  T
   3   -182.3318280  0.545342E-03  0.548E-02    0.45       1.0  T
   4   -182.3323806 -0.552571E-03  0.930E-03    0.45       1.1  T
   5   -182.3323877 -0.706860E-05  0.522E-03    0.46       2.0  T
   6   -182.3323897 -0.205366E-05  0.173E-03    0.45       6.0  T
   7   -182.3323900 -0.315654E-06  0.622E-04    0.45      16.8  T
   8   -182.3323900 -0.765436E-08  0.380E-04    0.45      27.4  T
     SCC iter.                  ...        0 min,  0.075 sec
     gradient                   ...        0 min,  0.017 sec
 * total energy  :  -179.7224739 Eh     change       -0.2973570E-03 Eh
   gradient norm :     0.0035139 Eh/α   predicted    -0.2365082E-03 ( -20.46%)
   displ. norm   :     0.7410761 α      lambda       -0.3663108E-03
   maximum displ.:     0.4844365 α      in ANC's #1, #5, #3, ...

........................................................................
.............................. CYCLE   54 ..............................
........................................................................
   1   -182.3324258 -0.182332E+03  0.162E-01    0.45       0.0  T
   2   -182.3324147  0.111381E-04  0.924E-02    0.46       1.0  T
   3   -182.3312140  0.120069E-02  0.805E-02    0.45       1.0  T
   4   -182.3324428 -0.122882E-02  0.939E-03    0.45       1.1  T
   5   -182.3324458 -0.296932E-05  0.615E-03    0.46       1.7  T
   6   -182.3324487 -0.295763E-05  0.187E-03    0.46       5.6  T
   7   -182.3324491 -0.346358E-06  0.732E-04    0.46      14.3  T
   8   -182.3324491 -0.132424E-07  0.400E-04    0.46      26.1  T
     SCC iter.                  ...        0 min,  0.075 sec
     gradient                   ...        0 min,  0.017 sec
 * total energy  :  -179.7228022 Eh     change       -0.3282750E-03 Eh
   gradient norm :     0.0037126 Eh/α   predicted    -0.2837454E-03 ( -13.56%)
   displ. norm   :     0.8009905 α      lambda       -0.3652227E-03
   maximum displ.:     0.5246229 α      in ANC's #1, #5, #3, ...

........................................................................
.............................. CYCLE   55 ..............................
........................................................................
   1   -182.3320645 -0.182332E+03  0.170E-01    0.45       0.0  T
   2   -182.3320562  0.829739E-05  0.967E-02    0.46       1.0  T
   3   -182.3309553  0.110093E-02  0.773E-02    0.45       1.0  T
   4   -182.3320799 -0.112467E-02  0.104E-02    0.45       1.0  T
   5   -182.3320830 -0.308324E-05  0.689E-03    0.46       1.5  T
   6   -182.3320875 -0.445819E-05  0.188E-03    0.46       5.5  T
   7   -182.3320878 -0.363148E-06  0.767E-04    0.46      13.6  T
   8   -182.3320878 -0.148152E-07  0.414E-04    0.46      25.2  T
     SCC iter.                  ...        0 min,  0.075 sec
     gradient                   ...        0 min,  0.017 sec
 * total energy  :  -179.7231289 Eh     change       -0.3267177E-03 Eh
   gradient norm :     0.0041062 Eh/α   predicted    -0.2997748E-03 (  -8.25%)
   displ. norm   :     0.7784106 α      lambda       -0.3333447E-03
   maximum displ.:     0.5233199 α      in ANC's #1, #5, #3, ...

........................................................................
.............................. CYCLE   56 ..............................
........................................................................
   1   -182.3319104 -0.182332E+03  0.164E-01    0.45       0.0  T
   2   -182.3319013  0.915569E-05  0.929E-02    0.46       1.0  T
   3   -182.3308043  0.109704E-02  0.771E-02    0.45       1.0  T
   4   -182.3319269 -0.112261E-02  0.980E-03    0.46       1.1  T
   5   -182.3319281 -0.123218E-05  0.637E-03    0.46       1.6  T
   6   -182.3319325 -0.439872E-05  0.175E-03    0.46       6.0  T
   7   -182.3319328 -0.355169E-06  0.758E-04    0.46      13.8  T
   8   -182.3319329 -0.191136E-07  0.412E-04    0.46      25.3  T
     SCC iter.                  ...        0 min,  0.076 sec
     gradient                   ...        0 min,  0.016 sec
 * total energy  :  -179.7234225 Eh     change       -0.2936219E-03 Eh
   gradient norm :     0.0039794 Eh/α   predicted    -0.2676658E-03 (  -8.84%)
   displ. norm   :     0.7820559 α      lambda       -0.3141273E-03
   maximum displ.:     0.5252740 α      in ANC's #1, #5, #3, ...

........................................................................
.............................. CYCLE   57 ..............................
........................................................................
   1   -182.3322871 -0.182332E+03  0.159E-01    0.46       0.0  T
   2   -182.3322887 -0.157892E-05  0.901E-02    0.46       1.0  T
   3   -182.3317219  0.566799E-03  0.561E-02    0.45       1.0  T
   4   -182.3322903 -0.568396E-03  0.120E-02    0.46       1.0  T
   5   -182.3323019 -0.116105E-04  0.633E-03    0.46       1.6  T
   6   -182.3323058 -0.393858E-05  0.220E-03    0.46       4.7  T
   7   -182.3323065 -0.618137E-06  0.770E-04    0.46      13.5  T
   8   -182.3323065 -0.180459E-07  0.480E-04    0.46      21.7  T
     SCC iter.                  ...        0 min,  0.079 sec
     gradient                   ...        0 min,  0.018 sec
 * total energy  :  -179.7236935 Eh     change       -0.2709515E-03 Eh
   gradient norm :     0.0034671 Eh/α   predicted    -0.2531335E-03 (  -6.58%)
   displ. norm   :     0.7401548 α      lambda       -0.2919847E-03
   maximum displ.:     0.5012825 α      in ANC's #1, #5, #3, ...

........................................................................
.............................. CYCLE   58 ..............................
........................................................................
   1   -182.3321807 -0.182332E+03  0.148E-01    0.46       0.0  T
   2   -182.3321847 -0.400770E-05  0.835E-02    0.46       1.0  T
   3   -182.3318531  0.331593E-03  0.434E-02    0.46       1.0  T
   4   -182.3321802 -0.327121E-03  0.114E-02    0.46       1.0  T
   5   -182.3321902 -0.996876E-05  0.660E-03    0.46       1.6  T
   6   -182.3321958 -0.561175E-05  0.171E-03    0.46       6.1  T
   7   -182.3321962 -0.345041E-06  0.708E-04    0.46      14.7  T
   8   -182.3321962 -0.186056E-07  0.399E-04    0.46      26.1  T
     SCC iter.                  ...        0 min,  0.076 sec
[...]
       171                         -0.2507212              -6.8225
       172                         -0.2427652              -6.6060
       ...                                ...                  ...
       310                          1.1611424              31.5963
      -------------------------------------------------------------
                  HL-Gap            0.0149979 Eh            0.4081 eV
             Fermi-level           -0.3482882 Eh           -9.4774 eV

     #   Z        covCN         q      C6AA      α(0)
     1   6 C      2.919    -0.054    29.342     8.883
     2   6 C      2.775     0.158    24.564     8.117
     3   9 F      0.787    -0.198    11.216     3.956
     4   6 C      2.774     0.158    24.577     8.120
     5   9 F      0.787    -0.199    11.230     3.958
     6   6 C      2.918    -0.055    29.375     8.888
     7   6 C      2.989     0.014    27.696     8.633
     8   6 C      2.987     0.017    27.628     8.622
     9   6 C      2.915    -0.028    28.690     8.783
    10   6 C      3.027     0.010    27.772     8.644
    11   6 C      3.035    -0.018    28.413     8.743
    12   6 C      2.913    -0.019    28.477     8.750
    13   6 C      2.865     0.224    23.299     7.912
    14   8 O      0.856    -0.384    21.360     6.196
    15   6 C      3.013    -0.036    28.864     8.813
    16   6 C      3.010     0.031    27.283     8.568
    17   6 C      2.947     0.001    28.013     8.681
    18   6 C      1.957     0.129    27.919     8.533
    19   7 N      0.911    -0.252    26.555     7.453
    20   6 C      1.956     0.127    27.963     8.540
    21   7 N      0.911    -0.278    27.187     7.541
    22   6 C      2.902    -0.009    28.240     8.713
    23   6 C      2.936    -0.045    29.128     8.851
    24   6 C      2.985     0.046    26.960     8.517
    25   6 C      3.074    -0.040    28.922     8.818
    26   6 C      3.061    -0.036    28.831     8.805
    27   6 C      3.041     0.020    27.518     8.604
    28  16 S      2.382    -0.040   142.722    20.107
    29   6 C      3.031     0.035    27.180     8.551
    30   6 C      3.068    -0.040    28.913     8.817
    31   6 C      3.060    -0.038    28.880     8.813
    32   6 C      2.985     0.017    27.632     8.623
    33  16 S      2.391    -0.079   144.324    20.220
    34   6 C      2.875     0.001    28.014     8.677
    35   7 N      2.726    -0.068    22.561     7.055
    36   6 C      2.936     0.057    26.727     8.479
    37  16 S      2.246     0.033   139.723    19.895
    38   6 C      2.937     0.001    28.007     8.679
    39   7 N      2.792     0.528    13.717     5.501
    40   8 O      0.933    -0.410    21.843     6.268
    41   8 O      0.935    -0.405    21.737     6.253
    42   6 C      3.069    -0.038    28.884     8.812
    43   6 C      3.094    -0.015    28.268     8.714
    44   6 C      2.897    -0.061    29.525     8.909
    45   6 C      2.897    -0.042    29.040     8.836
    46   6 C      3.006     0.014    27.674     8.629
    47   7 N      2.822    -0.074    22.681     7.073
    48   6 C      2.985     0.002    27.965     8.675
    49   6 C      3.196    -0.041    28.472     8.699
    50   6 C      3.233     0.020    26.725     8.391
    51   7 N      2.755    -0.083    22.852     7.100
    52   6 C      3.047    -0.007    28.161     8.703
    53   6 C      3.044    -0.012    28.267     8.720
    54   6 C      2.898    -0.060    29.497     8.905
    55   6 C      2.836     0.004    27.927     8.660
    56   7 N      2.720    -0.094    23.080     7.135
    57   6 C      2.931     0.072    26.389     8.425
    58  16 S      2.257     0.034   139.680    19.892
    59   6 C      2.929    -0.003    28.111     8.695
    60   7 N      2.795     0.526    13.743     5.506
    61   8 O      0.932    -0.416    21.971     6.286
    62   8 O      0.935    -0.425    22.139     6.310
    63   6 C      3.064    -0.033    28.762     8.794
    64   6 C      3.094    -0.026    28.535     8.755
    65   6 C      2.889    -0.029    28.728     8.787
    66   6 C      2.836    -0.087    30.169     9.001
    67   1 H      0.926     0.079     1.989     2.205
    68   1 H      0.926     0.076     2.025     2.225
    69   1 H      0.926     0.064     2.154     2.295
    70   1 H      0.926     0.064     2.148     2.292
    71   1 H      0.925     0.054     2.276     2.359
    72   1 H      0.926     0.089     1.891     2.150
    73   1 H      0.926     0.054     2.266     2.354
    74   1 H      0.926     0.046     2.372     2.408
    75   1 H      0.926     0.049     2.331     2.387
    76   1 H      0.926     0.051     2.301     2.372
    77   1 H      0.926     0.078     1.996     2.209
    78   1 H      0.860     0.211     1.054     1.608
    79   1 H      0.926     0.080     1.974     2.197
    80   1 H      0.925     0.023     2.689     2.565
    81   1 H      0.926     0.046     2.372     2.408
    82   1 H      0.860     0.184     1.192     1.711
    83   1 H      0.926     0.058     2.221     2.331
    84   1 H      0.860     0.164     1.307     1.791
    85   1 H      0.926     0.040     2.445     2.445
    86   1 H      0.925     0.034     2.524     2.484
    87   1 H      0.926     0.071     2.079     2.255
    88   1 H      0.860     0.188     1.172     1.696
    89   1 H      0.926     0.080     1.976     2.198
    90   1 H      0.925     0.025     2.661     2.551
    91   1 H      0.926     0.049     2.326     2.385
    92   1 H      0.925     0.044     2.400     2.423

 Mol. C6AA /au·bohr⁶  :     159637.091417
 Mol. C8AA /au·bohr⁸  :    4416036.518857
 Mol. α(0) /au        :        639.297245


Wiberg/Mayer (AO) data.
largest (>0.10) Wiberg bond orders for each atom
          total WBO             WBO to atom ...
     1  C   3.974        C    2 1.493    C    8 1.287    H   67 0.962    C    6 0.107
     2  C   3.885        C    1 1.493    C    4 1.249    F    3 0.978
     3  F   1.113        C    2 0.978
     4  C   3.882        C    6 1.493    C    2 1.249    F    5 0.977
     5  F   1.111        C    4 0.977
     6  C   3.976        C    4 1.493    C    7 1.289    H   68 0.962    C    1 0.107
     7  C   3.980        C    6 1.289    C   12 1.266    C    8 1.243
     8  C   3.984        C    1 1.287    C    9 1.270    C    7 1.243
     9  C   3.966        C   10 1.509    C    8 1.270    H   69 0.957
    10  C   3.980        C    9 1.509    C   11 1.205    C   16 1.079
    11  C   3.976        C   12 1.530    C   10 1.205    C   13 1.016
    12  C   3.975        C   11 1.530    C    7 1.266    H   70 0.963
    13  C   3.913        O   14 1.743    C   15 1.051    C   11 1.016
    14  O   2.007        C   13 1.743
    15  C   3.883        C   22 1.425    C   16 1.183    C   13 1.051
    16  C   3.963        C   17 1.445    C   15 1.183    C   10 1.079
    17  C   3.903        C   16 1.445    C   20 1.113    C   18 1.099
    18  C   3.942        N   19 2.751    C   17 1.099
    19  N   2.953        C   18 2.751
    20  C   3.941        N   21 2.728    C   17 1.113
    21  N   2.943        C   20 2.728
    22  C   3.946        C   15 1.425    C   23 1.385    H   71 0.942
    23  C   3.892        C   24 1.390    C   22 1.385    H   72 0.943
    24  C   3.922        C   23 1.390    C   25 1.271    S   28 1.102
    25  C   3.925        C   26 1.540    C   24 1.271    H   73 0.963
    26  C   3.944        C   25 1.540    C   27 1.280    H   74 0.963
    27  C   3.918        C   29 1.353    C   26 1.280    S   28 1.096
    28  S   2.513        C   24 1.102    C   27 1.096
    29  C   3.895        C   27 1.353    C   30 1.275    S   33 1.093
    30  C   3.956        C   31 1.552    C   29 1.275    H   75 0.962
    31  C   3.911        C   30 1.552    C   32 1.251    H   76 0.962
    32  C   3.920        C   34 1.458    C   31 1.251    S   33 1.056
    33  S   2.450        C   29 1.093    C   32 1.056
    34  C   3.847        C   32 1.458    N   35 1.231    H   77 0.949
    35  N   3.546        C   34 1.231    C   36 1.205    H   78 0.895
    36  C   3.901        C   43 1.297    N   35 1.205    S   37 1.153
    37  S   2.586        C   36 1.153    C   38 1.096    C   42 0.100
    38  C   3.884        C   42 1.477    S   37 1.096    N   39 1.062
    39  N   3.892        O   41 1.394    O   40 1.393    C   38 1.062
    40  O   1.865        N   39 1.393    O   41 0.321
    41  O   1.880        N   39 1.394    O   40 0.321
    42  C   3.957        C   38 1.477    C   43 1.291    H   79 0.954    S   37 0.100
    43  C   3.942        C   36 1.297    C   42 1.291    C   44 1.169
    44  C   3.956        C   45 1.610    C   43 1.169    H   80 0.954
    45  C   3.958        C   44 1.610    C   46 1.229    H   81 0.958
    46  C   3.908        C   50 1.291    C   45 1.229    N   47 1.154    C   48 0.108
    47  N   3.587        C   48 1.290    C   46 1.154    H   82 0.937
    48  C   3.896        C   49 1.393    N   47 1.290    H   83 0.965    C   46 0.108
    49  C   3.967        C   48 1.393    C   50 1.231    C   53 1.153
    50  C   3.931        C   46 1.291    C   49 1.231    N   51 1.180
    51  N   3.529        C   52 1.205    C   50 1.180    H   84 0.945
    52  C   3.910        C   53 1.498    N   51 1.205    H   85 0.969
    53  C   3.956        C   52 1.498    C   54 1.154    C   49 1.153
    54  C   3.947        C   55 1.675    C   53 1.154    H   86 0.960
    55  C   3.935        C   54 1.675    N   56 1.140    H   87 0.948
    56  N   3.525        C   57 1.223    C   55 1.140    H   88 0.915
    57  C   3.938        C   64 1.321    N   56 1.223    S   58 1.171
    58  S   2.613        C   57 1.171    C   59 1.085
    59  C   3.896        C   63 1.457    S   58 1.085    N   60 1.078
    60  N   3.896        O   61 1.390    O   62 1.378    C   59 1.078
    61  O   1.861        N   60 1.390    O   62 0.309
    62  O   1.865        N   60 1.378    O   61 0.309
    63  C   3.979        C   59 1.457    C   64 1.326    H   89 0.956
    64  C   3.964        C   63 1.326    C   57 1.321    C   65 1.101
    65  C   3.990        C   66 1.883    C   64 1.101    H   90 0.957
    66  C   3.962        C   65 1.883    H   92 0.977    H   91 0.974
    67  H   0.993        C    1 0.962
    68  H   0.994        C    6 0.962
    69  H   0.995        C    9 0.957
    70  H   0.995        C   12 0.963
    71  H   0.996        C   22 0.942
    72  H   0.991        C   23 0.943
    73  H   0.996        C   25 0.963
    74  H   0.997        C   26 0.963
    75  H   0.997        C   30 0.962
    76  H   0.996        C   31 0.962
    77  H   0.993        C   34 0.949
    78  H   0.955        N   35 0.895
    79  H   0.993        C   42 0.954
    80  H   0.999        C   44 0.954
    81  H   0.997        C   45 0.958
    82  H   0.966        N   47 0.937
    83  H   0.996        C   48 0.965
    84  H   0.972        N   51 0.945
    85  H   0.998        C   52 0.969
    86  H   0.998        C   54 0.960
    87  H   0.995        C   55 0.948
    88  H   0.964        N   56 0.915
    89  H   0.993        C   63 0.956
    90  H   0.999        C   65 0.957
    91  H   0.997        C   66 0.974
    92  H   0.997        C   66 0.977

molecular dipole:
                 x           y           z       tot (Debye)
 q only:        0.423       0.960       3.749
   full:        0.780       0.540       3.176       8.426
molecular quadrupole (traceless):
                xx          xy          yy          xz          yz          zz
 q only:       39.530     -65.209     156.881     -93.213       7.786    -196.411
  q+dip:       10.777     -63.831     170.283     -82.049      15.711    -181.060
   full:       19.594     -54.008     167.667     -80.751      14.662    -187.262

           -------------------------------------------------
          |                Geometry Summary                 |
           -------------------------------------------------

      molecular mass/u    :      949.0098000
   center of mass at/Å    :      -11.6472024       0.0017551      -2.6360509
  moments of inertia/u·Å² :        0.1593381E+05   0.3354521E+05   0.4567407E+05
rotational constants/cm⁻¹ :        0.1057979E-02   0.5025347E-03   0.3690854E-03

 * 91 selected distances

     #   Z        #   Z                                     value/Å
     1   6 C      2   6 C                                 1.3683641
     2   6 C      4   6 C                                 1.4083855
     4   6 C      6   6 C                                 1.3674004
     6   6 C      7   6 C                                 1.4093216
     1   6 C      8   6 C                                 1.4096063
     7   6 C      8   6 C                                 1.4249676
     8   6 C      9   6 C                                 1.4163995
     9   6 C     10   6 C                                 1.3692294
    10   6 C     11   6 C                                 1.4228451
     7   6 C     12   6 C                                 1.4138923
    11   6 C     12   6 C                                 1.3640881
    13   6 C     14   8 O                                 1.2165076
    15   6 C     16   6 C                                 1.4387224
    16   6 C     17   6 C                                 1.3776829
    18   6 C     19   7 N                                 1.1494541
    20   6 C     21   7 N                                 1.1523893
    15   6 C     22   6 C                                 1.3832033
    22   6 C     23   6 C                                 1.3898985
    23   6 C     24   6 C                                 1.3840167
    24   6 C     25   6 C                                 1.4111337
    25   6 C     26   6 C                                 1.3682898
    26   6 C     27   6 C                                 1.4073037
    24   6 C     28  16 S                                 1.7488339
    27   6 C     28  16 S                                 1.7512508 (max)
    27   6 C     29   6 C                                 1.3854836
    29   6 C     30   6 C                                 1.4087390
    30   6 C     31   6 C                                 1.3668564
    31   6 C     32   6 C                                 1.4130715
    29   6 C     33  16 S                                 1.7450091
    32   6 C     34   6 C                                 1.3702659
    34   6 C     35   7 N                                 1.3511302
    35   7 N     36   6 C                                 1.3518261
    36   6 C     37  16 S                                 1.7358930
    37  16 S     38   6 C                                 1.7369275
    38   6 C     39   7 N                                 1.3940900
    39   7 N     40   8 O                                 1.2213329
    39   7 N     41   8 O                                 1.2228306
    38   6 C     42   6 C                                 1.3703725
    36   6 C     43   6 C                                 1.4085504
    42   6 C     43   6 C                                 1.4083499
    43   6 C     44   6 C                                 1.4326110
    44   6 C     45   6 C                                 1.3571410
    45   6 C     46   6 C                                 1.4118497
    46   6 C     47   7 N                                 1.3826195
    47   7 N     48   6 C                                 1.3531404
    48   6 C     49   6 C                                 1.3865793
    46   6 C     50   6 C                                 1.3981762
    49   6 C     50   6 C                                 1.4219997
    50   6 C     51   7 N                                 1.3601891
    51   7 N     52   6 C                                 1.3698523
    49   6 C     53   6 C                                 1.4386362
    52   6 C     53   6 C                                 1.3802950
    53   6 C     54   6 C                                 1.4301918
    54   6 C     55   6 C                                 1.3455257
    55   6 C     56   7 N                                 1.3731421
    56   7 N     57   6 C                                 1.3548949
    57   6 C     58  16 S                                 1.7416078
    58  16 S     59   6 C                                 1.7420552
    59   6 C     60   7 N                                 1.3932855
    60   7 N     61   8 O                                 1.2229510
    60   7 N     62   8 O                                 1.2277649
    59   6 C     63   6 C                                 1.3777545
    57   6 C     64   6 C                                 1.4052609
    63   6 C     64   6 C                                 1.4073247
    65   6 C     66   6 C                                 1.3309801
     1   6 C     67   1 H                                 1.0791213
     6   6 C     68   1 H                                 1.0793794
     9   6 C     69   1 H                                 1.0785134
    12   6 C     70   1 H                                 1.0799014
    22   6 C     71   1 H                                 1.0850459
    23   6 C     72   1 H                                 1.0806221
    25   6 C     73   1 H                                 1.0760851
    26   6 C     74   1 H                                 1.0757120
    30   6 C     75   1 H                                 1.0756744
    31   6 C     76   1 H                                 1.0750062
    34   6 C     77   1 H                                 1.0788037
    35   7 N     78   1 H                                 1.0161291
    42   6 C     79   1 H                                 1.0741846
    44   6 C     80   1 H                                 1.0823929
    45   6 C     81   1 H                                 1.0812077
    47   7 N     82   1 H                                 1.0083810
    48   6 C     83   1 H                                 1.0726794
    51   7 N     84   1 H                                 1.0063828 (min)
    52   6 C     85   1 H                                 1.0744497
    54   6 C     86   1 H                                 1.0845181
    55   6 C     87   1 H                                 1.0802566
    56   7 N     88   1 H                                 1.0156717
    63   6 C     89   1 H                                 1.0745762
    65   6 C     90   1 H                                 1.0884024
    66   6 C     91   1 H                                 1.0803099
    66   6 C     92   1 H                                 1.0845122

 * 7 distinct bonds (by element types)

   Z      Z             #   av. dist./Å        max./Å        min./Å
   1 H    6 C          22     1.0791525     1.0884024     1.0726794
   6 C    6 C          41     1.3948967     1.4387224     1.3309801
   1 H    7 N           4     1.0116412     1.0161291     1.0063828
   6 C    7 N          12     1.3321678     1.3940900     1.1494541
   6 C    8 O           1     1.2165076     1.2165076     1.2165076
   7 N    8 O           4     1.2237199     1.2277649     1.2213329
   6 C   16 S           7     1.7430825     1.7512508     1.7358930


optimized geometry written to: xtbopt.xyz


           -------------------------------------------------
          | TOTAL ENERGY             -179.738812195166 Eh   |
          | GRADIENT NORM               0.012798924225 Eh/α |
          | HOMO-LUMO GAP               0.408113329570 eV   |
           -------------------------------------------------

------------------------------------------------------------------------
 * finished run on 2021/06/12 at 02:48:04.853     
------------------------------------------------------------------------
 total:
 * wall-time:     0 d,  0 h,  1 min, 13.727 sec
 *  cpu-time:     0 d,  0 h, 12 min, 19.920 sec
 * ratio c/w:    10.036 speedup
 SCF:
 * wall-time:     0 d,  0 h,  0 min,  0.199 sec
 *  cpu-time:     0 d,  0 h,  0 min,  2.368 sec
 * ratio c/w:    11.904 speedup
 ANC optimizer:
 * wall-time:     0 d,  0 h,  1 min, 13.459 sec
 *  cpu-time:     0 d,  0 h, 12 min, 16.926 sec
 * ratio c/w:    10.032 speedup

