      -----------------------------------------------------------      
     |                   =====================                   |     
     |                           x T B                           |     
     |                   =====================                   |     
     |                         S. Grimme                         |     
     |          Mulliken Center for Theoretical Chemistry        |     
     |                    University of Bonn                     |     
     |                Version 6.2 RC2 (SAW190805)                |     
      -----------------------------------------------------------      

   This program is distributed in the hope that it will be useful,
   but WITHOUT ANY WARRANTY; without even the implied warranty of
   MERCHANTABILITY or FITNESS FOR A PARTICULAR PURPOSE.
   
   FOR NON-COMMERCIAL, ACADEMIA USE ONLY.
   
   Cite this work as:
   * S. Grimme, C. Bannwarth, P. Shushkov, J. Chem. Theory Comput., 2017,
     13, 1989-2009. DOI: 10.1021/acs.jctc.7b00118
   * C. Bannwarth, S. Ehlert and S. Grimme., J. Chem. Theory Comput., 2019,
     15, 1652-1671. DOI: 10.1021/acs.jctc.8b01176
   * P. Pracht, E. Caldeweyher, S. Ehlert, S. Grimme, ChemRxiv, 2019, preprint.
     DOI: 10.26434/chemrxiv.8326202.v1
   
   for DFT-D4:
   * E. Caldeweyher, C. Bannwarth and S. Grimme, J. Chem. Phys., 2017,
     147, 034112. DOI: 10.1063/1.4993215
   * E. Caldeweyher, S. Ehlert, A. Hansen, H. Neugebauer, S. Spicher,
     C. Bannwarth and S. Grimme, J. Chem. Phys., 2019, 150, 154122.
     DOI: 10.1063/1.5090222
   
   for sTDA-xTB:
   * S. Grimme and C. Bannwarth, J. Chem. Phys., 2016, 145, 054103.
     DOI: 10.1063/1.4959605
   
   in the mass-spec context:
   * V. Asgeirsson, C. Bauer and S. Grimme, Chem. Sci., 2017, 8, 4879.
     DOI: 10.1039/c7sc00601b
   
   for metadynamics refer to:
   * S. Grimme, J. Chem. Theory Comput., 2019, 155, 2847-2862
     DOI: 10.1021/acs.jctc.9b00143
   
   with help from (in alphabetical order)
   C. Bannwarth, F. Bohle, G. Brandenburg, E. Caldeweyher, M. Checinski,
   S. Dohm, S. Ehlert, S. Ehrlich, F. März, H. Neugebauer, J. Pisarek,
   P. Pracht, P. Shushkov, and S. Spicher.
   
 * started run on 2021/06/14 at 11:00:55.997     

           -------------------------------------------------
          |                Calculation Setup                |
           -------------------------------------------------

          program call               : /ihome/ghutchison/geoffh/xtb/xtb /ihome/ghutchison/blp62/GA/running_GA/sequence/generations/170/47_206_353_206_47_01210.xyz -opt
          hostname                   : smp-n14
          coordinate file            : /ihome/ghutchison/blp62/GA/running_GA/sequence/generations/170/47_206_353_206_47_01210.xyz
          omp threads                :                    12
          number of atoms            :                    82
          number of electrons        :                   278
          charge                     :                     0
          spin                       :                   0.0
          first test random number   :      0.99042850322389


########################################################################
# WARNING! Please study the warnings concerning your input carefully
#  - XTBPATH is not set, using XTBHOME instead
#  - the use of '-opt' is discouraged, please use '--opt' next time
########################################################################

           ------------------------------------------------- 
          |                 G F N 2 - x T B                 |
          | Geometry, Frequencies, Noncovalent interactions |
          |            JCTC 2019 parametrisation            |
           ------------------------------------------------- 
             KAB for C  - Si     :                1.0500
             KAB for H  - Pd     :                0.9500
             k(s)              :                1.8500
             k(p)              :                2.2300
             k(d)              :                2.2300
             k(f)              :                2.0000
             kEN (H0ij)        :               -2.0000
             D4 a1             :                0.5200
             D4 a2             :                5.0000
             D4 s6             :                1.0000
             D4 s8             :                2.7000
             D4 s9             :                5.0000
             alphaj            :                2.0000

  Z AO/shell   Hii/eV     exponent
  1     Wed Apr 25 08:07:45 CEST 2018   EN: 2.200 GM2: 0.406  GM3: 0.0800  RAES: 1.40
     1s    -10.707211    1.230000
  6     Wed Apr 25 08:07:45 CEST 2018   EN: 2.550 GM2: 0.538  GM3: 0.1500  RAES: 3.00
     2s    -13.970922    2.096432
     2p    -10.063292    1.800000
  7     Wed Apr 25 08:07:45 CEST 2018   EN: 3.040 GM2: 0.461  GM3:-0.0640  RAES: 1.90
     2s    -16.686243    2.339881
     2p    -12.523956    2.014332
  8     Wed Apr 25 08:07:45 CEST 2018   EN: 3.440 GM2: 0.452  GM3:-0.0517  RAES: 1.80
     2s    -20.229985    2.439742
     2p    -15.503117    2.137023
 16     Tue Apr 24 11:44:34 CEST 2018   EN: 2.580 GM2: 0.340  GM3:-0.0502  RAES: 3.10
     3s    -20.029654    1.981333
     3p    -11.377694    2.025643
     3d     -0.420282    1.702555

           ------------------------------------------------- 
          |        Self-Consistent Charge Iterations        |
           ------------------------------------------------- 

          ...................................................
          :                      SETUP                      :
          :.................................................:
          :  # basis functions                 292          :
          :  # atomic orbitals                 285          :
          :  # shells                          145          :
          :  # electrons                       278          :
          :  max. iterations                   250          :
          :  Hamiltonian                  GFN2-xTB          :
          :  restarted?                      false          :
          :  GBSA solvation                  false          :
          :  PC potential                    false          :
          :  electronic temp.          300.0000000     K    :
          :  accuracy                    1.0000000          :
          :  -> integral cutoff          0.2500000E+02      :
          :  -> integral neglect         0.1000000E-07      :
          :  -> SCF convergence          0.1000000E-05 Eh   :
          :  -> wf. convergence          0.1000000E-03 e    :
          :  Broyden damping             0.4000000          :
          ...................................................

 iter      E             dE          RMSdq      gap      omega  full diag
   1   -154.9107591 -0.154911E+03  0.490E+00    0.84       0.0  T
   2   -155.2443053 -0.333546E+00  0.285E+00    0.86       1.0  T
   3   -155.1271455  0.117160E+00  0.185E+00    1.08       1.0  T
   4   -155.2428498 -0.115704E+00  0.125E+00    0.74       1.0  T
   5   -155.3326007 -0.897510E-01  0.485E-01    0.83       1.0  T
   6   -155.3483862 -0.157854E-01  0.166E-01    0.83       1.0  T
   7   -155.3489433 -0.557123E-03  0.104E-01    0.83       1.0  T
   8   -155.3493551 -0.411841E-03  0.626E-02    0.83       1.0  T
   9   -155.3495561 -0.200982E-03  0.307E-02    0.83       1.0  T
  10   -155.3496106 -0.544659E-04  0.151E-02    0.83       1.0  T
  11   -155.3496194 -0.878169E-05  0.715E-03    0.83       1.5  T
  12   -155.3496208 -0.146154E-05  0.426E-03    0.83       2.6  T
  13   -155.3496218 -0.926001E-06  0.217E-03    0.83       5.1  T
  14   -155.3496219 -0.163354E-06  0.119E-03    0.83       9.3  T
  15   -155.3496219 -0.243027E-07  0.612E-04    0.83      18.0  T
  16   -155.3496220 -0.132976E-07  0.304E-04    0.83      36.3  T

   *** convergence criteria satisfied after 16 iterations ***

         #    Occupation            Energy/Eh            Energy/eV
      -------------------------------------------------------------
         1        2.0000           -0.7708829             -20.9768
       ...           ...                  ...                  ...
       133        2.0000           -0.4069486             -11.0736
       134        2.0000           -0.4002803             -10.8922
       135        2.0000           -0.3929915             -10.6938
       136        2.0000           -0.3878001             -10.5526
       137        2.0000           -0.3628535              -9.8737
       138        2.0000           -0.3547562              -9.6534
       139        2.0000           -0.3513254              -9.5601 (HOMO)
       140        0.0000           -0.3207549              -8.7282 (LUMO)
       141                         -0.3171825              -8.6310
       142                         -0.3095033              -8.4220
       143                         -0.3074222              -8.3654
       144                         -0.2976634              -8.0998
       ...                                ...                  ...
       285                          0.7181234              19.5411
      -------------------------------------------------------------
                  HL-Gap            0.0305705 Eh            0.8319 eV
             Fermi-level           -0.3360384 Eh           -9.1441 eV

 SCC (total)                   0 d,  0 h,  0 min,  0.160 sec
 SCC setup                      ...        0 min,  0.001 sec (  0.904%)
 Dispersion                     ...        0 min,  0.003 sec (  1.665%)
 integral evaluation            ...        0 min,  0.017 sec ( 10.884%)
 zeroth order Hamiltonian       ...        0 min,  0.001 sec (  0.509%)
 iterations                     ...        0 min,  0.125 sec ( 77.875%)
 molecular gradient             ...        0 min,  0.012 sec (  7.698%)
 printout                       ...        0 min,  0.001 sec (  0.408%)

         :::::::::::::::::::::::::::::::::::::::::::::::::::::
         ::                     SUMMARY                     ::
         :::::::::::::::::::::::::::::::::::::::::::::::::::::
         :: total energy            -153.286666232324 Eh    ::
         :: gradient norm              0.157401369201 Eh/a0 ::
         :: HOMO-LUMO gap              0.831866504477 eV    ::
         ::.................................................::
         :: SCC energy              -155.349621962391 Eh    ::
         :: -> isotropic ES            0.137625576859 Eh    ::
         :: -> anisotropic ES          0.024689329613 Eh    ::
         :: -> anisotropic XC          0.051556214870 Eh    ::
         :: -> dispersion             -0.114646781998 Eh    ::
         :: repulsion energy           2.063664634039 Eh    ::
         :: add. restraining           0.000000000000 Eh    ::
         :::::::::::::::::::::::::::::::::::::::::::::::::::::

      ----------------------------------------------------------- 
     |                   =====================                   |
     |                        A N C O P T                        |
     |                   =====================                   |
     |               Approximate Normal Coordinate               |
     |                Rational Function Optimizer                |
      ----------------------------------------------------------- 

          ...................................................
          :                      SETUP                      :
          :.................................................:
          :   optimization level            normal          :
          :   max. optcycles                   246          :
          :   ANC micro-cycles                  20          :
          :   degrees of freedom               240          :
          :.................................................:
          :   RF solver                   davidson          :
          :   input Hessian                  false          :
          :   write xtbopt.log                true          :
          :   linear?                        false          :
          :   energy convergence         0.5000000E-05 Eh   :
          :   grad. convergence          0.1000000E-02 Eh/α :
          :   maximium RF displ.         2.0000000          :
          :   Hlow (freq-cutoff)         0.5000000E-02      :
          :   Hmax (freq-cutoff)         5.0000000          :
          :   S6 in model hess.         20.0000000          :
          ...................................................

generating ANC from model Hessian ...
Using Lindh-Hessian (1995)
 Shifting diagonal of input Hessian by   4.989086776182034E-003
 Lowest  eigenvalues of input Hessian
   -0.000000   -0.000000   -0.000000    0.000000    0.000000    0.000000
    0.005000    0.005022    0.005079    0.005126    0.005154    0.005186
    0.005280    0.005472    0.005610    0.005726    0.005911    0.006097
 Highest eigenvalues
    2.094982    2.098083    2.135171    2.242557    2.483913    2.490722
 

........................................................................
.............................. CYCLE    1 ..............................
........................................................................
   1   -155.3496220 -0.155350E+03  0.130E-04    0.83       0.0  T
   2   -155.3496220  0.116302E-09  0.115E-04    0.83      96.4  T
   3   -155.3496220 -0.715346E-09  0.628E-05    0.83     175.9  T
     SCC iter.                  ...        0 min,  0.025 sec
     gradient                   ...        0 min,  0.012 sec
 * total energy  :  -153.2866662 Eh     change       -0.1539405E-08 Eh
   gradient norm :     0.1574007 Eh/α   predicted     0.0000000E+00 (-100.00%)
   displ. norm   :     0.4138079 α      lambda       -0.3501143E-01
   maximum displ.:     0.1126401 α      in ANC's #82, #61, #132, ...

........................................................................
.............................. CYCLE    2 ..............................
........................................................................
   1   -155.4048913 -0.155405E+03  0.283E-01    0.88       0.0  T
   2   -155.4052507 -0.359359E-03  0.157E-01    0.87       1.0  T
   3   -155.4044687  0.781973E-03  0.115E-01    0.86       1.0  T
   4   -155.4052589 -0.790210E-03  0.577E-02    0.85       1.0  T
   5   -155.4054980 -0.239086E-03  0.293E-02    0.86       1.0  T
   6   -155.4055487 -0.506568E-04  0.118E-02    0.86       1.0  T
   7   -155.4055535 -0.484209E-05  0.714E-03    0.86       1.5  T
   8   -155.4055563 -0.283029E-05  0.351E-03    0.86       3.1  T
   9   -155.4055572 -0.862564E-06  0.164E-03    0.86       6.7  T
     SCC iter.                  ...        0 min,  0.069 sec
     gradient                   ...        0 min,  0.011 sec
 * total energy  :  -153.3121077 Eh     change       -0.2544148E-01 Eh
   gradient norm :     0.0771163 Eh/α   predicted    -0.2050338E-01 ( -19.41%)
   displ. norm   :     0.4642892 α      lambda       -0.1655045E-01
   maximum displ.:     0.1127274 α      in ANC's #47, #53, #52, ...

........................................................................
.............................. CYCLE    3 ..............................
........................................................................
   1   -155.4363278 -0.155436E+03  0.307E-01    0.80       0.0  T
   2   -155.4365546 -0.226767E-03  0.174E-01    0.81       1.0  T
   3   -155.4352061  0.134852E-02  0.132E-01    0.80       1.0  T
   4   -155.4363174 -0.111134E-02  0.737E-02    0.79       1.0  T
   5   -155.4367958 -0.478392E-03  0.310E-02    0.80       1.0  T
   6   -155.4368456 -0.498401E-04  0.159E-02    0.80       1.0  T
   7   -155.4368610 -0.154033E-04  0.756E-03    0.80       1.5  T
   8   -155.4368640 -0.296839E-05  0.449E-03    0.80       2.5  T
   9   -155.4368655 -0.151744E-05  0.172E-03    0.80       6.4  T
     SCC iter.                  ...        0 min,  0.070 sec
     gradient                   ...        0 min,  0.011 sec
 * total energy  :  -153.3214011 Eh     change       -0.9293392E-02 Eh
   gradient norm :     0.0313730 Eh/α   predicted    -0.1005907E-01 (   8.24%)
   displ. norm   :     0.4772786 α      lambda       -0.7446920E-02
   maximum displ.:     0.1521817 α      in ANC's #47, #27, #46, ...

........................................................................
.............................. CYCLE    4 ..............................
........................................................................
   1   -155.4381026 -0.155438E+03  0.337E-01    0.72       0.0  T
   2   -155.4385526 -0.450003E-03  0.203E-01    0.75       1.0  T
   3   -155.4374677  0.108494E-02  0.138E-01    0.73       1.0  T
   4   -155.4384743 -0.100666E-02  0.682E-02    0.74       1.0  T
   5   -155.4387980 -0.323657E-03  0.393E-02    0.74       1.0  T
   6   -155.4389399 -0.141907E-03  0.133E-02    0.74       1.0  T
   7   -155.4389468 -0.686889E-05  0.786E-03    0.74       1.4  T
   8   -155.4389495 -0.275985E-05  0.436E-03    0.74       2.5  T
   9   -155.4389505 -0.977086E-06  0.267E-03    0.74       4.1  T
     SCC iter.                  ...        0 min,  0.069 sec
     gradient                   ...        0 min,  0.011 sec
 * total energy  :  -153.3246335 Eh     change       -0.3232362E-02 Eh
   gradient norm :     0.0392040 Eh/α   predicted    -0.4571783E-02 (  41.44%)
   displ. norm   :     0.3601779 α      lambda       -0.4093830E-02
   maximum displ.:     0.1112258 α      in ANC's #46, #13, #47, ...

........................................................................
.............................. CYCLE    5 ..............................
........................................................................
   1   -155.4318963 -0.155432E+03  0.228E-01    0.69       0.0  T
   2   -155.4321440 -0.247717E-03  0.139E-01    0.71       1.0  T
   3   -155.4314167  0.727365E-03  0.111E-01    0.71       1.0  T
   4   -155.4319451 -0.528467E-03  0.674E-02    0.71       1.0  T
   5   -155.4323268 -0.381660E-03  0.289E-02    0.71       1.0  T
   6   -155.4324035 -0.767022E-04  0.996E-03    0.71       1.1  T
   7   -155.4324072 -0.374370E-05  0.675E-03    0.71       1.6  T
   8   -155.4324101 -0.288002E-05  0.333E-03    0.71       3.3  T
   9   -155.4324107 -0.630132E-06  0.164E-03    0.71       6.8  T
     SCC iter.                  ...        0 min,  0.069 sec
     gradient                   ...        0 min,  0.011 sec
 * total energy  :  -153.3273982 Eh     change       -0.2764701E-02 Eh
   gradient norm :     0.0331437 Eh/α   predicted    -0.2312465E-02 ( -16.36%)
   displ. norm   :     0.3897573 α      lambda       -0.3140713E-02
   maximum displ.:     0.1300797 α      in ANC's #13, #23, #17, ...

........................................................................
.............................. CYCLE    6 ..............................
........................................................................
   1   -155.4345582 -0.155435E+03  0.236E-01    0.73       0.0  T
   2   -155.4346506 -0.923825E-04  0.124E-01    0.72       1.0  T
   3   -155.4337094  0.941162E-03  0.105E-01    0.72       1.0  T
   4   -155.4345136 -0.804144E-03  0.532E-02    0.71       1.0  T
   5   -155.4347557 -0.242161E-03  0.223E-02    0.71       1.0  T
   6   -155.4347915 -0.357862E-04  0.878E-03    0.71       1.3  T
   7   -155.4347943 -0.280877E-05  0.399E-03    0.71       2.8  T
   8   -155.4347954 -0.103932E-05  0.195E-03    0.71       5.7  T
     SCC iter.                  ...        0 min,  0.061 sec
     gradient                   ...        0 min,  0.011 sec
 * total energy  :  -153.3295621 Eh     change       -0.2163930E-02 Eh
   gradient norm :     0.0239618 Eh/α   predicted    -0.1808931E-02 ( -16.41%)
   displ. norm   :     0.5488366 α      lambda       -0.2997396E-02
   maximum displ.:     0.1811385 α      in ANC's #13, #46, #47, ...

........................................................................
.............................. CYCLE    7 ..............................
........................................................................
   1   -155.4344552 -0.155434E+03  0.332E-01    0.65       0.0  T
   2   -155.4346998 -0.244561E-03  0.195E-01    0.68       1.0  T
   3   -155.4322405  0.245928E-02  0.177E-01    0.67       1.0  T
   4   -155.4344910 -0.225044E-02  0.818E-02    0.67       1.0  T
   5   -155.4350905 -0.599500E-03  0.288E-02    0.68       1.0  T
   6   -155.4351454 -0.549821E-04  0.148E-02    0.68       1.0  T
   7   -155.4351549 -0.943977E-05  0.972E-03    0.68       1.1  T
   8   -155.4351621 -0.721670E-05  0.375E-03    0.68       2.9  T
   9   -155.4351629 -0.796742E-06  0.189E-03    0.68       5.8  T
  10   -155.4351630 -0.159949E-06  0.973E-04    0.68      11.3  T
     SCC iter.                  ...        0 min,  0.075 sec
     gradient                   ...        0 min,  0.011 sec
 * total energy  :  -153.3314255 Eh     change       -0.1863409E-02 Eh
   gradient norm :     0.0364912 Eh/α   predicted    -0.1950140E-02 (   4.65%)
   displ. norm   :     0.4562356 α      lambda       -0.2875549E-02
   maximum displ.:     0.1520653 α      in ANC's #13, #48, #9, ...

........................................................................
.............................. CYCLE    8 ..............................
........................................................................
   1   -155.4413139 -0.155441E+03  0.258E-01    0.70       0.0  T
   2   -155.4416701 -0.356177E-03  0.150E-01    0.70       1.0  T
   3   -155.4413519  0.318210E-03  0.877E-02    0.69       1.0  T
   4   -155.4413166  0.352837E-04  0.707E-02    0.69       1.0  T
   5   -155.4418033 -0.486700E-03  0.228E-02    0.70       1.0  T
   6   -155.4418435 -0.401828E-04  0.985E-03    0.69       1.1  T
   7   -155.4418473 -0.388386E-05  0.479E-03    0.69       2.3  T
   8   -155.4418485 -0.113608E-05  0.296E-03    0.69       3.7  T
     SCC iter.                  ...        0 min,  0.061 sec
     gradient                   ...        0 min,  0.011 sec
 * total energy  :  -153.3328037 Eh     change       -0.1378197E-02 Eh
   gradient norm :     0.0369463 Eh/α   predicted    -0.1737050E-02 (  26.04%)
   displ. norm   :     0.3650363 α      lambda       -0.2995411E-02
   maximum displ.:     0.1307670 α      in ANC's #7, #17, #9, ...

........................................................................
.............................. CYCLE    9 ..............................
........................................................................
   1   -155.4576773 -0.155458E+03  0.195E-01    0.75       0.0  T
   2   -155.4582700 -0.592670E-03  0.111E-01    0.74       1.0  T
   3   -155.4581805  0.894906E-04  0.747E-02    0.73       1.0  T
   4   -155.4582088 -0.282858E-04  0.559E-02    0.73       1.0  T
   5   -155.4584098 -0.201020E-03  0.275E-02    0.73       1.0  T
   6   -155.4584723 -0.625616E-04  0.109E-02    0.73       1.0  T
   7   -155.4584781 -0.579922E-05  0.630E-03    0.73       1.8  T
   8   -155.4584800 -0.183009E-05  0.383E-03    0.73       2.9  T
   9   -155.4584806 -0.626760E-06  0.229E-03    0.73       4.8  T
     SCC iter.                  ...        0 min,  0.072 sec
     gradient                   ...        0 min,  0.013 sec
 * total energy  :  -153.3331342 Eh     change       -0.3304908E-03 Eh
   gradient norm :     0.0381625 Eh/α   predicted    -0.1697278E-02 ( 413.56%)
   displ. norm   :     0.3416625 α      lambda       -0.3226112E-02
   maximum displ.:     0.1063512 α      in ANC's #46, #26, #7, ...

........................................................................
.............................. CYCLE   10 ..............................
........................................................................
   1   -155.4498685 -0.155450E+03  0.241E-01    0.64       0.0  T
   2   -155.4503817 -0.513158E-03  0.144E-01    0.67       1.0  T
   3   -155.4498058  0.575858E-03  0.105E-01    0.67       1.0  T
   4   -155.4502317 -0.425884E-03  0.635E-02    0.68       1.0  T
   5   -155.4505299 -0.298217E-03  0.290E-02    0.68       1.0  T
   6   -155.4506157 -0.858082E-04  0.838E-03    0.68       1.3  T
   7   -155.4506178 -0.211623E-05  0.510E-03    0.68       2.2  T
   8   -155.4506182 -0.384902E-06  0.393E-03    0.68       2.8  T
     SCC iter.                  ...        0 min,  0.060 sec
     gradient                   ...        0 min,  0.011 sec
 * total energy  :  -153.3346652 Eh     change       -0.1531024E-02 Eh
   gradient norm :     0.0265785 Eh/α   predicted    -0.1801355E-02 (  17.66%)
   displ. norm   :     0.2821538 α      lambda       -0.1228046E-02
   maximum displ.:     0.1009586 α      in ANC's #13, #9, #22, ...

........................................................................
.............................. CYCLE   11 ..............................
........................................................................
   1   -155.4451640 -0.155445E+03  0.183E-01    0.70       0.0  T
   2   -155.4453928 -0.228729E-03  0.102E-01    0.71       1.0  T
   3   -155.4449446  0.448132E-03  0.788E-02    0.70       1.0  T
   4   -155.4452867 -0.342037E-03  0.491E-02    0.70       1.0  T
   5   -155.4454595 -0.172815E-03  0.257E-02    0.70       1.0  T
   6   -155.4455148 -0.553356E-04  0.926E-03    0.70       1.2  T
   7   -155.4455192 -0.438224E-05  0.513E-03    0.70       2.2  T
   8   -155.4455203 -0.109147E-05  0.318E-03    0.70       3.5  T
     SCC iter.                  ...        0 min,  0.060 sec
     gradient                   ...        0 min,  0.011 sec
 * total energy  :  -153.3349375 Eh     change       -0.2722722E-03 Eh
   gradient norm :     0.0329127 Eh/α   predicted    -0.6629148E-03 ( 143.48%)
   displ. norm   :     0.3122430 α      lambda       -0.2240729E-02
   maximum displ.:     0.1208621 α      in ANC's #9, #20, #8, ...

........................................................................
.............................. CYCLE   12 ..............................
........................................................................
   1   -155.4469130 -0.155447E+03  0.190E-01    0.69       0.0  T
   2   -155.4474872 -0.574158E-03  0.110E-01    0.68       1.0  T
   3   -155.4474894 -0.221732E-05  0.681E-02    0.69       1.0  T
   4   -155.4474087  0.807273E-04  0.561E-02    0.68       1.0  T
   5   -155.4476206 -0.211981E-03  0.318E-02    0.68       1.0  T
   6   -155.4477081 -0.874680E-04  0.111E-02    0.68       1.0  T
   7   -155.4477161 -0.797998E-05  0.436E-03    0.68       2.5  T
   8   -155.4477165 -0.369086E-06  0.281E-03    0.68       3.9  T
   9   -155.4477167 -0.271526E-06  0.164E-03    0.68       6.7  T
     SCC iter.                  ...        0 min,  0.067 sec
     gradient                   ...        0 min,  0.011 sec
 * total energy  :  -153.3350554 Eh     change       -0.1179357E-03 Eh
   gradient norm :     0.0430017 Eh/α   predicted    -0.1229598E-02 ( 942.60%)
   displ. norm   :     0.2196021 α      lambda       -0.2211796E-02
   maximum displ.:     0.0929418 α      in ANC's #7, #18, #24, ...

........................................................................
.............................. CYCLE   13 ..............................
........................................................................
   1   -155.4523025 -0.155452E+03  0.135E-01    0.69       0.0  T
   2   -155.4525757 -0.273240E-03  0.822E-02    0.69       1.0  T
   3   -155.4526292 -0.535427E-04  0.460E-02    0.69       1.0  T
   4   -155.4525108  0.118468E-03  0.398E-02    0.69       1.0  T
   5   -155.4526674 -0.156666E-03  0.889E-03    0.69       1.2  T
   6   -155.4526721 -0.464664E-05  0.494E-03    0.69       2.2  T
   7   -155.4526719  0.200939E-06  0.403E-03    0.69       2.7  T
     SCC iter.                  ...        0 min,  0.052 sec
     gradient                   ...        0 min,  0.011 sec
 * total energy  :  -153.3363040 Eh     change       -0.1248543E-02 Eh
   gradient norm :     0.0086866 Eh/α   predicted    -0.1159240E-02 (  -7.15%)
   displ. norm   :     0.4237371 α      lambda       -0.7848294E-03
   maximum displ.:     0.1721480 α      in ANC's #7, #9, #8, ...

........................................................................
.............................. CYCLE   14 ..............................
........................................................................
   1   -155.4489765 -0.155449E+03  0.202E-01    0.67       0.0  T
   2   -155.4490561 -0.796525E-04  0.113E-01    0.68       1.0  T
   3   -155.4485199  0.536234E-03  0.764E-02    0.67       1.0  T
   4   -155.4489525 -0.432590E-03  0.411E-02    0.68       1.0  T
   5   -155.4490979 -0.145381E-03  0.151E-02    0.68       1.0  T
   6   -155.4491123 -0.144004E-04  0.740E-03    0.68       1.5  T
   7   -155.4491143 -0.206352E-05  0.438E-03    0.68       2.5  T
   8   -155.4491156 -0.127065E-05  0.229E-03    0.68       4.8  T
   9   -155.4491159 -0.337947E-06  0.111E-03    0.68       9.9  T
     SCC iter.                  ...        0 min,  0.069 sec
     gradient                   ...        0 min,  0.011 sec
 * total energy  :  -153.3367945 Eh     change       -0.4905457E-03 Eh
   gradient norm :     0.0184256 Eh/α   predicted    -0.4628806E-03 (  -5.64%)
   displ. norm   :     0.4434183 α      lambda       -0.8463846E-03
   maximum displ.:     0.1926625 α      in ANC's #7, #9, #8, ...

........................................................................
.............................. CYCLE   15 ..............................
........................................................................
   1   -155.4510248 -0.155451E+03  0.203E-01    0.70       0.0  T
   2   -155.4510828 -0.579717E-04  0.106E-01    0.69       1.0  T
   3   -155.4507220  0.360769E-03  0.651E-02    0.69       1.0  T
   4   -155.4510522 -0.330145E-03  0.279E-02    0.69       1.0  T
   5   -155.4511034 -0.512554E-04  0.140E-02    0.69       1.0  T
   6   -155.4511136 -0.101809E-04  0.730E-03    0.69       1.5  T
   7   -155.4511152 -0.158339E-05  0.544E-03    0.69       2.0  T
   8   -155.4511181 -0.291390E-05  0.136E-03    0.69       8.1  T
   9   -155.4511182 -0.615969E-07  0.858E-04    0.69      12.9  T
     SCC iter.                  ...        0 min,  0.068 sec
     gradient                   ...        0 min,  0.011 sec
 * total energy  :  -153.3373843 Eh     change       -0.5898269E-03 Eh
   gradient norm :     0.0175302 Eh/α   predicted    -0.5064009E-03 ( -14.14%)
   displ. norm   :     0.5262818 α      lambda       -0.9389127E-03
   maximum displ.:     0.2326527 α      in ANC's #7, #9, #8, ...

........................................................................
.............................. CYCLE   16 ..............................
........................................................................
   1   -155.4520107 -0.155452E+03  0.229E-01    0.68       0.0  T
   2   -155.4520767 -0.660464E-04  0.120E-01    0.68       1.0  T
   3   -155.4519850  0.916860E-04  0.380E-02    0.68       1.0  T
   4   -155.4520573 -0.722205E-04  0.237E-02    0.68       1.0  T
   5   -155.4520572  0.448520E-07  0.200E-02    0.68       1.0  T
   6   -155.4520975 -0.403158E-04  0.541E-03    0.68       2.0  T
   7   -155.4520990 -0.149367E-05  0.240E-03    0.68       4.6  T
   8   -155.4520992 -0.217769E-06  0.157E-03    0.68       7.0  T
     SCC iter.                  ...        0 min,  0.060 sec
     gradient                   ...        0 min,  0.011 sec
 * total energy  :  -153.3380473 Eh     change       -0.6629631E-03 Eh
   gradient norm :     0.0098792 Eh/α   predicted    -0.5994845E-03 (  -9.57%)
   displ. norm   :     0.5929662 α      lambda       -0.7534691E-03
   maximum displ.:     0.2721718 α      in ANC's #7, #8, #9, ...

........................................................................
.............................. CYCLE   17 ..............................
........................................................................
   1   -155.4516018 -0.155452E+03  0.260E-01    0.66       0.0  T
   2   -155.4516713 -0.694794E-04  0.141E-01    0.66       1.0  T
   3   -155.4513405  0.330829E-03  0.636E-02    0.66       1.0  T
   4   -155.4515807 -0.240230E-03  0.369E-02    0.66       1.0  T
   5   -155.4516857 -0.104966E-03  0.171E-02    0.66       1.0  T
   6   -155.4517026 -0.169004E-04  0.858E-03    0.66       1.3  T
   7   -155.4517061 -0.355296E-05  0.506E-03    0.66       2.2  T
   8   -155.4517086 -0.249877E-05  0.148E-03    0.66       7.5  T
   9   -155.4517087 -0.776420E-07  0.861E-04    0.66      12.8  T
     SCC iter.                  ...        0 min,  0.067 sec
     gradient                   ...        0 min,  0.011 sec
 * total energy  :  -153.3384778 Eh     change       -0.4304929E-03 Eh
   gradient norm :     0.0158137 Eh/α   predicted    -0.5092039E-03 (  18.28%)
   displ. norm   :     0.4740523 α      lambda       -0.7127686E-03
   maximum displ.:     0.2264968 α      in ANC's #7, #8, #9, ...

........................................................................
.............................. CYCLE   18 ..............................
........................................................................
   1   -155.4511297 -0.155451E+03  0.194E-01    0.67       0.0  T
   2   -155.4511516 -0.218326E-04  0.105E-01    0.66       1.0  T
   3   -155.4504842  0.667368E-03  0.795E-02    0.66       1.0  T
   4   -155.4511385 -0.654255E-03  0.263E-02    0.66       1.0  T
   5   -155.4511795 -0.410744E-04  0.144E-02    0.66       1.0  T
   6   -155.4511935 -0.139279E-04  0.522E-03    0.66       2.1  T
   7   -155.4511949 -0.139710E-05  0.214E-03    0.66       5.2  T
   8   -155.4511951 -0.265144E-06  0.119E-03    0.66       9.2  T
     SCC iter.                  ...        0 min,  0.060 sec
     gradient                   ...        0 min,  0.011 sec
 * total energy  :  -153.3389499 Eh     change       -0.4720737E-03 Eh
   gradient norm :     0.0107192 Eh/α   predicted    -0.4364733E-03 (  -7.54%)
   displ. norm   :     0.4541162 α      lambda       -0.5873153E-03
   maximum displ.:     0.2145139 α      in ANC's #7, #17, #8, ...

........................................................................
.............................. CYCLE   19 ..............................
........................................................................
   1   -155.4574257 -0.155457E+03  0.191E-01    0.68       0.0  T
   2   -155.4575205 -0.948359E-04  0.100E-01    0.67       1.0  T
   3   -155.4574147  0.105818E-03  0.426E-02    0.67       1.0  T
   4   -155.4574615 -0.468038E-04  0.308E-02    0.67       1.0  T
   5   -155.4575323 -0.707982E-04  0.144E-02    0.67       1.0  T
   6   -155.4575423 -0.998007E-05  0.827E-03    0.67       1.3  T
   7   -155.4575465 -0.425542E-05  0.436E-03    0.67       2.5  T
   8   -155.4575481 -0.157789E-05  0.183E-03    0.67       6.0  T
   9   -155.4575484 -0.243304E-06  0.888E-04    0.67      12.4  T
     SCC iter.                  ...        0 min,  0.067 sec
     gradient                   ...        0 min,  0.012 sec
 * total energy  :  -153.3391403 Eh     change       -0.1904704E-03 Eh
   gradient norm :     0.0160279 Eh/α   predicted    -0.3542195E-03 (  85.97%)
   displ. norm   :     0.4774688 α      lambda       -0.6073061E-03
   maximum displ.:     0.2387683 α      in ANC's #7, #8, #3, ...

........................................................................
.............................. CYCLE   20 ..............................
........................................................................
   1   -155.4527472 -0.155453E+03  0.220E-01    0.65       0.0  T
   2   -155.4528424 -0.952045E-04  0.119E-01    0.65       1.0  T
   3   -155.4524957  0.346706E-03  0.646E-02    0.65       1.0  T
   4   -155.4528056 -0.309928E-03  0.315E-02    0.65       1.0  T
   5   -155.4528572 -0.515145E-04  0.209E-02    0.65       1.0  T
   6   -155.4528921 -0.349333E-04  0.812E-03    0.65       1.4  T
   7   -155.4528946 -0.250125E-05  0.492E-03    0.65       2.2  T
   8   -155.4528966 -0.203931E-05  0.211E-03    0.65       5.2  T
   9   -155.4528970 -0.323296E-06  0.969E-04    0.65      11.4  T
     SCC iter.                  ...        0 min,  0.067 sec
     gradient                   ...        0 min,  0.011 sec
 * total energy  :  -153.3394500 Eh     change       -0.3096829E-03 Eh
   gradient norm :     0.0138185 Eh/α   predicted    -0.3728836E-03 (  20.41%)
   displ. norm   :     0.2321670 α      lambda       -0.3248978E-03
   maximum displ.:     0.1026267 α      in ANC's #7, #8, #17, ...
 * RMSD in coord.:     0.6818929 α      energy gain  -0.5278379E-01 Eh

generating ANC from model Hessian ...
Using Lindh-Hessian (1995)
 Shifting diagonal of input Hessian by   4.987332594076552E-003
 Lowest  eigenvalues of input Hessian
   -0.000000   -0.000000    0.000000    0.000000    0.000000    0.000000
    0.005000    0.005021    0.005085    0.005123    0.005142    0.005181
    0.005232    0.005493    0.005594    0.005739    0.005890    0.006153
 Highest eigenvalues
    2.173606    2.243557    2.262687    2.264364    2.641669    2.643926
 

........................................................................
.............................. CYCLE   21 ..............................
........................................................................
   1   -155.4552689 -0.155455E+03  0.966E-02    0.65       0.0  T
   2   -155.4553219 -0.530265E-04  0.518E-02    0.65       1.0  T
   3   -155.4553148  0.712482E-05  0.248E-02    0.65       1.0  T
   4   -155.4553300 -0.152501E-04  0.111E-02    0.65       1.0  T
   5   -155.4553342 -0.419951E-05  0.803E-03    0.65       1.4  T
   6   -155.4553385 -0.428267E-05  0.404E-03    0.65       2.7  T
   7   -155.4553396 -0.111312E-05  0.188E-03    0.65       5.9  T
   8   -155.4553399 -0.286732E-06  0.857E-04    0.65      12.9  T
   9   -155.4553400 -0.322947E-07  0.527E-04    0.65      20.9  T
     SCC iter.                  ...        0 min,  0.068 sec
     gradient                   ...        0 min,  0.012 sec
 * total energy  :  -153.3396039 Eh     change       -0.1538818E-03 Eh
   gradient norm :     0.0143068 Eh/α   predicted     0.0000000E+00 (-100.00%)
   displ. norm   :     0.1470804 α      lambda       -0.3376430E-03
   maximum displ.:     0.0542081 α      in ANC's #7, #3, #20, ...

........................................................................
.............................. CYCLE   22 ..............................
........................................................................
   1   -155.4560689 -0.155456E+03  0.864E-02    0.65       0.0  T
   2   -155.4560804 -0.115198E-04  0.485E-02    0.65       1.0  T
   3   -155.4560564  0.239736E-04  0.197E-02    0.65       1.0  T
   4   -155.4560680 -0.116260E-04  0.134E-02    0.65       1.0  T
   5   -155.4560846 -0.165550E-04  0.459E-03    0.65       2.4  T
   6   -155.4560850 -0.374940E-06  0.334E-03    0.65       3.3  T
   7   -155.4560858 -0.779934E-06  0.158E-03    0.65       7.0  T
   8   -155.4560860 -0.226106E-06  0.550E-04    0.65      20.1  T
     SCC iter.                  ...        0 min,  0.060 sec
     gradient                   ...        0 min,  0.011 sec
 * total energy  :  -153.3398217 Eh     change       -0.2177818E-03 Eh
   gradient norm :     0.0069025 Eh/α   predicted    -0.1724740E-03 ( -20.80%)
   displ. norm   :     0.1673432 α      lambda       -0.2986200E-03
   maximum displ.:     0.0561939 α      in ANC's #20, #7, #3, ...

........................................................................
.............................. CYCLE   23 ..............................
........................................................................
   1   -155.4566185 -0.155457E+03  0.103E-01    0.65       0.0  T
   2   -155.4566394 -0.209092E-04  0.565E-02    0.66       1.0  T
   3   -155.4566080  0.313640E-04  0.241E-02    0.65       1.0  T
   4   -155.4566221 -0.140367E-04  0.161E-02    0.65       1.0  T
   5   -155.4566459 -0.238058E-04  0.608E-03    0.65       1.8  T
   6   -155.4566473 -0.146640E-05  0.389E-03    0.65       2.8  T
   7   -155.4566485 -0.112919E-05  0.140E-03    0.65       7.9  T
   8   -155.4566486 -0.134320E-06  0.673E-04    0.65      16.4  T
     SCC iter.                  ...        0 min,  0.059 sec
     gradient                   ...        0 min,  0.011 sec
 * total energy  :  -153.3399867 Eh     change       -0.1650196E-03 Eh
   gradient norm :     0.0064660 Eh/α   predicted    -0.1534965E-03 (  -6.98%)
   displ. norm   :     0.1729978 α      lambda       -0.1550668E-03
   maximum displ.:     0.0632263 α      in ANC's #7, #3, #12, ...

........................................................................
.............................. CYCLE   24 ..............................
........................................................................
   1   -155.4562256 -0.155456E+03  0.982E-02    0.65       0.0  T
   2   -155.4562317 -0.612053E-05  0.540E-02    0.65       1.0  T
   3   -155.4562307  0.991847E-06  0.930E-03    0.65       1.2  T
   4   -155.4562313 -0.617883E-06  0.673E-03    0.65       1.6  T
   5   -155.4562315 -0.192669E-06  0.514E-03    0.65       2.1  T
   6   -155.4562342 -0.269170E-05  0.132E-03    0.65       8.4  T
   7   -155.4562343 -0.101943E-06  0.729E-04    0.65      15.2  T
     SCC iter.                  ...        0 min,  0.052 sec
     gradient                   ...        0 min,  0.011 sec
 * total energy  :  -153.3401190 Eh     change       -0.1322873E-03 Eh
   gradient norm :     0.0066779 Eh/α   predicted    -0.7985584E-04 ( -39.63%)
   displ. norm   :     0.3912167 α      lambda       -0.2996940E-03
   maximum displ.:     0.1542800 α      in ANC's #7, #3, #12, ...

........................................................................
.............................. CYCLE   25 ..............................
........................................................................
   1   -155.4547950 -0.155455E+03  0.205E-01    0.65       0.0  T
   2   -155.4548234 -0.283792E-04  0.111E-01    0.65       1.0  T
   3   -155.4547786  0.447116E-04  0.279E-02    0.65       1.0  T
   4   -155.4547958 -0.171188E-04  0.215E-02    0.65       1.0  T
   5   -155.4548192 -0.234274E-04  0.139E-02    0.65       1.0  T
   6   -155.4548357 -0.165487E-04  0.401E-03    0.65       2.8  T
   7   -155.4548369 -0.112226E-05  0.179E-03    0.65       6.2  T
   8   -155.4548370 -0.161710E-06  0.113E-03    0.65       9.8  T
     SCC iter.                  ...        0 min,  0.059 sec
     gradient                   ...        0 min,  0.011 sec
 * total energy  :  -153.3403121 Eh     change       -0.1931154E-03 Eh
   gradient norm :     0.0067023 Eh/α   predicted    -0.1727834E-03 ( -10.53%)
   displ. norm   :     0.2762449 α      lambda       -0.1840742E-03
   maximum displ.:     0.1241179 α      in ANC's #7, #3, #9, ...

........................................................................
.............................. CYCLE   26 ..............................
........................................................................
   1   -155.4548340 -0.155455E+03  0.120E-01    0.65       0.0  T
   2   -155.4548467 -0.126666E-04  0.640E-02    0.65       1.0  T
   3   -155.4548194  0.273091E-04  0.212E-02    0.65       1.0  T
   4   -155.4548301 -0.107380E-04  0.156E-02    0.65       1.0  T
   5   -155.4548464 -0.162593E-04  0.832E-03    0.65       1.3  T
   6   -155.4548511 -0.467747E-05  0.379E-03    0.65       2.9  T
   7   -155.4548522 -0.116509E-05  0.961E-04    0.65      11.5  T
   8   -155.4548523 -0.299336E-07  0.659E-04    0.65      16.8  T
     SCC iter.                  ...        0 min,  0.059 sec
     gradient                   ...        0 min,  0.011 sec
 * total energy  :  -153.3404345 Eh     change       -0.1224065E-03 Eh
   gradient norm :     0.0061543 Eh/α   predicted    -0.9906111E-04 ( -19.07%)
   displ. norm   :     0.3550057 α      lambda       -0.2484882E-03
   maximum displ.:     0.1674660 α      in ANC's #7, #3, #9, ...

........................................................................
.............................. CYCLE   27 ..............................
........................................................................
   1   -155.4558592 -0.155456E+03  0.142E-01    0.65       0.0  T
   2   -155.4558794 -0.202873E-04  0.740E-02    0.65       1.0  T
   3   -155.4558167  0.627567E-04  0.293E-02    0.65       1.0  T
   4   -155.4558580 -0.413594E-04  0.185E-02    0.65       1.0  T
   5   -155.4558756 -0.175101E-04  0.115E-02    0.65       1.0  T
   6   -155.4558868 -0.112167E-04  0.380E-03    0.65       2.9  T
   7   -155.4558878 -0.104928E-05  0.136E-03    0.65       8.1  T
   8   -155.4558879 -0.779389E-07  0.823E-04    0.65      13.4  T
     SCC iter.                  ...        0 min,  0.059 sec
     gradient                   ...        0 min,  0.011 sec
 * total energy  :  -153.3406143 Eh     change       -0.1797518E-03 Eh
   gradient norm :     0.0062354 Eh/α   predicted    -0.1399074E-03 ( -22.17%)
   displ. norm   :     0.4715834 α      lambda       -0.2563314E-03
   maximum displ.:     0.2238821 α      in ANC's #7, #3, #9, ...

........................................................................
.............................. CYCLE   28 ..............................
........................................................................
   1   -155.4555124 -0.155456E+03  0.199E-01    0.65       0.0  T
   2   -155.4555385 -0.260783E-04  0.104E-01    0.65       1.0  T
   3   -155.4554080  0.130463E-03  0.416E-02    0.65       1.0  T
   4   -155.4555286 -0.120621E-03  0.201E-02    0.65       1.0  T
   5   -155.4555268  0.189222E-05  0.181E-02    0.65       1.0  T
   6   -155.4555556 -0.288225E-04  0.444E-03    0.65       2.5  T
   7   -155.4555572 -0.166918E-05  0.134E-03    0.65       8.2  T
   8   -155.4555573 -0.425836E-07  0.955E-04    0.65      11.6  T
     SCC iter.                  ...        0 min,  0.059 sec
     gradient                   ...        0 min,  0.011 sec
 * total energy  :  -153.3408274 Eh     change       -0.2130971E-03 Eh
   gradient norm :     0.0050506 Eh/α   predicted    -0.1566706E-03 ( -26.48%)
   displ. norm   :     0.5262933 α      lambda       -0.3015245E-03
   maximum displ.:     0.2639927 α      in ANC's #7, #3, #9, ...

........................................................................
.............................. CYCLE   29 ..............................
........................................................................
   1   -155.4569216 -0.155457E+03  0.199E-01    0.65       0.0  T
   2   -155.4569493 -0.276485E-04  0.104E-01    0.65       1.0  T
   3   -155.4568503  0.989383E-04  0.383E-02    0.65       1.0  T
   4   -155.4569509 -0.100609E-03  0.170E-02    0.65       1.0  T
   5   -155.4569404  0.105011E-04  0.164E-02    0.65       1.0  T
   6   -155.4569636 -0.231541E-04  0.611E-03    0.65       1.8  T
   7   -155.4569671 -0.346915E-05  0.147E-03    0.65       7.5  T
   8   -155.4569671 -0.735859E-07  0.105E-03    0.65      10.5  T
   9   -155.4569672 -0.510386E-07  0.655E-04    0.65      16.9  T
     SCC iter.                  ...        0 min,  0.066 sec
     gradient                   ...        0 min,  0.014 sec
 * total energy  :  -153.3410814 Eh     change       -0.2540205E-03 Eh
   gradient norm :     0.0063379 Eh/α   predicted    -0.1925275E-03 ( -24.21%)
   displ. norm   :     0.5847294 α      lambda       -0.3270536E-03
   maximum displ.:     0.3003933 α      in ANC's #7, #3, #8, ...

........................................................................
.............................. CYCLE   30 ..............................
........................................................................
   1   -155.4564603 -0.155456E+03  0.210E-01    0.65       0.0  T
   2   -155.4564936 -0.332679E-04  0.111E-01    0.65       1.0  T
   3   -155.4564028  0.907927E-04  0.379E-02    0.64       1.0  T
   4   -155.4564962 -0.933964E-04  0.172E-02    0.65       1.0  T
   5   -155.4564855  0.107550E-04  0.165E-02    0.65       1.0  T
   6   -155.4565085 -0.230833E-04  0.662E-03    0.64       1.7  T
   7   -155.4565127 -0.415981E-05  0.162E-03    0.65       6.8  T
   8   -155.4565128 -0.116455E-06  0.105E-03    0.65      10.5  T
   9   -155.4565129 -0.398280E-07  0.715E-04    0.65      15.4  T
     SCC iter.                  ...        0 min,  0.068 sec
     gradient                   ...        0 min,  0.011 sec
 * total energy  :  -153.3413724 Eh     change       -0.2910119E-03 Eh
   gradient norm :     0.0071132 Eh/α   predicted    -0.2194383E-03 ( -24.59%)
   displ. norm   :     0.6168318 α      lambda       -0.4221495E-03
   maximum displ.:     0.3239746 α      in ANC's #7, #3, #8, ...

........................................................................
.............................. CYCLE   31 ..............................
........................................................................
   1   -155.4584625 -0.155458E+03  0.217E-01    0.64       0.0  T
   2   -155.4584995 -0.370263E-04  0.115E-01    0.64       1.0  T
   3   -155.4584605  0.390083E-04  0.287E-02    0.64       1.0  T
   4   -155.4584835 -0.230013E-04  0.198E-02    0.64       1.0  T
   5   -155.4584882 -0.465214E-05  0.163E-02    0.64       1.0  T
   6   -155.4585106 -0.224656E-04  0.590E-03    0.64       1.9  T
   7   -155.4585140 -0.334031E-05  0.166E-03    0.64       6.7  T
   8   -155.4585141 -0.143908E-06  0.939E-04    0.64      11.8  T
   9   -155.4585141 -0.735648E-08  0.762E-04    0.64      14.5  T
     SCC iter.                  ...        0 min,  0.069 sec
     gradient                   ...        0 min,  0.011 sec
 * total energy  :  -153.3417222 Eh     change       -0.3497902E-03 Eh
   gradient norm :     0.0082579 Eh/α   predicted    -0.2913891E-03 ( -16.70%)
   displ. norm   :     0.7206109 α      lambda       -0.4489709E-03
   maximum displ.:     0.3812020 α      in ANC's #7, #3, #8, ...

........................................................................
.............................. CYCLE   32 ..............................
........................................................................
   1   -155.4538024 -0.155454E+03  0.256E-01    0.63       0.0  T
   2   -155.4538543 -0.518820E-04  0.135E-01    0.63       1.0  T
   3   -155.4536929  0.161437E-03  0.456E-02    0.63       1.0  T
   4   -155.4538094 -0.116538E-03  0.288E-02    0.63       1.0  T
   5   -155.4538397 -0.302713E-04  0.210E-02    0.63       1.0  T
   6   -155.4538787 -0.390169E-04  0.485E-03    0.63       2.3  T
   7   -155.4538806 -0.184329E-05  0.179E-03    0.63       6.2  T
   8   -155.4538807 -0.182914E-06  0.901E-04    0.63      12.3  T
     SCC iter.                  ...        0 min,  0.061 sec
     gradient                   ...        0 min,  0.011 sec
 * total energy  :  -153.3420771 Eh     change       -0.3549260E-03 Eh
   gradient norm :     0.0096065 Eh/α   predicted    -0.3410625E-03 (  -3.91%)
   displ. norm   :     0.5786460 α      lambda       -0.3831191E-03
   maximum displ.:     0.3175817 α      in ANC's #7, #3, #8, ...

........................................................................
.............................. CYCLE   33 ..............................
........................................................................
   1   -155.4550422 -0.155455E+03  0.194E-01    0.63       0.0  T
   2   -155.4550708 -0.285839E-04  0.103E-01    0.63       1.0  T
   3   -155.4550434  0.273294E-04  0.235E-02    0.63       1.0  T
   4   -155.4550361  0.737895E-05  0.217E-02    0.63       1.0  T
   5   -155.4550653 -0.292335E-04  0.133E-02    0.63       1.0  T
   6   -155.4550793 -0.140466E-04  0.455E-03    0.63       2.4  T
   7   -155.4550812 -0.183054E-05  0.116E-03    0.63       9.5  T
   8   -155.4550812 -0.374423E-07  0.812E-04    0.63      13.6  T
     SCC iter.                  ...        0 min,  0.061 sec
     gradient                   ...        0 min,  0.011 sec
 * total energy  :  -153.3423720 Eh     change       -0.2948919E-03 Eh
   gradient norm :     0.0083661 Eh/α   predicted    -0.2557007E-03 ( -13.29%)
   displ. norm   :     0.6182515 α      lambda       -0.3429875E-03
   maximum displ.:     0.3425803 α      in ANC's #7, #3, #8, ...

........................................................................
.............................. CYCLE   34 ..............................
........................................................................
   1   -155.4541056 -0.155454E+03  0.197E-01    0.63       0.0  T
   2   -155.4541357 -0.300746E-04  0.103E-01    0.63       1.0  T
   3   -155.4540279  0.107841E-03  0.374E-02    0.63       1.0  T
   4   -155.4540989 -0.710193E-04  0.242E-02    0.63       1.0  T
   5   -155.4541328 -0.338730E-04  0.133E-02    0.63       1.0  T
   6   -155.4541480 -0.152073E-04  0.470E-03    0.63       2.3  T
   7   -155.4541495 -0.154703E-05  0.239E-03    0.63       4.6  T
   8   -155.4541500 -0.521506E-06  0.852E-04    0.63      13.0  T
     SCC iter.                  ...        0 min,  0.061 sec
     gradient                   ...        0 min,  0.011 sec
 * total energy  :  -153.3426505 Eh     change       -0.2785382E-03 Eh
   gradient norm :     0.0077814 Eh/α   predicted    -0.2370461E-03 ( -14.90%)
   displ. norm   :     0.5740127 α      lambda       -0.4113476E-03
   maximum displ.:     0.3308090 α      in ANC's #7, #3, #8, ...

........................................................................
.............................. CYCLE   35 ..............................
........................................................................
   1   -155.4601330 -0.155460E+03  0.173E-01    0.65       0.0  T
   2   -155.4601657 -0.327155E-04  0.900E-02    0.64       1.0  T
   3   -155.4599841  0.181597E-03  0.455E-02    0.64       1.0  T
   4   -155.4601483 -0.164160E-03  0.216E-02    0.64       1.0  T
   5   -155.4601688 -0.204707E-04  0.145E-02    0.64       1.0  T
   6   -155.4601836 -0.148031E-04  0.584E-03    0.64       1.9  T
   7   -155.4601852 -0.164374E-05  0.397E-03    0.64       2.8  T
   8   -155.4601868 -0.158546E-05  0.109E-03    0.64      10.1  T
   9   -155.4601869 -0.679950E-07  0.623E-04    0.64      17.7  T
     SCC iter.                  ...        0 min,  0.067 sec
     gradient                   ...        0 min,  0.011 sec
 * total energy  :  -153.3429221 Eh     change       -0.2715517E-03 Eh
   gradient norm :     0.0086701 Eh/α   predicted    -0.2734417E-03 (   0.70%)
   displ. norm   :     0.6782291 α      lambda       -0.3345706E-03
   maximum displ.:     0.3877277 α      in ANC's #7, #3, #8, ...

........................................................................
.............................. CYCLE   36 ..............................
........................................................................
   1   -155.4575790 -0.155458E+03  0.218E-01    0.64       0.0  T
   2   -155.4576121 -0.330759E-04  0.113E-01    0.64       1.0  T
   3   -155.4575412  0.708978E-04  0.326E-02    0.64       1.0  T
   4   -155.4575741 -0.329313E-04  0.251E-02    0.64       1.0  T
   5   -155.4576010 -0.269449E-04  0.160E-02    0.64       1.0  T
   6   -155.4576250 -0.239346E-04  0.445E-03    0.64       2.5  T
   7   -155.4576268 -0.186422E-05  0.129E-03    0.64       8.6  T
   8   -155.4576269 -0.557124E-07  0.833E-04    0.64      13.3  T
     SCC iter.                  ...        0 min,  0.060 sec
     gradient                   ...        0 min,  0.011 sec
 * total energy  :  -153.3432020 Eh     change       -0.2798826E-03 Eh
   gradient norm :     0.0076500 Eh/α   predicted    -0.2442392E-03 ( -12.74%)
   displ. norm   :     0.6155805 α      lambda       -0.3033002E-03
   maximum displ.:     0.3593162 α      in ANC's #7, #3, #8, ...

........................................................................
.............................. CYCLE   37 ..............................
........................................................................
   1   -155.4584934 -0.155458E+03  0.182E-01    0.64       0.0  T
   2   -155.4585187 -0.252351E-04  0.941E-02    0.64       1.0  T
   3   -155.4584697  0.490091E-04  0.276E-02    0.64       1.0  T
   4   -155.4585169 -0.472062E-04  0.152E-02    0.64       1.0  T
   5   -155.4585245 -0.765076E-05  0.857E-03    0.64       1.3  T
   6   -155.4585282 -0.371180E-05  0.478E-03    0.64       2.3  T
   7   -155.4585304 -0.220325E-05  0.161E-03    0.64       6.9  T
   8   -155.4585306 -0.193973E-06  0.746E-04    0.64      14.8  T
     SCC iter.                  ...        0 min,  0.059 sec
     gradient                   ...        0 min,  0.011 sec
 * total energy  :  -153.3434642 Eh     change       -0.2621710E-03 Eh
   gradient norm :     0.0066507 Eh/α   predicted    -0.2091191E-03 ( -20.24%)
   displ. norm   :     0.6712025 α      lambda       -0.3524718E-03
   maximum displ.:     0.3925610 α      in ANC's #7, #3, #8, ...

........................................................................
.............................. CYCLE   38 ..............................
........................................................................
   1   -155.4580063 -0.155458E+03  0.201E-01    0.64       0.0  T
   2   -155.4580371 -0.307908E-04  0.104E-01    0.64       1.0  T
   3   -155.4579576  0.794754E-04  0.331E-02    0.64       1.0  T
   4   -155.4579978 -0.402146E-04  0.242E-02    0.64       1.0  T
   5   -155.4580322 -0.343746E-04  0.139E-02    0.64       1.0  T
   6   -155.4580472 -0.149532E-04  0.532E-03    0.64       2.1  T
   7   -155.4580497 -0.252685E-05  0.201E-03    0.64       5.5  T
   8   -155.4580500 -0.295561E-06  0.107E-03    0.64      10.3  T
     SCC iter.                  ...        0 min,  0.059 sec
     gradient                   ...        0 min,  0.011 sec
 * total energy  :  -153.3437636 Eh     change       -0.2994310E-03 Eh
   gradient norm :     0.0049731 Eh/α   predicted    -0.2556377E-03 ( -14.63%)
   displ. norm   :     0.7106995 α      lambda       -0.3538223E-03
   maximum displ.:     0.4165078 α      in ANC's #7, #3, #8, ...

........................................................................
.............................. CYCLE   39 ..............................
........................................................................
   1   -155.4613659 -0.155461E+03  0.209E-01    0.63       0.0  T
   2   -155.4613976 -0.317246E-04  0.107E-01    0.63       1.0  T
   3   -155.4613389  0.586972E-04  0.300E-02    0.63       1.0  T
   4   -155.4613561 -0.171167E-04  0.247E-02    0.63       1.0  T
   5   -155.4613877 -0.316035E-04  0.156E-02    0.63       1.0  T
   6   -155.4614088 -0.211380E-04  0.414E-03    0.63       2.7  T
   7   -155.4614104 -0.161689E-05  0.147E-03    0.63       7.5  T
   8   -155.4614105 -0.988189E-07  0.859E-04    0.63      12.9  T
     SCC iter.                  ...        0 min,  0.060 sec
     gradient                   ...        0 min,  0.011 sec
 * total energy  :  -153.3440511 Eh     change       -0.2875232E-03 Eh
   gradient norm :     0.0058862 Eh/α   predicted    -0.2662715E-03 (  -7.39%)
   displ. norm   :     0.7880316 α      lambda       -0.3240339E-03
   maximum displ.:     0.4613478 α      in ANC's #7, #3, #8, ...

........................................................................
.............................. CYCLE   40 ..............................
........................................................................
   1   -155.4574881 -0.155457E+03  0.237E-01    0.63       0.0  T
   2   -155.4575284 -0.402377E-04  0.122E-01    0.63       1.0  T
   3   -155.4575250  0.331999E-05  0.227E-02    0.63       1.0  T
   4   -155.4574871  0.379215E-04  0.234E-02    0.63       1.0  T
   5   -155.4575222 -0.350989E-04  0.130E-02    0.63       1.0  T
   6   -155.4575394 -0.172182E-04  0.312E-03    0.63       3.5  T
   7   -155.4575401 -0.662737E-06  0.155E-03    0.63       7.1  T
   8   -155.4575402 -0.821108E-07  0.113E-03    0.63       9.8  T
     SCC iter.                  ...        0 min,  0.061 sec
     gradient                   ...        0 min,  0.011 sec
 * total energy  :  -153.3443273 Eh     change       -0.2762008E-03 Eh
   gradient norm :     0.0061353 Eh/α   predicted    -0.2626289E-03 (  -4.91%)
   displ. norm   :     0.7119461 α      lambda       -0.3229320E-03
   maximum displ.:     0.4126243 α      in ANC's #7, #3, #6, ...

........................................................................
.............................. CYCLE   41 ..............................
........................................................................
   1   -155.4606874 -0.155461E+03  0.207E-01    0.63       0.0  T
   2   -155.4607162 -0.288138E-04  0.106E-01    0.62       1.0  T
   3   -155.4606019  0.114231E-03  0.366E-02    0.63       1.0  T
   4   -155.4606851 -0.831846E-04  0.238E-02    0.63       1.0  T
   5   -155.4607043 -0.191212E-04  0.171E-02    0.62       1.0  T
   6   -155.4607306 -0.263613E-04  0.400E-03    0.62       2.8  T
   7   -155.4607318 -0.117923E-05  0.216E-03    0.62       5.1  T
   8   -155.4607322 -0.362167E-06  0.991E-04    0.62      11.1  T
     SCC iter.                  ...        0 min,  0.061 sec
     gradient                   ...        0 min,  0.011 sec
 * total energy  :  -153.3445933 Eh     change       -0.2660120E-03 Eh
   gradient norm :     0.0060667 Eh/α   predicted    -0.2433081E-03 (  -8.53%)
   displ. norm   :     0.7667149 α      lambda       -0.3166363E-03
   maximum displ.:     0.4449287 α      in ANC's #7, #3, #6, ...

........................................................................
.............................. CYCLE   42 ..............................
........................................................................
   1   -155.4584220 -0.155458E+03  0.238E-01    0.62       0.0  T
   2   -155.4584571 -0.350964E-04  0.122E-01    0.62       1.0  T
   3   -155.4582795  0.177588E-03  0.452E-02    0.62       1.0  T
   4   -155.4584246 -0.145077E-03  0.260E-02    0.62       1.0  T
   5   -155.4584594 -0.348581E-04  0.129E-02    0.62       1.0  T
   6   -155.4584708 -0.113228E-04  0.667E-03    0.62       1.7  T
   7   -155.4584755 -0.472551E-05  0.163E-03    0.62       6.8  T
   8   -155.4584756 -0.140139E-06  0.896E-04    0.62      12.3  T
   9   -155.4584756 -0.133786E-07  0.541E-04    0.62      20.4  T
     SCC iter.                  ...        0 min,  0.069 sec
     gradient                   ...        0 min,  0.011 sec
 * total energy  :  -153.3448387 Eh     change       -0.2454218E-03 Eh
   gradient norm :     0.0054709 Eh/α   predicted    -0.2513864E-03 (   2.43%)
   displ. norm   :     0.6585085 α      lambda       -0.2742561E-03
   maximum displ.:     0.3733657 α      in ANC's #7, #3, #6, ...
 * RMSD in coord.:     1.2070771 α      energy gain  -0.5388714E-02 Eh

generating ANC from model Hessian ...
Using Lindh-Hessian (1995)
 Shifting diagonal of input Hessian by   4.985698245854586E-003
 Lowest  eigenvalues of input Hessian
   -0.000000   -0.000000   -0.000000   -0.000000    0.000000    0.000000
    0.005000    0.005018    0.005097    0.005134    0.005145    0.005192
    0.005233    0.005541    0.005565    0.005754    0.005837    0.006143
 Highest eigenvalues
    2.143998    2.248202    2.264088    2.270280    2.648849    2.653375
 

........................................................................
.............................. CYCLE   43 ..............................
........................................................................
   1   -155.4614297 -0.155461E+03  0.204E-01    0.62       0.0  T
   2   -155.4614606 -0.308703E-04  0.104E-01    0.62       1.0  T
   3   -155.4614097  0.509209E-04  0.295E-02    0.62       1.0  T
   4   -155.4614619 -0.521998E-04  0.158E-02    0.62       1.0  T
   5   -155.4614651 -0.326938E-05  0.102E-02    0.62       1.1  T
   6   -155.4614721 -0.694075E-05  0.443E-03    0.62       2.5  T
   7   -155.4614741 -0.203179E-05  0.169E-03    0.62       6.5  T
   8   -155.4614743 -0.198725E-06  0.957E-04    0.62      11.5  T
   9   -155.4614743 -0.252892E-07  0.666E-04    0.62      16.6  T
     SCC iter.                  ...        0 min,  0.067 sec
     gradient                   ...        0 min,  0.012 sec
 * total energy  :  -153.3450457 Eh     change       -0.2069930E-03 Eh
   gradient norm :     0.0045823 Eh/α   predicted     0.0000000E+00 (-100.00%)
   displ. norm   :     0.0817029 α      lambda       -0.8285859E-04
   maximum displ.:     0.0327537 α      in ANC's #9, #3, #5, ...

........................................................................
.............................. CYCLE   44 ..............................
........................................................................
   1   -155.4625279 -0.155463E+03  0.380E-02    0.62       0.0  T
   2   -155.4625288 -0.831685E-06  0.198E-02    0.62       1.0  T
   3   -155.4625154  0.133526E-04  0.116E-02    0.62       1.0  T
   4   -155.4625285 -0.130684E-04  0.431E-03    0.62       2.6  T
   5   -155.4625293 -0.807778E-06  0.277E-03    0.62       4.0  T
   6   -155.4625297 -0.413996E-06  0.145E-03    0.62       7.6  T
     SCC iter.                  ...        0 min,  0.046 sec
     gradient                   ...        0 min,  0.011 sec
 * total energy  :  -153.3451131 Eh     change       -0.6737444E-04 Eh
   gradient norm :     0.0023182 Eh/α   predicted    -0.4172233E-04 ( -38.07%)
   displ. norm   :     0.0953736 α      lambda       -0.7167646E-04
   maximum displ.:     0.0367824 α      in ANC's #9, #18, #3, ...

........................................................................
.............................. CYCLE   45 ..............................
........................................................................
   1   -155.4632289 -0.155463E+03  0.462E-02    0.62       0.0  T
   2   -155.4632302 -0.125795E-05  0.244E-02    0.62       1.0  T
   3   -155.4632100  0.202206E-04  0.146E-02    0.62       1.0  T
   4   -155.4632291 -0.191904E-04  0.575E-03    0.62       1.9  T
   5   -155.4632308 -0.169692E-05  0.377E-03    0.62       2.9  T
   6   -155.4632318 -0.958928E-06  0.172E-03    0.62       6.4  T
   7   -155.4632320 -0.217150E-06  0.856E-04    0.62      12.9  T
   8   -155.4632321 -0.712723E-07  0.264E-04    0.62      41.9  T
     SCC iter.                  ...        0 min,  0.059 sec
     gradient                   ...        0 min,  0.012 sec
 * total energy  :  -153.3451612 Eh     change       -0.4805898E-04 Eh
   gradient norm :     0.0020383 Eh/α   predicted    -0.3616492E-04 ( -24.75%)
   displ. norm   :     0.1769461 α      lambda       -0.9011865E-04
   maximum displ.:     0.0705697 α      in ANC's #9, #3, #5, ...

........................................................................
.............................. CYCLE   46 ..............................
........................................................................
   1   -155.4632997 -0.155463E+03  0.814E-02    0.62       0.0  T
   2   -155.4633029 -0.313833E-05  0.430E-02    0.62       1.0  T
   3   -155.4632350  0.678607E-04  0.260E-02    0.61       1.0  T
   4   -155.4633027 -0.676394E-04  0.899E-03    0.61       1.2  T
   5   -155.4633057 -0.298860E-05  0.592E-03    0.62       1.9  T
   6   -155.4633075 -0.187790E-05  0.292E-03    0.62       3.8  T
   7   -155.4633083 -0.730816E-06  0.140E-03    0.62       7.9  T
   8   -155.4633085 -0.199956E-06  0.398E-04    0.62      27.7  T
   9   -155.4633085 -0.450618E-08  0.249E-04    0.62      44.4  T
     SCC iter.                  ...        0 min,  0.071 sec
     gradient                   ...        0 min,  0.012 sec
 * total energy  :  -153.3452114 Eh     change       -0.5019413E-04 Eh
   gradient norm :     0.0037425 Eh/α   predicted    -0.4647061E-04 (  -7.42%)
   displ. norm   :     0.1116820 α      lambda       -0.4109653E-04
   maximum displ.:     0.0478426 α      in ANC's #9, #3, #5, ...

........................................................................
.............................. CYCLE   47 ..............................
........................................................................
   1   -155.4631770 -0.155463E+03  0.485E-02    0.61       0.0  T
   2   -155.4631785 -0.145219E-05  0.252E-02    0.61       1.0  T
   3   -155.4631729  0.562461E-05  0.848E-03    0.61       1.3  T
   4   -155.4631764 -0.357930E-05  0.578E-03    0.61       1.9  T
   5   -155.4631781 -0.164470E-05  0.348E-03    0.61       3.2  T
   6   -155.4631792 -0.107430E-05  0.107E-03    0.61      10.4  T
   7   -155.4631792 -0.931770E-07  0.472E-04    0.61      23.4  T
   8   -155.4631793 -0.197964E-07  0.193E-04    0.61      57.2  T
     SCC iter.                  ...        0 min,  0.061 sec
     gradient                   ...        0 min,  0.012 sec
 * total energy  :  -153.3452448 Eh     change       -0.3347602E-04 Eh
   gradient norm :     0.0031956 Eh/α   predicted    -0.2080489E-04 ( -37.85%)
   displ. norm   :     0.2087391 α      lambda       -0.7479559E-04
   maximum displ.:     0.0903829 α      in ANC's #9, #3, #5, ...

........................................................................
.............................. CYCLE   48 ..............................
........................................................................
   1   -155.4629528 -0.155463E+03  0.902E-02    0.61       0.0  T
   2   -155.4629575 -0.475599E-05  0.464E-02    0.61       1.0  T
   3   -155.4629338  0.237535E-04  0.166E-02    0.61       1.0  T
   4   -155.4629495 -0.156806E-04  0.110E-02    0.61       1.0  T
   5   -155.4629571 -0.765737E-05  0.548E-03    0.61       2.0  T
   6   -155.4629597 -0.257593E-05  0.168E-03    0.61       6.6  T
   7   -155.4629600 -0.268379E-06  0.751E-04    0.61      14.7  T
   8   -155.4629600 -0.471835E-07  0.327E-04    0.61      33.8  T
     SCC iter.                  ...        0 min,  0.060 sec
     gradient                   ...        0 min,  0.012 sec
 * total energy  :  -153.3453002 Eh     change       -0.5539208E-04 Eh
   gradient norm :     0.0020818 Eh/α   predicted    -0.3903909E-04 ( -29.52%)
   displ. norm   :     0.2233494 α      lambda       -0.5922053E-04
   maximum displ.:     0.0970931 α      in ANC's #9, #3, #5, ...

........................................................................
.............................. CYCLE   49 ..............................
........................................................................
   1   -155.4627078 -0.155463E+03  0.932E-02    0.61       0.0  T
   2   -155.4627128 -0.498070E-05  0.477E-02    0.61       1.0  T
   3   -155.4626947  0.181599E-04  0.151E-02    0.61       1.0  T
   4   -155.4627040 -0.933243E-05  0.112E-02    0.61       1.0  T
   5   -155.4627124 -0.841351E-05  0.496E-03    0.61       2.2  T
   6   -155.4627147 -0.225252E-05  0.165E-03    0.61       6.7  T
   7   -155.4627149 -0.281038E-06  0.647E-04    0.61      17.1  T
   8   -155.4627150 -0.345544E-07  0.259E-04    0.61      42.7  T
     SCC iter.                  ...        0 min,  0.060 sec
     gradient                   ...        0 min,  0.012 sec
 * total energy  :  -153.3453461 Eh     change       -0.4583725E-04 Eh
   gradient norm :     0.0028845 Eh/α   predicted    -0.3109229E-04 ( -32.17%)
   displ. norm   :     0.2675211 α      lambda       -0.6743800E-04
   maximum displ.:     0.1153856 α      in ANC's #9, #3, #5, ...

........................................................................
.............................. CYCLE   50 ..............................
........................................................................
   1   -155.4625854 -0.155463E+03  0.112E-01    0.61       0.0  T
   2   -155.4625925 -0.709892E-05  0.567E-02    0.61       1.0  T
   3   -155.4625773  0.152103E-04  0.153E-02    0.61       1.0  T
   4   -155.4625769  0.386462E-06  0.140E-02    0.61       1.0  T
   5   -155.4625926 -0.157660E-04  0.462E-03    0.61       2.4  T
   6   -155.4625947 -0.208660E-05  0.149E-03    0.61       7.4  T
   7   -155.4625949 -0.221362E-06  0.607E-04    0.61      18.2  T
   8   -155.4625950 -0.286125E-07  0.267E-04    0.61      41.4  T
     SCC iter.                  ...        0 min,  0.061 sec
     gradient                   ...        0 min,  0.012 sec
 * total energy  :  -153.3454038 Eh     change       -0.5770551E-04 Eh
   gradient norm :     0.0038319 Eh/α   predicted    -0.3614017E-04 ( -37.37%)
   displ. norm   :     0.4019439 α      lambda       -0.1119697E-03
   maximum displ.:     0.1766880 α      in ANC's #3, #9, #5, ...

........................................................................
.............................. CYCLE   51 ..............................
........................................................................
   1   -155.4623607 -0.155462E+03  0.165E-01    0.61       0.0  T
   2   -155.4623771 -0.164147E-04  0.837E-02    0.61       1.0  T
   3   -155.4623627  0.143700E-04  0.187E-02    0.61       1.0  T
   4   -155.4623419  0.208102E-04  0.206E-02    0.61       1.0  T
   5   -155.4623741 -0.321421E-04  0.833E-03    0.61       1.3  T
   6   -155.4623818 -0.772541E-05  0.198E-03    0.61       5.6  T
   7   -155.4623821 -0.322673E-06  0.990E-04    0.61      11.2  T
   8   -155.4623822 -0.817329E-07  0.424E-04    0.61      26.1  T
     SCC iter.                  ...        0 min,  0.060 sec
     gradient                   ...        0 min,  0.012 sec
 * total energy  :  -153.3454987 Eh     change       -0.9489314E-04 Eh
   gradient norm :     0.0044840 Eh/α   predicted    -0.6503196E-04 ( -31.47%)
   displ. norm   :     0.5183277 α      lambda       -0.1478085E-03
   maximum displ.:     0.2317508 α      in ANC's #3, #5, #9, ...

........................................................................
.............................. CYCLE   52 ..............................
........................................................................
   1   -155.4616199 -0.155462E+03  0.212E-01    0.61       0.0  T
   2   -155.4616471 -0.272148E-04  0.107E-01    0.61       1.0  T
   3   -155.4616252  0.219077E-04  0.235E-02    0.61       1.0  T
   4   -155.4616063  0.188646E-04  0.235E-02    0.61       1.0  T
   5   -155.4616327 -0.264129E-04  0.142E-02    0.61       1.0  T
   6   -155.4616557 -0.229265E-04  0.208E-03    0.61       5.3  T
   7   -155.4616560 -0.367579E-06  0.857E-04    0.61      12.9  T
   8   -155.4616561 -0.361678E-07  0.497E-04    0.61      22.2  T
     SCC iter.                  ...        0 min,  0.064 sec
     gradient                   ...        0 min,  0.013 sec
 * total energy  :  -153.3456154 Eh     change       -0.1167357E-03 Eh
   gradient norm :     0.0046295 Eh/α   predicted    -0.9376460E-04 ( -19.68%)
   displ. norm   :     0.5348553 α      lambda       -0.1576244E-03
   maximum displ.:     0.2434843 α      in ANC's #3, #5, #9, ...

........................................................................
.............................. CYCLE   53 ..............................
........................................................................
   1   -155.4611149 -0.155461E+03  0.215E-01    0.61       0.0  T
   2   -155.4611433 -0.283789E-04  0.109E-01    0.61       1.0  T
   3   -155.4611191  0.241709E-04  0.242E-02    0.61       1.0  T
   4   -155.4611291 -0.995786E-05  0.182E-02    0.61       1.0  T
   5   -155.4611397 -0.106000E-04  0.115E-02    0.61       1.0  T
   6   -155.4611528 -0.131370E-04  0.285E-03    0.61       3.9  T
   7   -155.4611535 -0.718721E-06  0.121E-03    0.61       9.1  T
   8   -155.4611536 -0.857557E-07  0.744E-04    0.61      14.8  T
     SCC iter.                  ...        0 min,  0.060 sec
     gradient                   ...        0 min,  0.011 sec
 * total energy  :  -153.3457215 Eh     change       -0.1060792E-03 Eh
   gradient norm :     0.0044070 Eh/α   predicted    -0.1013595E-03 (  -4.45%)
   displ. norm   :     0.4404548 α      lambda       -0.1221328E-03
   maximum displ.:     0.2042411 α      in ANC's #3, #5, #6, ...

........................................................................
.............................. CYCLE   54 ..............................
........................................................................
   1   -155.4614747 -0.155461E+03  0.171E-01    0.61       0.0  T
   2   -155.4614922 -0.174406E-04  0.871E-02    0.61       1.0  T
   3   -155.4614724  0.197971E-04  0.202E-02    0.61       1.0  T
   4   -155.4614812 -0.881158E-05  0.150E-02    0.61       1.0  T
   5   -155.4614845 -0.327850E-05  0.114E-02    0.61       1.0  T
   6   -155.4614983 -0.137940E-04  0.258E-03    0.61       4.3  T
   7   -155.4614989 -0.630384E-06  0.994E-04    0.61      11.1  T
   8   -155.4614989 -0.571466E-07  0.611E-04    0.61      18.1  T
     SCC iter.                  ...        0 min,  0.059 sec
     gradient                   ...        0 min,  0.011 sec
 * total energy  :  -153.3458126 Eh     change       -0.9112571E-04 Eh
   gradient norm :     0.0035182 Eh/α   predicted    -0.7291403E-04 ( -19.99%)
   displ. norm   :     0.4463883 α      lambda       -0.1008045E-03
   maximum displ.:     0.2092942 α      in ANC's #3, #5, #6, ...

........................................................................
.............................. CYCLE   55 ..............................
........................................................................
   1   -155.4613368 -0.155461E+03  0.173E-01    0.61       0.0  T
   2   -155.4613540 -0.172140E-04  0.875E-02    0.61       1.0  T
   3   -155.4613413  0.126541E-04  0.187E-02    0.61       1.0  T
   4   -155.4613316  0.974701E-05  0.178E-02    0.61       1.0  T
   5   -155.4613516 -0.199586E-04  0.866E-03    0.61       1.3  T
   6   -155.4613593 -0.777678E-05  0.168E-03    0.61       6.6  T
   7   -155.4613595 -0.218594E-06  0.882E-04    0.61      12.5  T
   8   -155.4613596 -0.431196E-07  0.578E-04    0.61      19.1  T
     SCC iter.                  ...        0 min,  0.061 sec
     gradient                   ...        0 min,  0.012 sec
 * total energy  :  -153.3458962 Eh     change       -0.8363230E-04 Eh
   gradient norm :     0.0033340 Eh/α   predicted    -0.6045048E-04 ( -27.72%)
   displ. norm   :     0.4456738 α      lambda       -0.1281521E-03
   maximum displ.:     0.2130636 α      in ANC's #3, #5, #6, ...

........................................................................
.............................. CYCLE   56 ..............................
........................................................................
   1   -155.4651838 -0.155465E+03  0.162E-01    0.61       0.0  T
   2   -155.4651981 -0.143517E-04  0.824E-02    0.61       1.0  T
   3   -155.4651458  0.523128E-04  0.252E-02    0.61       1.0  T
   4   -155.4651691 -0.232300E-04  0.198E-02    0.61       1.0  T
   5   -155.4651992 -0.301061E-04  0.753E-03    0.61       1.5  T
   6   -155.4652040 -0.486683E-05  0.170E-03    0.61       6.5  T
   7   -155.4652043 -0.268288E-06  0.644E-04    0.61      17.2  T
   8   -155.4652043 -0.787139E-08  0.469E-04    0.61      23.5  T
     SCC iter.                  ...        0 min,  0.062 sec
     gradient                   ...        0 min,  0.012 sec
 * total energy  :  -153.3459822 Eh     change       -0.8597905E-04 Eh
   gradient norm :     0.0042080 Eh/α   predicted    -0.7680673E-04 ( -10.67%)
   displ. norm   :     0.6638204 α      lambda       -0.1392249E-03
   maximum displ.:     0.3165480 α      in ANC's #3, #5, #6, ...

........................................................................
.............................. CYCLE   57 ..............................
........................................................................
   1   -155.4603849 -0.155460E+03  0.259E-01    0.61       0.0  T
   2   -155.4604214 -0.364425E-04  0.131E-01    0.61       1.0  T
   3   -155.4602627  0.158624E-03  0.432E-02    0.61       1.0  T
   4   -155.4603720 -0.109287E-03  0.286E-02    0.61       1.0  T
[...]
       127        2.0000           -0.4239414             -11.5360
       128        2.0000           -0.4225448             -11.4980
       129        2.0000           -0.4221729             -11.4879
       130        2.0000           -0.4184170             -11.3857
       131        2.0000           -0.4125034             -11.2248
       132        2.0000           -0.4101757             -11.1614
       133        2.0000           -0.4048875             -11.0176
       134        2.0000           -0.4002677             -10.8918
       135        2.0000           -0.3937879             -10.7155
       136        2.0000           -0.3836776             -10.4404
       137        2.0000           -0.3719732             -10.1219
       138        2.0000           -0.3568722              -9.7110
       139        2.0000           -0.3458381              -9.4107 (HOMO)
       140        0.0000           -0.3230276              -8.7900 (LUMO)
       141                         -0.3124123              -8.5012
       142                         -0.3102661              -8.4428
       143                         -0.3059620              -8.3256
       144                         -0.2992740              -8.1437
       145                         -0.2664036              -7.2492
       146                         -0.2635305              -7.1710
       147                         -0.2504375              -6.8148
       148                         -0.2449338              -6.6650
       149                         -0.2359570              -6.4207
       150                         -0.2344284              -6.3791
       ...                                ...                  ...
       285                          0.7091724              19.2976
      -------------------------------------------------------------
                  HL-Gap            0.0228105 Eh            0.6207 eV
             Fermi-level           -0.3344328 Eh           -9.1004 eV

     #   Z        covCN         q      C6AA      α(0)
     1   6 C      2.879    -0.101    30.529     9.058
     2   6 C      2.968     0.053    26.811     8.493
     3   6 C      3.048    -0.040    28.935     8.822
     4   6 C      3.047    -0.034    28.803     8.802
     5   6 C      3.022     0.027    27.365     8.581
     6  16 S      2.294    -0.086   144.630    20.241
     7   6 C      3.018     0.030    27.316     8.573
     8   6 C      3.057    -0.038    28.875     8.812
     9   6 C      3.050    -0.041    28.962     8.826
    10   6 C      2.981     0.022    27.519     8.605
    11  16 S      2.303    -0.102   145.299    20.288
    12   6 C      2.870    -0.007    28.188     8.703
    13   7 N      2.724    -0.076    22.708     7.077
    14   6 C      2.935     0.065    26.549     8.450
    15  16 S      2.261     0.031   139.779    19.899
    16   6 C      2.940    -0.002    28.067     8.689
    17   7 N      2.795     0.528    13.720     5.501
    18   8 O      0.933    -0.410    21.838     6.267
    19   8 O      0.937    -0.409    21.825     6.265
    20   6 C      3.066    -0.037    28.853     8.808
    21   6 C      3.105    -0.021    28.399     8.732
    22   6 C      2.901    -0.046    29.144     8.852
    23   6 C      2.932    -0.046    29.148     8.854
    24   6 C      2.980     0.011    27.761     8.643
    25  16 S      2.326     0.014   140.489    19.949
    26   6 C      2.924    -0.023    28.571     8.766
    27   6 C      3.181    -0.012    27.863     8.617
    28   6 C      3.151    -0.021    28.242     8.692
    29   6 C      2.901     0.052    26.834     8.494
    30   6 C      2.920    -0.045    29.129     8.851
    31   6 C      2.914    -0.078    29.938     8.972
    32   6 C      2.837     0.142    24.907     8.179
    33   8 O      1.660    -0.380    20.472     6.108
    34   7 N      2.723    -0.151    24.258     7.315
    35   6 C      2.935     0.079    26.238     8.401
    36  16 S      2.271     0.016   140.417    19.944
    37   6 C      2.937    -0.000    28.039     8.684
    38   7 N      2.793     0.530    13.700     5.497
    39   8 O      0.933    -0.409    21.828     6.266
    40   8 O      0.936    -0.406    21.768     6.257
    41   6 C      3.072    -0.037    28.832     8.804
    42   6 C      3.106    -0.016    28.263     8.711
    43   6 C      2.904    -0.043    29.056     8.839
    44   6 C      2.898    -0.032    28.797     8.799
    45   6 C      2.936    -0.049    29.214     8.864
    46   6 C      2.979     0.038    27.136     8.545
    47   6 C      3.062    -0.043    28.995     8.830
    48   6 C      3.056    -0.039    28.902     8.817
    49   6 C      3.020     0.025    27.419     8.589
    50  16 S      2.301    -0.071   144.016    20.198
    51   6 C      3.019     0.027    27.368     8.581
    52   6 C      3.049    -0.035    28.815     8.804
    53   6 C      3.047    -0.041    28.971     8.828
    54   6 C      2.969     0.052    26.836     8.497
    55  16 S      2.290    -0.078   144.287    20.217
    56   6 C      2.879    -0.101    30.546     9.060
    57   1 H      0.926     0.053     2.277     2.360
    58   1 H      0.926     0.054     2.273     2.358
    59   1 H      0.926     0.047     2.358     2.401
    60   1 H      0.926     0.043     2.415     2.430
    61   1 H      0.926     0.045     2.388     2.416
    62   1 H      0.926     0.048     2.350     2.397
    63   1 H      0.926     0.075     2.034     2.230
    64   1 H      0.860     0.206     1.078     1.627
    65   1 H      0.926     0.079     1.993     2.208
    66   1 H      0.925     0.038     2.480     2.463
    67   1 H      0.926     0.057     2.231     2.336
    68   1 H      0.927     0.065     2.139     2.287
    69   1 H      0.926     0.044     2.395     2.420
    70   1 H      0.926     0.038     2.474     2.460
    71   1 H      0.805     0.308     0.697     1.311
    72   1 H      0.860     0.180     1.215     1.727
    73   1 H      0.926     0.083     1.946     2.181
    74   1 H      0.926     0.038     2.477     2.461
    75   1 H      0.926     0.052     2.297     2.370
    76   1 H      0.925     0.039     2.464     2.455
    77   1 H      0.926     0.040     2.453     2.449
    78   1 H      0.926     0.039     2.463     2.454
    79   1 H      0.926     0.040     2.442     2.444
    80   1 H      0.926     0.045     2.384     2.415
    81   1 H      0.926     0.052     2.296     2.370
    82   1 H      0.926     0.054     2.265     2.354

 Mol. C6AA /au·bohr⁶  :     139739.410705
 Mol. C8AA /au·bohr⁸  :    4168756.460739
 Mol. α(0) /au        :        605.199377


Wiberg/Mayer (AO) data.
largest (>0.10) Wiberg bond orders for each atom
          total WBO             WBO to atom ...
     1  C   3.872        C    2 1.725    H   58 0.976    H   57 0.969
     2  C   3.961        C    1 1.725    C    3 1.151    S    6 1.036
     3  C   3.919        C    4 1.664    C    2 1.151    H   59 0.963
     4  C   3.987        C    3 1.664    C    5 1.198    H   60 0.962
     5  C   3.919        C    7 1.440    C    4 1.198    S    6 1.087
     6  S   2.405        C    5 1.087    C    2 1.036
     7  C   3.953        C    5 1.440    C    8 1.223    S   11 1.065
     8  C   3.958        C    9 1.613    C    7 1.223    H   61 0.961
     9  C   3.937        C    8 1.613    C   10 1.207    H   62 0.962
    10  C   3.925        C   12 1.516    C    9 1.207    S   11 1.053
    11  S   2.410        C    7 1.065    C   10 1.053
    12  C   3.877        C   10 1.516    N   13 1.186    H   63 0.947
    13  N   3.541        C   14 1.222    C   12 1.186    H   64 0.905
    14  C   3.906        C   21 1.297    N   13 1.222    S   15 1.163
    15  S   2.587        C   14 1.163    C   16 1.085
    16  C   3.885        C   20 1.473    S   15 1.085    N   17 1.068
    17  N   3.893        O   18 1.393    O   19 1.387    C   16 1.068
    18  O   1.863        N   17 1.393    O   19 0.317
    19  O   1.875        N   17 1.387    O   18 0.317
    20  C   3.958        C   16 1.473    C   21 1.304    H   65 0.955
    21  C   3.954        C   20 1.304    C   14 1.297    C   22 1.153
    22  C   3.962        C   23 1.655    C   21 1.153    H   66 0.950
    23  C   3.958        C   22 1.655    C   24 1.210    H   67 0.947
    24  C   3.941        C   28 1.350    C   23 1.210    S   25 1.147    C   26 0.112
    25  S   2.685        C   26 1.251    C   24 1.147
    26  C   3.914        C   27 1.452    S   25 1.251    H   68 0.967    C   24 0.112
    27  C   3.984        C   26 1.452    C   28 1.177    C   32 1.169
    28  C   3.960        C   24 1.350    C   29 1.210    C   27 1.177
    29  C   3.951        C   30 1.510    C   28 1.210    N   34 1.007
    30  C   3.957        C   29 1.510    C   31 1.300    H   69 0.967
    31  C   3.976        C   32 1.499    C   30 1.300    H   70 0.965
    32  C   3.923        C   31 1.499    C   27 1.169    O   33 1.086
    33  O   2.135        C   32 1.086    H   71 0.884
    34  N   3.378        C   35 1.201    C   29 1.007    H   72 0.927
    35  C   3.911        C   42 1.323    N   34 1.201    S   36 1.179
    36  S   2.613        C   35 1.179    C   37 1.088
    37  C   3.905        C   41 1.482    S   36 1.088    N   38 1.063
    38  N   3.903        O   39 1.396    O   40 1.394    C   37 1.063
    39  O   1.877        N   38 1.396    O   40 0.321
    40  O   1.888        N   38 1.394    O   39 0.321
    41  C   3.960        C   37 1.482    C   42 1.289    H   73 0.954
    42  C   3.973        C   35 1.323    C   41 1.289    C   43 1.156
    43  C   3.881        C   44 1.617    C   42 1.156    H   74 0.958
    44  C   3.980        C   43 1.617    C   45 1.260    H   75 0.956
    45  C   3.906        C   46 1.499    C   44 1.260    H   76 0.956
    46  C   3.928        C   45 1.499    C   47 1.213    S   50 1.071
    47  C   3.940        C   48 1.610    C   46 1.213    H   77 0.964
    48  C   3.947        C   47 1.610    C   49 1.224    H   78 0.962
    49  C   3.960        C   51 1.431    C   48 1.224    S   50 1.082
    50  S   2.457        C   49 1.082    C   46 1.071
    51  C   3.917        C   49 1.431    C   52 1.201    S   55 1.091
    52  C   3.987        C   53 1.660    C   51 1.201    H   79 0.962
    53  C   3.916        C   52 1.660    C   54 1.152    H   80 0.963
    54  C   3.961        C   56 1.721    C   53 1.152    S   55 1.039
    55  S   2.412        C   51 1.091    C   54 1.039
    56  C   3.866        C   54 1.721    H   82 0.976    H   81 0.970
    57  H   0.997        C    1 0.969
    58  H   0.997        C    1 0.976
    59  H   0.997        C    3 0.963
    60  H   0.998        C    4 0.962
    61  H   0.997        C    8 0.961
    62  H   0.997        C    9 0.962
    63  H   0.994        C   12 0.947
    64  H   0.957        N   13 0.905
    65  H   0.993        C   20 0.955
    66  H   0.998        C   22 0.950
    67  H   0.996        C   23 0.947
    68  H   0.995        C   26 0.967
    69  H   0.997        C   30 0.967
    70  H   0.997        C   31 0.965
    71  H   0.905        O   33 0.884
    72  H   0.966        N   34 0.927
    73  H   0.993        C   41 0.954
    74  H   0.998        C   43 0.958
    75  H   0.997        C   44 0.956
    76  H   0.998        C   45 0.956
    77  H   0.998        C   47 0.964
    78  H   0.998        C   48 0.962
    79  H   0.998        C   52 0.962
    80  H   0.997        C   53 0.963
    81  H   0.997        C   56 0.970
    82  H   0.996        C   56 0.976

molecular dipole:
                 x           y           z       tot (Debye)
 q only:        3.884       2.163      -5.953
   full:        3.887       2.120      -6.631      20.265
molecular quadrupole (traceless):
                xx          xy          yy          xz          yz          zz
 q only:       74.017    -148.568    -116.198     -31.600     226.897      42.181
  q+dip:       73.886    -158.843    -128.893     -38.270     256.407      55.007
   full:       71.095    -158.744    -123.107     -36.283     257.828      52.012

           -------------------------------------------------
          |                Geometry Summary                 |
           -------------------------------------------------

      molecular mass/u    :      867.0892000
   center of mass at/Å    :        2.1507439     -12.8068857      -3.3347659
  moments of inertia/u·Å² :        0.1622153E+05   0.2783370E+05   0.3620325E+05
rotational constants/cm⁻¹ :        0.1039213E-02   0.6056554E-03   0.4656386E-03

 * 85 selected distances

     #   Z        #   Z                                     value/Å
     1   6 C      2   6 C                                 1.3389560
     2   6 C      3   6 C                                 1.4359468
     3   6 C      4   6 C                                 1.3499028
     4   6 C      5   6 C                                 1.4245744
     5   6 C      6  16 S                                 1.7548268
     5   6 C      7   6 C                                 1.3707696
     7   6 C      8   6 C                                 1.4193054
     8   6 C      9   6 C                                 1.3563021
     9   6 C     10   6 C                                 1.4214960
     7   6 C     11  16 S                                 1.7560658 (max)
    10   6 C     12   6 C                                 1.3599636
    12   6 C     13   7 N                                 1.3609664
    13   7 N     14   6 C                                 1.3490209
    14   6 C     15  16 S                                 1.7346914
    15  16 S     16   6 C                                 1.7393797
    16   6 C     17   7 N                                 1.3910370
    17   7 N     18   8 O                                 1.2202223
    17   7 N     19   8 O                                 1.2233420
    16   6 C     20   6 C                                 1.3704877
    14   6 C     21   6 C                                 1.4073188
    20   6 C     21   6 C                                 1.4051909
    21   6 C     22   6 C                                 1.4341057
    22   6 C     23   6 C                                 1.3508260
    23   6 C     24   6 C                                 1.4204609
    24   6 C     25  16 S                                 1.7412985
    25  16 S     26   6 C                                 1.6985624
    26   6 C     27   6 C                                 1.3763777
    24   6 C     28   6 C                                 1.3985882
    27   6 C     28   6 C                                 1.4358922
    28   6 C     29   6 C                                 1.4209008
    29   6 C     30   6 C                                 1.3708679
    30   6 C     31   6 C                                 1.4054035
    27   6 C     32   6 C                                 1.4241879
    31   6 C     32   6 C                                 1.3671187
    32   6 C     33   8 O                                 1.3548903
    29   6 C     34   7 N                                 1.4191165
    34   7 N     35   6 C                                 1.3618227
    35   6 C     36  16 S                                 1.7335840
    36  16 S     37   6 C                                 1.7387954
    37   6 C     38   7 N                                 1.3930245
    38   7 N     39   8 O                                 1.2197908
    38   7 N     40   8 O                                 1.2222209
    37   6 C     41   6 C                                 1.3694603
    35   6 C     42   6 C                                 1.4034481
    41   6 C     42   6 C                                 1.4083570
    42   6 C     43   6 C                                 1.4334437
    43   6 C     44   6 C                                 1.3551594
    44   6 C     45   6 C                                 1.4111731
    45   6 C     46   6 C                                 1.3664734
    46   6 C     47   6 C                                 1.4217045
    47   6 C     48   6 C                                 1.3565512
    48   6 C     49   6 C                                 1.4190510
    49   6 C     50  16 S                                 1.7546091
    49   6 C     51   6 C                                 1.3725837
    51   6 C     52   6 C                                 1.4243469
    52   6 C     53   6 C                                 1.3502777
    53   6 C     54   6 C                                 1.4355500
    51   6 C     55  16 S                                 1.7532281
    54   6 C     56   6 C                                 1.3393815
     1   6 C     57   1 H                                 1.0755984
     1   6 C     58   1 H                                 1.0745769
     3   6 C     59   1 H                                 1.0755398
     4   6 C     60   1 H                                 1.0756067
     8   6 C     61   1 H                                 1.0749207
     9   6 C     62   1 H                                 1.0751185
    12   6 C     63   1 H                                 1.0792537
    13   7 N     64   1 H                                 1.0147767
    20   6 C     65   1 H                                 1.0740528
    22   6 C     66   1 H                                 1.0831949
    23   6 C     67   1 H                                 1.0782188
    26   6 C     68   1 H                                 1.0706927
    30   6 C     69   1 H                                 1.0793877
    31   6 C     70   1 H                                 1.0804985
    33   8 O     71   1 H                                 0.9654075 (min)
    34   7 N     72   1 H                                 1.0123505
    41   6 C     73   1 H                                 1.0742888
    43   6 C     74   1 H                                 1.0806993
    44   6 C     75   1 H                                 1.0810153
    45   6 C     76   1 H                                 1.0827543
    47   6 C     77   1 H                                 1.0760168
    48   6 C     78   1 H                                 1.0752879
    52   6 C     79   1 H                                 1.0757255
    53   6 C     80   1 H                                 1.0756996
    56   6 C     81   1 H                                 1.0757916
    56   6 C     82   1 H                                 1.0744302

 * 8 distinct bonds (by element types)

   Z      Z             #   av. dist./Å        max./Å        min./Å
   1 H    6 C          23     1.0768856     1.0831949     1.0706927
   6 C    6 C          38     1.3929449     1.4359468     1.3389560
   1 H    7 N           2     1.0135636     1.0147767     1.0123505
   6 C    7 N           6     1.3791647     1.4191165     1.3490209
   1 H    8 O           1     0.9654075     0.9654075     0.9654075
   6 C    8 O           1     1.3548903     1.3548903     1.3548903
   7 N    8 O           4     1.2213940     1.2233420     1.2197908
   6 C   16 S          10     1.7405041     1.7560658     1.6985624


optimized geometry written to: xtbopt.xyz


           -------------------------------------------------
          | TOTAL ENERGY             -153.347759815087 Eh   |
          | GRADIENT NORM               0.000706481552 Eh/α |
          | HOMO-LUMO GAP               0.620704715760 eV   |
           -------------------------------------------------

------------------------------------------------------------------------
 * finished run on 2021/06/14 at 11:01:07.972     
------------------------------------------------------------------------
 total:
 * wall-time:     0 d,  0 h,  0 min, 11.974 sec
 *  cpu-time:     0 d,  0 h,  2 min, 23.482 sec
 * ratio c/w:    11.982 speedup
 SCF:
 * wall-time:     0 d,  0 h,  0 min,  0.161 sec
 *  cpu-time:     0 d,  0 h,  0 min,  1.923 sec
 * ratio c/w:    11.957 speedup
 ANC optimizer:
 * wall-time:     0 d,  0 h,  0 min, 11.759 sec
 *  cpu-time:     0 d,  0 h,  2 min, 21.046 sec
 * ratio c/w:    11.995 speedup

