      -----------------------------------------------------------      
     |                   =====================                   |     
     |                           x T B                           |     
     |                   =====================                   |     
     |                         S. Grimme                         |     
     |          Mulliken Center for Theoretical Chemistry        |     
     |                    University of Bonn                     |     
     |                Version 6.2 RC2 (SAW190805)                |     
      -----------------------------------------------------------      

   This program is distributed in the hope that it will be useful,
   but WITHOUT ANY WARRANTY; without even the implied warranty of
   MERCHANTABILITY or FITNESS FOR A PARTICULAR PURPOSE.
   
   FOR NON-COMMERCIAL, ACADEMIA USE ONLY.
   
   Cite this work as:
   * S. Grimme, C. Bannwarth, P. Shushkov, J. Chem. Theory Comput., 2017,
     13, 1989-2009. DOI: 10.1021/acs.jctc.7b00118
   * C. Bannwarth, S. Ehlert and S. Grimme., J. Chem. Theory Comput., 2019,
     15, 1652-1671. DOI: 10.1021/acs.jctc.8b01176
   * P. Pracht, E. Caldeweyher, S. Ehlert, S. Grimme, ChemRxiv, 2019, preprint.
     DOI: 10.26434/chemrxiv.8326202.v1
   
   for DFT-D4:
   * E. Caldeweyher, C. Bannwarth and S. Grimme, J. Chem. Phys., 2017,
     147, 034112. DOI: 10.1063/1.4993215
   * E. Caldeweyher, S. Ehlert, A. Hansen, H. Neugebauer, S. Spicher,
     C. Bannwarth and S. Grimme, J. Chem. Phys., 2019, 150, 154122.
     DOI: 10.1063/1.5090222
   
   for sTDA-xTB:
   * S. Grimme and C. Bannwarth, J. Chem. Phys., 2016, 145, 054103.
     DOI: 10.1063/1.4959605
   
   in the mass-spec context:
   * V. Asgeirsson, C. Bauer and S. Grimme, Chem. Sci., 2017, 8, 4879.
     DOI: 10.1039/c7sc00601b
   
   for metadynamics refer to:
   * S. Grimme, J. Chem. Theory Comput., 2019, 155, 2847-2862
     DOI: 10.1021/acs.jctc.9b00143
   
   with help from (in alphabetical order)
   C. Bannwarth, F. Bohle, G. Brandenburg, E. Caldeweyher, M. Checinski,
   S. Dohm, S. Ehlert, S. Ehrlich, F. März, H. Neugebauer, J. Pisarek,
   P. Pracht, P. Shushkov, and S. Spicher.
   
 * started run on 2021/06/04 at 07:10:42.690     

           -------------------------------------------------
          |                Calculation Setup                |
           -------------------------------------------------

          program call               : /ihome/ghutchison/geoffh/xtb/xtb /ihome/ghutchison/blp62/GA/running_GA/sequence/generations/24/47_47_129_47_47_00200.xyz -opt
          hostname                   : smp-n19
          coordinate file            : /ihome/ghutchison/blp62/GA/running_GA/sequence/generations/24/47_47_129_47_47_00200.xyz
          omp threads                :                    12
          number of atoms            :                    88
          number of electrons        :                   282
          charge                     :                     0
          spin                       :                   0.0
          first test random number   :      0.19227429914443


########################################################################
# WARNING! Please study the warnings concerning your input carefully
#  - XTBPATH is not set, using XTBHOME instead
#  - the use of '-opt' is discouraged, please use '--opt' next time
########################################################################

           ------------------------------------------------- 
          |                 G F N 2 - x T B                 |
          | Geometry, Frequencies, Noncovalent interactions |
          |            JCTC 2019 parametrisation            |
           ------------------------------------------------- 
             KAB for C  - Si     :                1.0500
             KAB for H  - Pd     :                0.9500
             k(s)              :                1.8500
             k(p)              :                2.2300
             k(d)              :                2.2300
             k(f)              :                2.0000
             kEN (H0ij)        :               -2.0000
             D4 a1             :                0.5200
             D4 a2             :                5.0000
             D4 s6             :                1.0000
             D4 s8             :                2.7000
             D4 s9             :                5.0000
             alphaj            :                2.0000

  Z AO/shell   Hii/eV     exponent
  1     Wed Apr 25 08:07:45 CEST 2018   EN: 2.200 GM2: 0.406  GM3: 0.0800  RAES: 1.40
     1s    -10.707211    1.230000
  6     Wed Apr 25 08:07:45 CEST 2018   EN: 2.550 GM2: 0.538  GM3: 0.1500  RAES: 3.00
     2s    -13.970922    2.096432
     2p    -10.063292    1.800000
  7     Wed Apr 25 08:07:45 CEST 2018   EN: 3.040 GM2: 0.461  GM3:-0.0640  RAES: 1.90
     2s    -16.686243    2.339881
     2p    -12.523956    2.014332
 16     Tue Apr 24 11:44:34 CEST 2018   EN: 2.580 GM2: 0.340  GM3:-0.0502  RAES: 3.10
     3s    -20.029654    1.981333
     3p    -11.377694    2.025643
     3d     -0.420282    1.702555

           ------------------------------------------------- 
          |        Self-Consistent Charge Iterations        |
           ------------------------------------------------- 

          ...................................................
          :                      SETUP                      :
          :.................................................:
          :  # basis functions                 316          :
          :  # atomic orbitals                 307          :
          :  # shells                          155          :
          :  # electrons                       282          :
          :  max. iterations                   250          :
          :  Hamiltonian                  GFN2-xTB          :
          :  restarted?                      false          :
          :  GBSA solvation                  false          :
          :  PC potential                    false          :
          :  electronic temp.          300.0000000     K    :
          :  accuracy                    1.0000000          :
          :  -> integral cutoff          0.2500000E+02      :
          :  -> integral neglect         0.1000000E-07      :
          :  -> SCF convergence          0.1000000E-05 Eh   :
          :  -> wf. convergence          0.1000000E-03 e    :
          :  Broyden damping             0.4000000          :
          ...................................................

 iter      E             dE          RMSdq      gap      omega  full diag
   1   -152.9490734 -0.152949E+03  0.466E+00    0.86       0.0  T
   2   -153.0390789 -0.900055E-01  0.271E+00    0.80       1.0  T
   3   -152.8675572  0.171522E+00  0.164E+00    0.79       1.0  T
   4   -153.0636777 -0.196120E+00  0.700E-01    0.80       1.0  T
   5   -153.0926654 -0.289877E-01  0.312E-01    0.78       1.0  T
   6   -153.0975564 -0.489095E-02  0.137E-01    0.79       1.0  T
   7   -153.0978676 -0.311266E-03  0.101E-01    0.79       1.0  T
   8   -153.0989349 -0.106729E-02  0.282E-02    0.79       1.0  T
   9   -153.0989887 -0.537468E-04  0.158E-02    0.79       1.0  T
  10   -153.0990058 -0.171709E-04  0.773E-03    0.79       1.4  T
  11   -153.0990074 -0.162521E-05  0.417E-03    0.79       2.6  T
  12   -153.0990083 -0.861615E-06  0.268E-03    0.79       4.0  T
  13   -153.0990089 -0.584999E-06  0.108E-03    0.79       9.8  T
  14   -153.0990089 -0.182341E-07  0.716E-04    0.79      14.9  T
  15   -153.0990089 -0.218577E-07  0.370E-04    0.79      28.8  T

   *** convergence criteria satisfied after 15 iterations ***

         #    Occupation            Energy/Eh            Energy/eV
      -------------------------------------------------------------
         1        2.0000           -0.7305070             -19.8781
       ...           ...                  ...                  ...
       135        2.0000           -0.3843818             -10.4596
       136        2.0000           -0.3816959             -10.3865
       137        2.0000           -0.3647131              -9.9243
       138        2.0000           -0.3534738              -9.6185
       139        2.0000           -0.3465894              -9.4312
       140        2.0000           -0.3408810              -9.2758
       141        2.0000           -0.3352424              -9.1224 (HOMO)
       142        0.0000           -0.3062427              -8.3333 (LUMO)
       143                         -0.2973951              -8.0925
       144                         -0.2913300              -7.9275
       145                         -0.2846794              -7.7465
       146                         -0.2709331              -7.3725
       ...                                ...                  ...
       307                          0.8015778              21.8120
      -------------------------------------------------------------
                  HL-Gap            0.0289997 Eh            0.7891 eV
             Fermi-level           -0.3207414 Eh           -8.7278 eV

 SCC (total)                   0 d,  0 h,  0 min,  0.172 sec
 SCC setup                      ...        0 min,  0.002 sec (  0.993%)
 Dispersion                     ...        0 min,  0.003 sec (  1.813%)
 integral evaluation            ...        0 min,  0.019 sec ( 11.326%)
 zeroth order Hamiltonian       ...        0 min,  0.001 sec (  0.606%)
 iterations                     ...        0 min,  0.131 sec ( 76.519%)
 molecular gradient             ...        0 min,  0.014 sec (  8.277%)
 printout                       ...        0 min,  0.001 sec (  0.414%)

         :::::::::::::::::::::::::::::::::::::::::::::::::::::
         ::                     SUMMARY                     ::
         :::::::::::::::::::::::::::::::::::::::::::::::::::::
         :: total energy            -150.716876239796 Eh    ::
         :: gradient norm              0.186323859355 Eh/a0 ::
         :: HOMO-LUMO gap              0.789122280123 eV    ::
         ::.................................................::
         :: SCC energy              -153.099008936279 Eh    ::
         :: -> isotropic ES            0.017205879505 Eh    ::
         :: -> anisotropic ES          0.013849842054 Eh    ::
         :: -> anisotropic XC          0.086725997196 Eh    ::
         :: -> dispersion             -0.132960133582 Eh    ::
         :: repulsion energy           2.381511104571 Eh    ::
         :: add. restraining           0.000000000000 Eh    ::
         :::::::::::::::::::::::::::::::::::::::::::::::::::::

      ----------------------------------------------------------- 
     |                   =====================                   |
     |                        A N C O P T                        |
     |                   =====================                   |
     |               Approximate Normal Coordinate               |
     |                Rational Function Optimizer                |
      ----------------------------------------------------------- 

          ...................................................
          :                      SETUP                      :
          :.................................................:
          :   optimization level            normal          :
          :   max. optcycles                   264          :
          :   ANC micro-cycles                  20          :
          :   degrees of freedom               258          :
          :.................................................:
          :   RF solver                   davidson          :
          :   input Hessian                  false          :
          :   write xtbopt.log                true          :
          :   linear?                        false          :
          :   energy convergence         0.5000000E-05 Eh   :
          :   grad. convergence          0.1000000E-02 Eh/α :
          :   maximium RF displ.         2.0000000          :
          :   Hlow (freq-cutoff)         0.5000000E-02      :
          :   Hmax (freq-cutoff)         5.0000000          :
          :   S6 in model hess.         20.0000000          :
          ...................................................

generating ANC from model Hessian ...
Using Lindh-Hessian (1995)
 Shifting diagonal of input Hessian by   4.984959763023292E-003
 Lowest  eigenvalues of input Hessian
   -0.000000   -0.000000   -0.000000    0.000000    0.000000    0.000000
    0.005000    0.005015    0.005041    0.005078    0.005149    0.005169
    0.005173    0.005265    0.005416    0.005549    0.005685    0.005800
 Highest eigenvalues
    2.054839    2.068913    2.081333    2.089849    2.212256    2.294767
 

........................................................................
.............................. CYCLE    1 ..............................
........................................................................
   1   -153.0990089 -0.153099E+03  0.223E-04    0.79       0.0  T
   2   -153.0990089  0.164110E-08  0.235E-04    0.79      45.4  T
   3   -153.0990089 -0.379279E-08  0.108E-04    0.79      98.4  T
     SCC iter.                  ...        0 min,  0.027 sec
     gradient                   ...        0 min,  0.014 sec
 * total energy  :  -150.7168764 Eh     change       -0.1895045E-06 Eh
   gradient norm :     0.1863232 Eh/α   predicted     0.0000000E+00 (-100.00%)
   displ. norm   :     0.4076412 α      lambda       -0.3923560E-01
   maximum displ.:     0.0964529 α      in ANC's #69, #100, #49, ...

........................................................................
.............................. CYCLE    2 ..............................
........................................................................
   1   -153.1280952 -0.153128E+03  0.427E-01    0.64       0.0  T
   2   -153.1286409 -0.545712E-03  0.211E-01    0.65       1.0  T
   3   -153.1280357  0.605206E-03  0.994E-02    0.65       1.0  T
   4   -153.1287572 -0.721530E-03  0.409E-02    0.65       1.0  T
   5   -153.1288078 -0.505490E-04  0.286E-02    0.65       1.0  T
   6   -153.1288516 -0.437892E-04  0.170E-02    0.65       1.0  T
   7   -153.1288763 -0.247075E-04  0.676E-03    0.65       1.6  T
   8   -153.1288808 -0.454553E-05  0.196E-03    0.65       5.4  T
   9   -153.1288810 -0.169071E-06  0.123E-03    0.65       8.7  T
     SCC iter.                  ...        0 min,  0.077 sec
     gradient                   ...        0 min,  0.013 sec
 * total energy  :  -150.7458566 Eh     change       -0.2898022E-01 Eh
   gradient norm :     0.0941215 Eh/α   predicted    -0.2287777E-01 ( -21.06%)
   displ. norm   :     0.5188758 α      lambda       -0.2063721E-01
   maximum displ.:     0.1597735 α      in ANC's #46, #48, #49, ...

........................................................................
.............................. CYCLE    3 ..............................
........................................................................
   1   -153.1422669 -0.153142E+03  0.404E-01    0.47       0.0  T
   2   -153.1423968 -0.129921E-03  0.209E-01    0.49       1.0  T
   3   -153.1362198  0.617707E-02  0.226E-01    0.47       1.0  T
   4   -153.1422532 -0.603341E-02  0.788E-02    0.49       1.0  T
   5   -153.1429753 -0.722074E-03  0.326E-02    0.49       1.0  T
   6   -153.1430174 -0.421398E-04  0.236E-02    0.49       1.0  T
   7   -153.1430586 -0.412482E-04  0.134E-02    0.49       1.0  T
   8   -153.1430780 -0.193985E-04  0.475E-03    0.49       2.2  T
   9   -153.1430808 -0.272314E-05  0.158E-03    0.49       6.7  T
  10   -153.1430809 -0.151034E-06  0.949E-04    0.49      11.2  T
     SCC iter.                  ...        0 min,  0.085 sec
     gradient                   ...        0 min,  0.013 sec
 * total energy  :  -150.7601304 Eh     change       -0.1427379E-01 Eh
   gradient norm :     0.0454064 Eh/α   predicted    -0.1309671E-01 (  -8.25%)
   displ. norm   :     0.6129442 α      lambda       -0.1038918E-01
   maximum displ.:     0.2132339 α      in ANC's #46, #48, #25, ...

........................................................................
.............................. CYCLE    4 ..............................
........................................................................
   1   -153.1368253 -0.153137E+03  0.412E-01    0.35       0.0  T
   2   -153.1355824  0.124289E-02  0.226E-01    0.37       1.0  T
   3   -153.1075563  0.280261E-01  0.418E-01    0.37       1.0  T
   4   -153.1366360 -0.290797E-01  0.862E-02    0.36       1.0  T
   5   -153.1372794 -0.643396E-03  0.501E-02    0.36       1.0  T
   6   -153.1375170 -0.237626E-03  0.243E-02    0.37       1.0  T
   7   -153.1375477 -0.307371E-04  0.152E-02    0.36       1.0  T
   8   -153.1375663 -0.185971E-04  0.830E-03    0.36       1.3  T
   9   -153.1375770 -0.106600E-04  0.340E-03    0.36       3.1  T
  10   -153.1375783 -0.128844E-05  0.144E-03    0.36       7.4  T
  11   -153.1375784 -0.877781E-07  0.957E-04    0.36      11.1  T
     SCC iter.                  ...        0 min,  0.094 sec
     gradient                   ...        0 min,  0.013 sec
 * total energy  :  -150.7688633 Eh     change       -0.8732903E-02 Eh
   gradient norm :     0.0445484 Eh/α   predicted    -0.7146277E-02 ( -18.17%)
   displ. norm   :     0.7257109 α      lambda       -0.1073904E-01
   maximum displ.:     0.2553985 α      in ANC's #48, #46, #21, ...

........................................................................
.............................. CYCLE    5 ..............................
........................................................................
   1   -153.1319597 -0.153132E+03  0.440E-01    0.23       0.0  T
   2   -153.1215295  0.104302E-01  0.328E-01    0.26       1.0  T
   3   -153.0473692  0.741603E-01  0.694E-01    0.36       1.0  T
   4   -153.1295958 -0.822266E-01  0.167E-01    0.24       1.0  T
   5   -153.1320976 -0.250181E-02  0.917E-02    0.24       1.0  T
   6   -153.1332284 -0.113077E-02  0.352E-02    0.24       1.0  T
   7   -153.1332083  0.200879E-04  0.305E-02    0.24       1.0  T
   8   -153.1332783 -0.699997E-04  0.164E-02    0.24       1.0  T
   9   -153.1333146 -0.363539E-04  0.107E-02    0.24       1.0  T
  10   -153.1333366 -0.220028E-04  0.273E-03    0.24       3.9  T
  11   -153.1333372 -0.606383E-06  0.143E-03    0.24       7.5  T
  12   -153.1333375 -0.244322E-06  0.814E-04    0.24      13.1  T
     SCC iter.                  ...        0 min,  0.102 sec
     gradient                   ...        0 min,  0.013 sec
 * total energy  :  -150.7778609 Eh     change       -0.8997584E-02 Eh
   gradient norm :     0.0410450 Eh/α   predicted    -0.8197636E-02 (  -8.89%)
   displ. norm   :     0.6963464 α      lambda       -0.9132175E-02
   maximum displ.:     0.2420554 α      in ANC's #21, #48, #46, ...

........................................................................
.............................. CYCLE    6 ..............................
........................................................................
   1   -153.1373395 -0.153137E+03  0.436E-01    0.14       0.0  T
   2   -153.1065120  0.308275E-01  0.451E-01    0.19       1.0  T
   3   -153.0271256  0.793864E-01  0.792E-01    0.38       1.0  T
   4   -153.1099116 -0.827861E-01  0.390E-01    0.18       1.0  T
   5   -153.1362168 -0.263052E-01  0.121E-01    0.15       1.0  T
   6   -153.1382989 -0.208205E-02  0.545E-02    0.15       1.0  T
   7   -153.1378565  0.442371E-03  0.668E-02    0.15       1.0  T
   8   -153.1387619 -0.905390E-03  0.155E-02    0.15       1.0  T
   9   -153.1386359  0.125960E-03  0.251E-02    0.15       1.0  T
  10   -153.1387841 -0.148186E-03  0.646E-03    0.15       1.6  T
  11   -153.1387916 -0.747179E-05  0.293E-03    0.15       3.6  T
  12   -153.1387923 -0.680045E-06  0.182E-03    0.15       5.9  T
  13   -153.1387929 -0.686600E-06  0.514E-04    0.15      20.7  T
     SCC iter.                  ...        0 min,  0.112 sec
     gradient                   ...        0 min,  0.013 sec
 * total energy  :  -150.7852089 Eh     change       -0.7347945E-02 Eh
   gradient norm :     0.0358348 Eh/α   predicted    -0.6780196E-02 (  -7.73%)
   displ. norm   :     0.6439399 α      lambda       -0.6799927E-02
   maximum displ.:     0.2525429 α      in ANC's #21, #48, #25, ...

........................................................................
.............................. CYCLE    7 ..............................
........................................................................
   1   -153.1516188 -0.153152E+03  0.372E-01    0.09       0.0  T
   2   -153.1102244  0.413944E-01  0.484E-01    0.14       1.0  T
   3   -153.0336514  0.765731E-01  0.804E-01    0.35       1.0  T
   4   -153.0970404 -0.633890E-01  0.513E-01    0.16       1.0  T
   5   -153.1523709 -0.553306E-01  0.475E-02    0.10       1.0  T
   6   -153.1520047  0.366222E-03  0.514E-02    0.10       1.0  T
   7   -153.1520626 -0.579173E-04  0.464E-02    0.10       1.0  T
   8   -153.1518561  0.206485E-03  0.573E-02    0.10       1.0  T
   9   -153.1525870 -0.730854E-03  0.434E-03    0.10       2.5  T
  10   -153.1525844  0.256080E-05  0.449E-03    0.10       2.4  T
  11   -153.1525878 -0.340351E-05  0.210E-03    0.10       5.1  T
     SCC iter.                  ...        0 min,  0.101 sec
     gradient                   ...        0 min,  0.015 sec
 * total energy  :  -150.7904665 Eh     change       -0.5257669E-02 Eh
   gradient norm :     0.0321713 Eh/α   predicted    -0.4809791E-02 (  -8.52%)
   displ. norm   :     0.6047653 α      lambda       -0.5045631E-02
   maximum displ.:     0.2810616 α      in ANC's #21, #10, #25, ...

........................................................................
.............................. CYCLE    8 ..............................
........................................................................
   1   -153.1648682 -0.153165E+03  0.372E-01    0.07       0.0  T
   2   -153.1288670  0.360012E-01  0.456E-01    0.11       1.0  T
   3   -153.0319936  0.968734E-01  0.852E-01    0.39       1.0  T
   4   -153.0840745 -0.520809E-01  0.626E-01    0.17       1.0  T
   5   -153.1627419 -0.786674E-01  0.122E-01    0.07       1.0  T
   6   -153.1645673 -0.182535E-02  0.590E-02    0.07       1.0  T
   7   -153.1648615 -0.294258E-03  0.459E-02    0.07       1.0  T
   8   -153.1648329  0.286018E-04  0.479E-02    0.07       1.0  T
   9   -153.1652842 -0.451253E-03  0.155E-02    0.07       1.0  T
  10   -153.1653129 -0.286901E-04  0.101E-02    0.07       1.1  T
  11   -153.1653336 -0.207377E-04  0.149E-03    0.07       7.2  T
  12   -153.1653330  0.634199E-06  0.216E-03    0.07       4.9  T
  13   -153.1653340 -0.103064E-05  0.360E-04    0.07      29.6  T
     SCC iter.                  ...        0 min,  0.109 sec
     gradient                   ...        0 min,  0.013 sec
 * total energy  :  -150.7941908 Eh     change       -0.3724235E-02 Eh
   gradient norm :     0.0276208 Eh/α   predicted    -0.3445514E-02 (  -7.48%)
   displ. norm   :     0.6412137 α      lambda       -0.4318019E-02
   maximum displ.:     0.2696567 α      in ANC's #21, #10, #28, ...

........................................................................
.............................. CYCLE    9 ..............................
........................................................................
   1   -153.1680121 -0.153168E+03  0.335E-01    0.06       0.0  T
   2   -153.1333464  0.346656E-01  0.443E-01    0.09       1.0  T
   3   -153.0357295  0.976169E-01  0.846E-01    0.34       1.0  T
   4   -153.0907971 -0.550676E-01  0.609E-01    0.15       1.0  T
   5   -153.1663867 -0.755896E-01  0.109E-01    0.06       1.0  T
   6   -153.1672382 -0.851480E-03  0.712E-02    0.06       1.0  T
   7   -153.1678514 -0.613228E-03  0.480E-02    0.06       1.0  T
   8   -153.1681390 -0.287570E-03  0.313E-02    0.06       1.0  T
   9   -153.1682747 -0.135648E-03  0.192E-02    0.06       1.0  T
  10   -153.1683215 -0.468046E-04  0.110E-02    0.06       1.0  T
  11   -153.1683450 -0.235561E-04  0.330E-03    0.06       3.2  T
  12   -153.1683466 -0.158288E-05  0.183E-03    0.06       5.8  T
  13   -153.1683473 -0.651209E-06  0.380E-04    0.06      28.1  T
     SCC iter.                  ...        0 min,  0.111 sec
     gradient                   ...        0 min,  0.013 sec
 * total energy  :  -150.7967821 Eh     change       -0.2591351E-02 Eh
   gradient norm :     0.0313774 Eh/α   predicted    -0.3046700E-02 (  17.57%)
   displ. norm   :     0.5534131 α      lambda       -0.3926891E-02
   maximum displ.:     0.2353038 α      in ANC's #21, #10, #7, ...

........................................................................
.............................. CYCLE   10 ..............................
........................................................................
   1   -153.1717698 -0.153172E+03  0.279E-01    0.06       0.0  T
   2   -153.1512180  0.205518E-01  0.344E-01    0.08       1.0  T
   3   -153.0420732  0.109145E+00  0.836E-01    0.31       1.0  T
   4   -153.1106777 -0.686045E-01  0.541E-01    0.13       1.0  T
   5   -153.1702191 -0.595414E-01  0.101E-01    0.06       1.0  T
   6   -153.1714259 -0.120682E-02  0.509E-02    0.06       1.0  T
   7   -153.1716571 -0.231186E-03  0.379E-02    0.06       1.0  T
   8   -153.1717529 -0.958186E-04  0.316E-02    0.06       1.0  T
   9   -153.1719462 -0.193234E-03  0.950E-03    0.06       1.1  T
  10   -153.1719585 -0.123500E-04  0.547E-03    0.06       1.9  T
  11   -153.1719645 -0.598926E-05  0.118E-03    0.06       9.0  T
  12   -153.1719647 -0.188505E-06  0.561E-04    0.06      19.0  T
     SCC iter.                  ...        0 min,  0.102 sec
     gradient                   ...        0 min,  0.013 sec
 * total energy  :  -150.7986000 Eh     change       -0.1817925E-02 Eh
   gradient norm :     0.0321029 Eh/α   predicted    -0.2564783E-02 (  41.08%)
   displ. norm   :     0.4863959 α      lambda       -0.3265024E-02
   maximum displ.:     0.2014089 α      in ANC's #21, #7, #10, ...

........................................................................
.............................. CYCLE   11 ..............................
........................................................................
   1   -153.1643122 -0.153164E+03  0.295E-01    0.06       0.0  T
   2   -153.0964538  0.678584E-01  0.602E-01    0.13       1.0  T
   3   -153.0561189  0.403349E-01  0.754E-01    0.21       1.0  T
   4   -153.1528515 -0.967327E-01  0.251E-01    0.07       1.0  T
   5   -153.1634020 -0.105505E-01  0.865E-02    0.06       1.0  T
   6   -153.1646507 -0.124869E-02  0.279E-02    0.06       1.0  T
   7   -153.1646701 -0.193738E-04  0.203E-02    0.06       1.0  T
   8   -153.1647307 -0.605918E-04  0.608E-03    0.06       1.8  T
   9   -153.1647301  0.618331E-06  0.473E-03    0.06       2.3  T
  10   -153.1647242  0.583699E-05  0.700E-03    0.06       1.5  T
  11   -153.1647324 -0.811728E-05  0.328E-03    0.06       3.2  T
  12   -153.1647348 -0.239181E-05  0.554E-04    0.06      19.3  T
     SCC iter.                  ...        0 min,  0.102 sec
     gradient                   ...        0 min,  0.013 sec
 * total energy  :  -150.8005067 Eh     change       -0.1906669E-02 Eh
   gradient norm :     0.0265605 Eh/α   predicted    -0.2018739E-02 (   5.88%)
   displ. norm   :     0.4538730 α      lambda       -0.2211144E-02
   maximum displ.:     0.2185009 α      in ANC's #7, #10, #21, ...

........................................................................
.............................. CYCLE   12 ..............................
........................................................................
   1   -153.1674756 -0.153167E+03  0.200E-01    0.06       0.0  T
   2   -153.1674434  0.321720E-04  0.102E-01    0.06       1.0  T
   3   -153.1113479  0.560955E-01  0.537E-01    0.11       1.0  T
   4   -153.1601442 -0.487963E-01  0.186E-01    0.06       1.0  T
   5   -153.1669716 -0.682733E-02  0.526E-02    0.06       1.0  T
   6   -153.1673490 -0.377428E-03  0.303E-02    0.06       1.0  T
   7   -153.1675312 -0.182186E-03  0.944E-03    0.06       1.1  T
   8   -153.1675464 -0.152267E-04  0.457E-03    0.06       2.3  T
   9   -153.1675503 -0.386087E-05  0.148E-03    0.06       7.2  T
  10   -153.1675504 -0.156783E-06  0.106E-03    0.06      10.0  T
     SCC iter.                  ...        0 min,  0.085 sec
     gradient                   ...        0 min,  0.013 sec
 * total energy  :  -150.8016061 Eh     change       -0.1099407E-02 Eh
   gradient norm :     0.0282837 Eh/α   predicted    -0.1333327E-02 (  21.28%)
   displ. norm   :     0.5115004 α      lambda       -0.2754111E-02
   maximum displ.:     0.2607926 α      in ANC's #7, #10, #21, ...

........................................................................
.............................. CYCLE   13 ..............................
........................................................................
   1   -153.1664746 -0.153166E+03  0.223E-01    0.05       0.0  T
   2   -153.1383929  0.280817E-01  0.387E-01    0.08       1.0  T
   3   -153.0605690  0.778239E-01  0.740E-01    0.19       1.0  T
   4   -153.1474524 -0.868834E-01  0.306E-01    0.07       1.0  T
   5   -153.1663924 -0.189399E-01  0.446E-02    0.06       1.0  T
   6   -153.1664764 -0.840443E-04  0.322E-02    0.06       1.0  T
   7   -153.1664236  0.528050E-04  0.347E-02    0.06       1.0  T
   8   -153.1666520 -0.228433E-03  0.114E-02    0.06       1.0  T
   9   -153.1666780 -0.259229E-04  0.252E-03    0.05       4.2  T
  10   -153.1666784 -0.437327E-06  0.173E-03    0.05       6.1  T
  11   -153.1666788 -0.353668E-06  0.103E-03    0.05      10.4  T
     SCC iter.                  ...        0 min,  0.093 sec
     gradient                   ...        0 min,  0.013 sec
 * total energy  :  -150.8029479 Eh     change       -0.1341824E-02 Eh
   gradient norm :     0.0213390 Eh/α   predicted    -0.1737341E-02 (  29.48%)
   displ. norm   :     0.4405675 α      lambda       -0.1596107E-02
   maximum displ.:     0.2404978 α      in ANC's #7, #10, #21, ...

........................................................................
.............................. CYCLE   14 ..............................
........................................................................
   1   -153.1647822 -0.153165E+03  0.205E-01    0.06       0.0  T
   2   -153.1414184  0.233639E-01  0.355E-01    0.08       1.0  T
   3   -153.0651266  0.762917E-01  0.713E-01    0.18       1.0  T
   4   -153.1608910 -0.957643E-01  0.152E-01    0.06       1.0  T
   5   -153.1619637 -0.107274E-02  0.119E-01    0.06       1.0  T
   6   -153.1648568 -0.289306E-02  0.179E-02    0.06       1.0  T
   7   -153.1648086  0.481842E-04  0.216E-02    0.06       1.0  T
   8   -153.1648888 -0.802040E-04  0.998E-03    0.06       1.1  T
   9   -153.1649092 -0.204321E-04  0.253E-03    0.06       4.2  T
  10   -153.1649097 -0.473802E-06  0.197E-03    0.06       5.4  T
  11   -153.1649105 -0.769730E-06  0.424E-04    0.06      25.1  T
     SCC iter.                  ...        0 min,  0.094 sec
     gradient                   ...        0 min,  0.013 sec
 * total energy  :  -150.8040245 Eh     change       -0.1076561E-02 Eh
   gradient norm :     0.0160101 Eh/α   predicted    -0.9529578E-03 ( -11.48%)
   displ. norm   :     0.5474282 α      lambda       -0.2076151E-02
   maximum displ.:     0.3206026 α      in ANC's #7, #10, #8, ...

........................................................................
.............................. CYCLE   15 ..............................
........................................................................
   1   -153.1774175 -0.153177E+03  0.262E-01    0.06       0.0  T
   2   -153.1750992  0.231836E-02  0.169E-01    0.06       1.0  T
   3   -153.0396574  0.135442E+00  0.854E-01    0.37       1.0  T
   4   -153.1531975 -0.113540E+00  0.335E-01    0.08       1.0  T
   5   -153.1713273 -0.181298E-01  0.171E-01    0.07       1.0  T
   6   -153.1770227 -0.569548E-02  0.524E-02    0.06       1.0  T
   7   -153.1774768 -0.454008E-03  0.201E-02    0.06       1.0  T
   8   -153.1775534 -0.766651E-04  0.661E-03    0.06       1.6  T
   9   -153.1775515  0.191381E-05  0.644E-03    0.06       1.7  T
  10   -153.1775594 -0.785376E-05  0.191E-03    0.06       5.6  T
  11   -153.1775599 -0.588628E-06  0.803E-04    0.06      13.3  T
  12   -153.1775600 -0.190213E-07  0.594E-04    0.06      17.9  T
     SCC iter.                  ...        0 min,  0.102 sec
     gradient                   ...        0 min,  0.013 sec
 * total energy  :  -150.8044280 Eh     change       -0.4034939E-03 Eh
   gradient norm :     0.0314176 Eh/α   predicted    -0.1349164E-02 ( 234.37%)
   displ. norm   :     0.3718003 α      lambda       -0.2269774E-02
   maximum displ.:     0.2083335 α      in ANC's #7, #10, #8, ...

........................................................................
.............................. CYCLE   16 ..............................
........................................................................
   1   -153.1752463 -0.153175E+03  0.151E-01    0.06       0.0  T
   2   -153.1270896  0.481567E-01  0.491E-01    0.10       1.0  T
   3   -153.1383024 -0.112127E-01  0.435E-01    0.09       1.0  T
   4   -153.1753029 -0.370005E-01  0.360E-02    0.06       1.0  T
   5   -153.1754066 -0.103717E-03  0.202E-02    0.06       1.0  T
   6   -153.1754486 -0.420036E-04  0.976E-03    0.06       1.1  T
   7   -153.1754527 -0.412728E-05  0.614E-03    0.06       1.7  T
   8   -153.1754564 -0.373896E-05  0.178E-03    0.06       6.0  T
   9   -153.1754555  0.984916E-06  0.254E-03    0.06       4.2  T
     SCC iter.                  ...        0 min,  0.077 sec
     gradient                   ...        0 min,  0.013 sec
 * total energy  :  -150.8058685 Eh     change       -0.1440462E-02 Eh
   gradient norm :     0.0140284 Eh/α   predicted    -0.1291770E-02 ( -10.32%)
   displ. norm   :     0.5335575 α      lambda       -0.1559753E-02
   maximum displ.:     0.3066210 α      in ANC's #7, #10, #8, ...

........................................................................
.............................. CYCLE   17 ..............................
........................................................................
   1   -153.1707285 -0.153171E+03  0.247E-01    0.05       0.0  T
   2   -153.1582140  0.125145E-01  0.272E-01    0.07       1.0  T
   3   -153.0400417  0.118172E+00  0.832E-01    0.31       1.0  T
   4   -153.1331544 -0.931127E-01  0.435E-01    0.09       1.0  T
   5   -153.1701173 -0.369629E-01  0.670E-02    0.05       1.0  T
   6   -153.1706889 -0.571637E-03  0.316E-02    0.05       1.0  T
   7   -153.1704309  0.257991E-03  0.456E-02    0.05       1.0  T
   8   -153.1707252 -0.294245E-03  0.262E-02    0.05       1.0  T
   9   -153.1708191 -0.939634E-04  0.160E-02    0.05       1.0  T
  10   -153.1708704 -0.512895E-04  0.407E-03    0.05       2.6  T
  11   -153.1708725 -0.207069E-05  0.243E-03    0.05       4.4  T
  12   -153.1708731 -0.616679E-06  0.161E-03    0.05       6.6  T
     SCC iter.                  ...        0 min,  0.101 sec
     gradient                   ...        0 min,  0.013 sec
 * total energy  :  -150.8067144 Eh     change       -0.8459831E-03 Eh
   gradient norm :     0.0156898 Eh/α   predicted    -0.1001898E-02 (  18.43%)
   displ. norm   :     0.5516965 α      lambda       -0.1302953E-02
   maximum displ.:     0.3415901 α      in ANC's #7, #10, #8, ...

........................................................................
.............................. CYCLE   18 ..............................
........................................................................
   1   -153.1740947 -0.153174E+03  0.220E-01    0.05       0.0  T
   2   -153.1480073  0.260875E-01  0.369E-01    0.08       1.0  T
   3   -153.0627116  0.852957E-01  0.756E-01    0.21       1.0  T
   4   -153.1522631 -0.895516E-01  0.329E-01    0.08       1.0  T
   5   -153.1732110 -0.209479E-01  0.748E-02    0.05       1.0  T
   6   -153.1740550 -0.843993E-03  0.305E-02    0.05       1.0  T
   7   -153.1741371 -0.821310E-04  0.210E-02    0.05       1.0  T
   8   -153.1741826 -0.455134E-04  0.150E-02    0.05       1.0  T
   9   -153.1742153 -0.326285E-04  0.916E-03    0.05       1.2  T
  10   -153.1742332 -0.179384E-04  0.724E-04    0.05      14.7  T
  11   -153.1742331  0.464067E-07  0.777E-04    0.05      13.7  T
  12   -153.1742331  0.327823E-07  0.812E-04    0.05      13.1  T
     SCC iter.                  ...        0 min,  0.101 sec
     gradient                   ...        0 min,  0.013 sec
 * total energy  :  -150.8077775 Eh     change       -0.1063050E-02 Eh
   gradient norm :     0.0138436 Eh/α   predicted    -0.8497698E-03 ( -20.06%)
   displ. norm   :     0.6608085 α      lambda       -0.1416879E-02
   maximum displ.:     0.4178840 α      in ANC's #7, #10, #8, ...

........................................................................
.............................. CYCLE   19 ..............................
........................................................................
   1   -153.1750370 -0.153175E+03  0.275E-01    0.06       0.0  T
   2   -153.1687971  0.623990E-02  0.226E-01    0.06       1.0  T
   3   -153.0325197  0.136277E+00  0.869E-01    0.39       1.0  T
   4   -153.1177445 -0.852248E-01  0.516E-01    0.11       1.0  T
   5   -153.1751045 -0.573600E-01  0.253E-02    0.06       1.0  T
   6   -153.1751027  0.175124E-05  0.217E-02    0.06       1.0  T
   7   -153.1751068 -0.409995E-05  0.156E-02    0.06       1.0  T
   8   -153.1751272 -0.203944E-04  0.116E-02    0.06       1.0  T
   9   -153.1751497 -0.224973E-04  0.472E-03    0.06       2.3  T
  10   -153.1751545 -0.472191E-05  0.643E-04    0.06      16.6  T
  11   -153.1751538  0.622900E-06  0.171E-03    0.06       6.2  T
  12   -153.1751543 -0.420362E-06  0.105E-03    0.06      10.2  T
     SCC iter.                  ...        0 min,  0.101 sec
     gradient                   ...        0 min,  0.013 sec
 * total energy  :  -150.8088238 Eh     change       -0.1046264E-02 Eh
   gradient norm :     0.0127647 Eh/α   predicted    -0.1017797E-02 (  -2.72%)
   displ. norm   :     0.6816658 α      lambda       -0.1256245E-02
   maximum displ.:     0.4375691 α      in ANC's #7, #10, #8, ...

........................................................................
.............................. CYCLE   20 ..............................
........................................................................
   1   -153.1790036 -0.153179E+03  0.256E-01    0.06       0.0  T
   2   -153.1615516  0.174520E-01  0.313E-01    0.07       1.0  T
   3   -153.0496592  0.111892E+00  0.828E-01    0.30       1.0  T
   4   -153.1308220 -0.811628E-01  0.488E-01    0.10       1.0  T
   5   -153.1763706 -0.455485E-01  0.121E-01    0.06       1.0  T
   6   -153.1789075 -0.253699E-02  0.348E-02    0.06       1.0  T
   7   -153.1788350  0.725690E-04  0.373E-02    0.06       1.0  T
   8   -153.1790250 -0.189986E-03  0.226E-02    0.06       1.0  T
   9   -153.1790942 -0.692376E-04  0.143E-02    0.06       1.0  T
  10   -153.1791374 -0.431991E-04  0.218E-03    0.06       4.9  T
  11   -153.1791381 -0.735939E-06  0.893E-04    0.06      11.9  T
  12   -153.1791377  0.451685E-06  0.164E-03    0.06       6.5  T
     SCC iter.                  ...        0 min,  0.101 sec
     gradient                   ...        0 min,  0.013 sec
 * total energy  :  -150.8097894 Eh     change       -0.9656763E-03 Eh
   gradient norm :     0.0127042 Eh/α   predicted    -0.9199928E-03 (  -4.73%)
   displ. norm   :     0.6939147 α      lambda       -0.1101451E-02
   maximum displ.:     0.4525822 α      in ANC's #7, #10, #8, ...
 * RMSD in coord.:     0.9244777 α      energy gain  -0.9291320E-01 Eh

generating ANC from model Hessian ...
Using Lindh-Hessian (1995)
 Shifting diagonal of input Hessian by   4.981858284947823E-003
 Lowest  eigenvalues of input Hessian
   -0.000000   -0.000000   -0.000000   -0.000000    0.000000    0.000000
    0.005000    0.005018    0.005059    0.005073    0.005168    0.005171
    0.005211    0.005360    0.005454    0.005547    0.005723    0.005946
 Highest eigenvalues
    2.048451    2.074164    2.082434    2.091570    2.117104    2.228246
 

........................................................................
.............................. CYCLE   21 ..............................
........................................................................
   1   -153.1761870 -0.153176E+03  0.259E-01    0.06       0.0  T
   2   -153.1536786  0.225084E-01  0.351E-01    0.08       1.0  T
   3   -153.0494283  0.104250E+00  0.819E-01    0.29       1.0  T
   4   -153.1341203 -0.846920E-01  0.460E-01    0.10       1.0  T
   5   -153.1731202 -0.389999E-01  0.130E-01    0.06       1.0  T
   6   -153.1760919 -0.297168E-02  0.369E-02    0.06       1.0  T
   7   -153.1762600 -0.168059E-03  0.187E-02    0.06       1.0  T
   8   -153.1762380  0.219924E-04  0.206E-02    0.06       1.0  T
   9   -153.1762750 -0.370298E-04  0.160E-02    0.06       1.0  T
  10   -153.1763307 -0.556676E-04  0.155E-03    0.06       6.9  T
  11   -153.1763308 -0.157929E-06  0.979E-04    0.06      10.9  T
  12   -153.1763303  0.514105E-06  0.180E-03    0.06       5.9  T
  13   -153.1763310 -0.671147E-06  0.169E-04    0.06      63.2  T
     SCC iter.                  ...        0 min,  0.111 sec
     gradient                   ...        0 min,  0.015 sec
 * total energy  :  -150.8107266 Eh     change       -0.9372065E-03 Eh
   gradient norm :     0.0105468 Eh/α   predicted     0.0000000E+00 (-100.00%)
   displ. norm   :     0.2490510 α      lambda       -0.6058760E-03
   maximum displ.:     0.1205336 α      in ANC's #6, #7, #8, ...

........................................................................
.............................. CYCLE   22 ..............................
........................................................................
   1   -153.1800260 -0.153180E+03  0.934E-02    0.06       0.0  T
   2   -153.1778532  0.217275E-02  0.112E-01    0.06       1.0  T
   3   -153.1125289  0.653243E-01  0.579E-01    0.12       1.0  T
   4   -153.1799589 -0.674300E-01  0.254E-02    0.06       1.0  T
   5   -153.1796904  0.268497E-03  0.407E-02    0.06       1.0  T
   6   -153.1800097 -0.319358E-03  0.128E-02    0.06       1.0  T
   7   -153.1800395 -0.297900E-04  0.492E-03    0.06       2.2  T
   8   -153.1800435 -0.396657E-05  0.121E-03    0.06       8.8  T
   9   -153.1800437 -0.207600E-06  0.570E-04    0.06      18.7  T
  10   -153.1800436  0.650071E-07  0.744E-04    0.06      14.3  T
     SCC iter.                  ...        0 min,  0.085 sec
     gradient                   ...        0 min,  0.013 sec
 * total energy  :  -150.8112383 Eh     change       -0.5116079E-03 Eh
   gradient norm :     0.0048860 Eh/α   predicted    -0.3217287E-03 ( -37.11%)
   displ. norm   :     0.2488230 α      lambda       -0.4353425E-03
   maximum displ.:     0.1111163 α      in ANC's #6, #7, #8, ...

........................................................................
.............................. CYCLE   23 ..............................
........................................................................
   1   -153.1820982 -0.153182E+03  0.954E-02    0.06       0.0  T
   2   -153.1775162  0.458197E-02  0.155E-01    0.06       1.0  T
   3   -153.1280249  0.494913E-01  0.519E-01    0.11       1.0  T
   4   -153.1820243 -0.539994E-01  0.270E-02    0.06       1.0  T
   5   -153.1817563  0.267990E-03  0.415E-02    0.06       1.0  T
   6   -153.1821057 -0.349390E-03  0.913E-03    0.06       1.2  T
   7   -153.1821181 -0.124277E-04  0.457E-03    0.06       2.3  T
   8   -153.1821215 -0.341574E-05  0.108E-03    0.06       9.9  T
   9   -153.1821217 -0.156753E-06  0.490E-04    0.06      21.8  T
  10   -153.1821216  0.723502E-07  0.680E-04    0.06      15.7  T
     SCC iter.                  ...        0 min,  0.085 sec
     gradient                   ...        0 min,  0.013 sec
 * total energy  :  -150.8116191 Eh     change       -0.3808034E-03 Eh
   gradient norm :     0.0027965 Eh/α   predicted    -0.2311491E-03 ( -39.30%)
   displ. norm   :     0.5539443 α      lambda       -0.7650384E-03
   maximum displ.:     0.2463478 α      in ANC's #6, #7, #8, ...

........................................................................
.............................. CYCLE   24 ..............................
........................................................................
   1   -153.1827683 -0.153183E+03  0.194E-01    0.06       0.0  T
   2   -153.1576952  0.250731E-01  0.360E-01    0.08       1.0  T
   3   -153.0826361  0.750592E-01  0.717E-01    0.18       1.0  T
   4   -153.1745299 -0.918938E-01  0.209E-01    0.06       1.0  T
   5   -153.1812275 -0.669759E-02  0.914E-02    0.06       1.0  T
   6   -153.1828719 -0.164448E-02  0.124E-02    0.06       1.0  T
   7   -153.1828771 -0.514839E-05  0.640E-03    0.06       1.7  T
   8   -153.1828805 -0.344964E-05  0.248E-03    0.06       4.3  T
   9   -153.1828802  0.292123E-06  0.219E-03    0.06       4.9  T
  10   -153.1828787  0.155841E-05  0.342E-03    0.06       3.1  T
  11   -153.1828800 -0.128756E-05  0.239E-03    0.06       4.5  T
  12   -153.1828812 -0.121249E-05  0.501E-04    0.06      21.3  T
  13   -153.1828812 -0.436779E-07  0.100E-04    0.06     106.5  T
  14   -153.1828812  0.418200E-08  0.155E-04    0.06      68.8  T
     SCC iter.                  ...        0 min,  0.120 sec
     gradient                   ...        0 min,  0.014 sec
 * total energy  :  -150.8122663 Eh     change       -0.6471983E-03 Eh
   gradient norm :     0.0073991 Eh/α   predicted    -0.4999191E-03 ( -22.76%)
   displ. norm   :     0.6577609 α      lambda       -0.7569886E-03
   maximum displ.:     0.2958943 α      in ANC's #6, #7, #8, ...

........................................................................
.............................. CYCLE   25 ..............................
........................................................................
   1   -153.1816804 -0.153182E+03  0.217E-01    0.06       0.0  T
   2   -153.1417728  0.399075E-01  0.452E-01    0.09       1.0  T
   3   -153.0797616  0.620113E-01  0.727E-01    0.18       1.0  T
   4   -153.1721001 -0.923386E-01  0.227E-01    0.07       1.0  T
   5   -153.1795013 -0.740123E-02  0.109E-01    0.06       1.0  T
   6   -153.1818328 -0.233142E-02  0.167E-02    0.05       1.0  T
   7   -153.1818065  0.262385E-04  0.158E-02    0.05       1.0  T
   8   -153.1818504 -0.439064E-04  0.368E-03    0.05       2.9  T
   9   -153.1818506 -0.115987E-06  0.271E-03    0.05       3.9  T
  10   -153.1818477  0.284211E-05  0.448E-03    0.05       2.4  T
  11   -153.1818503 -0.255844E-05  0.286E-03    0.05       3.7  T
     SCC iter.                  ...        0 min,  0.093 sec
     gradient                   ...        0 min,  0.013 sec
 * total energy  :  -150.8129461 Eh     change       -0.6798776E-03 Eh
   gradient norm :     0.0102326 Eh/α   predicted    -0.5422506E-03 ( -20.24%)
   displ. norm   :     0.7184863 α      lambda       -0.8392170E-03
   maximum displ.:     0.3263810 α      in ANC's #6, #7, #8, ...

........................................................................
.............................. CYCLE   26 ..............................
........................................................................
   1   -153.1807134 -0.153181E+03  0.223E-01    0.05       0.0  T
   2   -153.1276646  0.530488E-01  0.521E-01    0.10       1.0  T
   3   -153.0848139  0.428506E-01  0.705E-01    0.17       1.0  T
   4   -153.1761787 -0.913648E-01  0.164E-01    0.06       1.0  T
   5   -153.1785780 -0.239924E-02  0.109E-01    0.06       1.0  T
   6   -153.1809303 -0.235236E-02  0.157E-02    0.05       1.0  T
   7   -153.1808495  0.808363E-04  0.217E-02    0.05       1.0  T
   8   -153.1809390 -0.895531E-04  0.380E-03    0.05       2.8  T
   9   -153.1809386  0.479401E-06  0.328E-03    0.05       3.3  T
  10   -153.1809364  0.213907E-05  0.451E-03    0.05       2.4  T
  11   -153.1809395 -0.310226E-05  0.246E-03    0.05       4.3  T
  12   -153.1809408 -0.123905E-05  0.633E-04    0.05      16.8  T
  13   -153.1809408 -0.672062E-07  0.191E-04    0.05      55.9  T
     SCC iter.                  ...        0 min,  0.110 sec
     gradient                   ...        0 min,  0.013 sec
 * total energy  :  -150.8137220 Eh     change       -0.7759028E-03 Eh
   gradient norm :     0.0095249 Eh/α   predicted    -0.6362236E-03 ( -18.00%)
   displ. norm   :     0.7627160 α      lambda       -0.9481324E-03
   maximum displ.:     0.3506740 α      in ANC's #7, #6, #8, ...

........................................................................
.............................. CYCLE   27 ..............................
........................................................................
   1   -153.1813423 -0.153181E+03  0.223E-01    0.06       0.0  T
   2   -153.1270964  0.542459E-01  0.527E-01    0.10       1.0  T
   3   -153.0855471  0.415493E-01  0.705E-01    0.17       1.0  T
   4   -153.1770016 -0.914545E-01  0.163E-01    0.06       1.0  T
   5   -153.1787364 -0.173474E-02  0.119E-01    0.06       1.0  T
   6   -153.1815638 -0.282740E-02  0.168E-02    0.06       1.0  T
   7   -153.1814733  0.904444E-04  0.232E-02    0.06       1.0  T
   8   -153.1815763 -0.103006E-03  0.422E-03    0.05       2.5  T
   9   -153.1815765 -0.104826E-06  0.317E-03    0.05       3.4  T
  10   -153.1815739  0.258069E-05  0.464E-03    0.05       2.3  T
  11   -153.1815774 -0.349298E-05  0.234E-03    0.05       4.5  T
  12   -153.1815785 -0.113362E-05  0.536E-04    0.05      19.9  T
  13   -153.1815785 -0.450365E-07  0.178E-04    0.05      60.0  T
     SCC iter.                  ...        0 min,  0.110 sec
     gradient                   ...        0 min,  0.013 sec
 * total energy  :  -150.8145750 Eh     change       -0.8529904E-03 Eh
   gradient norm :     0.0063479 Eh/α   predicted    -0.7498559E-03 ( -12.09%)
   displ. norm   :     0.7867196 α      lambda       -0.9102476E-03
   maximum displ.:     0.3719136 α      in ANC's #7, #6, #8, ...

........................................................................
.............................. CYCLE   28 ..............................
........................................................................
   1   -153.1825062 -0.153183E+03  0.224E-01    0.06       0.0  T
   2   -153.1337610  0.487452E-01  0.501E-01    0.10       1.0  T
   3   -153.0848572  0.489038E-01  0.711E-01    0.17       1.0  T
   4   -153.1771151 -0.922579E-01  0.178E-01    0.06       1.0  T
   5   -153.1796826 -0.256744E-02  0.123E-01    0.06       1.0  T
   6   -153.1827076 -0.302503E-02  0.165E-02    0.06       1.0  T
   7   -153.1826361  0.714774E-04  0.210E-02    0.06       1.0  T
   8   -153.1827200 -0.838987E-04  0.411E-03    0.06       2.6  T
   9   -153.1827206 -0.560756E-06  0.279E-03    0.06       3.8  T
  10   -153.1827176  0.297806E-05  0.459E-03    0.06       2.3  T
  11   -153.1827210 -0.337930E-05  0.234E-03    0.06       4.6  T
  12   -153.1827222 -0.115193E-05  0.454E-04    0.06      23.5  T
     SCC iter.                  ...        0 min,  0.101 sec
     gradient                   ...        0 min,  0.013 sec
 * total energy  :  -150.8153668 Eh     change       -0.7917281E-03 Eh
   gradient norm :     0.0057436 Eh/α   predicted    -0.7368130E-03 (  -6.94%)
   displ. norm   :     0.7846695 α      lambda       -0.7674071E-03
   maximum displ.:     0.3790988 α      in ANC's #7, #6, #8, ...

........................................................................
.............................. CYCLE   29 ..............................
........................................................................
   1   -153.1821904 -0.153182E+03  0.220E-01    0.06       0.0  T
   2   -153.1126041  0.695863E-01  0.597E-01    0.12       1.0  T
   3   -153.0998925  0.127115E-01  0.651E-01    0.15       1.0  T
   4   -153.1821772 -0.822847E-01  0.579E-02    0.06       1.0  T
   5   -153.1800467  0.213054E-02  0.110E-01    0.06       1.0  T
   6   -153.1825029 -0.245616E-02  0.154E-02    0.06       1.0  T
   7   -153.1824625  0.403566E-04  0.164E-02    0.06       1.0  T
   8   -153.1825076 -0.451435E-04  0.436E-03    0.06       2.4  T
   9   -153.1825082 -0.578122E-06  0.339E-03    0.06       3.1  T
  10   -153.1825073  0.970767E-06  0.398E-03    0.06       2.7  T
  11   -153.1825102 -0.294864E-05  0.149E-03    0.06       7.2  T
  12   -153.1825107 -0.461652E-06  0.211E-04    0.06      50.5  T
     SCC iter.                  ...        0 min,  0.101 sec
     gradient                   ...        0 min,  0.013 sec
 * total energy  :  -150.8160289 Eh     change       -0.6621177E-03 Eh
   gradient norm :     0.0074535 Eh/α   predicted    -0.6199582E-03 (  -6.37%)
   displ. norm   :     0.7526682 α      lambda       -0.6709348E-03
   maximum displ.:     0.3721331 α      in ANC's #7, #6, #5, ...

........................................................................
.............................. CYCLE   30 ..............................
........................................................................
   1   -153.1838455 -0.153184E+03  0.211E-01    0.06       0.0  T
   2   -153.1480443  0.358012E-01  0.432E-01    0.09       1.0  T
   3   -153.0872090  0.608353E-01  0.703E-01    0.17       1.0  T
   4   -153.1785909 -0.913819E-01  0.173E-01    0.06       1.0  T
   5   -153.1813083 -0.271737E-02  0.116E-01    0.06       1.0  T
   6   -153.1839946 -0.268629E-02  0.140E-02    0.06       1.0  T
   7   -153.1839748  0.197302E-04  0.126E-02    0.06       1.0  T
   8   -153.1840022 -0.273846E-04  0.346E-03    0.06       3.1  T
   9   -153.1840029 -0.671327E-06  0.246E-03    0.06       4.3  T
  10   -153.1840011  0.182091E-05  0.378E-03    0.06       2.8  T
  11   -153.1840032 -0.217577E-05  0.204E-03    0.06       5.2  T
     SCC iter.                  ...        0 min,  0.092 sec
     gradient                   ...        0 min,  0.013 sec
 * total energy  :  -150.8165989 Eh     change       -0.5700633E-03 Eh
   gradient norm :     0.0078189 Eh/α   predicted    -0.5255140E-03 (  -7.81%)
   displ. norm   :     0.7317707 α      lambda       -0.5956782E-03
   maximum displ.:     0.3688173 α      in ANC's #7, #6, #5, ...

........................................................................
.............................. CYCLE   31 ..............................
........................................................................
   1   -153.1845202 -0.153185E+03  0.206E-01    0.06       0.0  T
   2   -153.1083811  0.761391E-01  0.623E-01    0.13       1.0  T
   3   -153.1192885 -0.109074E-01  0.577E-01    0.12       1.0  T
   4   -153.1825945 -0.633060E-01  0.102E-01    0.06       1.0  T
   5   -153.1836900 -0.109553E-02  0.760E-02    0.06       1.0  T
   6   -153.1848607 -0.117067E-02  0.135E-02    0.05       1.0  T
   7   -153.1848634 -0.272108E-05  0.811E-03    0.05       1.3  T
   8   -153.1848628  0.645872E-06  0.593E-03    0.05       1.8  T
   9   -153.1848684 -0.564716E-05  0.249E-03    0.05       4.3  T
  10   -153.1848677  0.761651E-06  0.308E-03    0.05       3.5  T
  11   -153.1848695 -0.181679E-05  0.104E-03    0.05      10.2  T
  12   -153.1848697 -0.223703E-06  0.184E-04    0.05      57.8  T
     SCC iter.                  ...        0 min,  0.101 sec
     gradient                   ...        0 min,  0.013 sec
 * total energy  :  -150.8171056 Eh     change       -0.5066870E-03 Eh
   gradient norm :     0.0062925 Eh/α   predicted    -0.4573315E-03 (  -9.74%)
   displ. norm   :     0.6995477 α      lambda       -0.5077306E-03
   maximum displ.:     0.3597054 α      in ANC's #7, #6, #5, ...

........................................................................
.............................. CYCLE   32 ..............................
........................................................................
   1   -153.1871364 -0.153187E+03  0.200E-01    0.05       0.0  T
   2   -153.1463185  0.408179E-01  0.457E-01    0.09       1.0  T
   3   -153.1017758  0.445427E-01  0.657E-01    0.15       1.0  T
   4   -153.1852808 -0.835050E-01  0.110E-01    0.06       1.0  T
   5   -153.1853319 -0.510805E-04  0.984E-02    0.06       1.0  T
   6   -153.1872973 -0.196543E-02  0.124E-02    0.05       1.0  T
   7   -153.1872948  0.249462E-05  0.783E-03    0.05       1.4  T
   8   -153.1873027 -0.793518E-05  0.276E-03    0.05       3.9  T
   9   -153.1873032 -0.501919E-06  0.177E-03    0.05       6.0  T
  10   -153.1873018  0.144215E-05  0.305E-03    0.05       3.5  T
  11   -153.1873030 -0.123692E-05  0.188E-03    0.05       5.7  T
     SCC iter.                  ...        0 min,  0.093 sec
     gradient                   ...        0 min,  0.013 sec
 * total energy  :  -150.8175296 Eh     change       -0.4239469E-03 Eh
   gradient norm :     0.0044457 Eh/α   predicted    -0.3780991E-03 ( -10.81%)
   displ. norm   :     0.6707518 α      lambda       -0.4043762E-03
   maximum displ.:     0.3461325 α      in ANC's #7, #6, #5, ...

........................................................................
.............................. CYCLE   33 ..............................
........................................................................
   1   -153.1867572 -0.153187E+03  0.198E-01    0.05       0.0  T
   2   -153.1398147  0.469425E-01  0.489E-01    0.10       1.0  T
   3   -153.1091374  0.306773E-01  0.626E-01    0.14       1.0  T
   4   -153.1862476 -0.771102E-01  0.706E-02    0.06       1.0  T
   5   -153.1855958  0.651742E-03  0.817E-02    0.06       1.0  T
   6   -153.1869366 -0.134076E-02  0.121E-02    0.05       1.0  T
   7   -153.1869387 -0.207612E-05  0.623E-03    0.05       1.7  T
   8   -153.1869416 -0.297578E-05  0.272E-03    0.05       3.9  T
   9   -153.1869422 -0.563486E-06  0.158E-03    0.05       6.8  T
     SCC iter.                  ...        0 min,  0.076 sec
     gradient                   ...        0 min,  0.013 sec
 * total energy  :  -150.8178578 Eh     change       -0.3281964E-03 Eh
   gradient norm :     0.0048906 Eh/α   predicted    -0.2931552E-03 ( -10.68%)
   displ. norm   :     0.6075781 α      lambda       -0.3555739E-03
   maximum displ.:     0.3111394 α      in ANC's #7, #6, #5, ...

........................................................................
.............................. CYCLE   34 ..............................
........................................................................
   1   -153.1917447 -0.153192E+03  0.183E-01    0.05       0.0  T
   2   -153.1754145  0.163303E-01  0.296E-01    0.07       1.0  T
   3   -153.0922080  0.832065E-01  0.707E-01    0.18       1.0  T
   4   -153.1851254 -0.929174E-01  0.184E-01    0.06       1.0  T
   5   -153.1912265 -0.610106E-02  0.558E-02    0.05       1.0  T
   6   -153.1917956 -0.569131E-03  0.147E-02    0.05       1.0  T
   7   -153.1917864  0.923707E-05  0.140E-02    0.05       1.0  T
   8   -153.1918186 -0.321907E-04  0.568E-03    0.05       1.9  T
   9   -153.1918202 -0.161329E-05  0.508E-03    0.05       2.1  T
  10   -153.1918256 -0.547947E-05  0.492E-04    0.05      21.7  T
  11   -153.1918255  0.112372E-06  0.821E-04    0.05      13.0  T
  12   -153.1918256 -0.101416E-06  0.392E-04    0.05      27.2  T
     SCC iter.                  ...        0 min,  0.101 sec
     gradient                   ...        0 min,  0.013 sec
 * total energy  :  -150.8181124 Eh     change       -0.2546491E-03 Eh
   gradient norm :     0.0065198 Eh/α   predicted    -0.2434257E-03 (  -4.41%)
   displ. norm   :     0.6134546 α      lambda       -0.3394101E-03
   maximum displ.:     0.3255167 α      in ANC's #6, #7, #3, ...

........................................................................
.............................. CYCLE   35 ..............................
........................................................................
   1   -153.1869365 -0.153187E+03  0.197E-01    0.05       0.0  T
   2   -153.1853966  0.153994E-02  0.130E-01    0.05       1.0  T
   3   -153.0581812  0.127215E+00  0.813E-01    0.30       1.0  T
   4   -153.1784615 -0.120280E+00  0.204E-01    0.06       1.0  T
   5   -153.1866594 -0.819795E-02  0.401E-02    0.05       1.0  T
   6   -153.1869049 -0.245470E-03  0.194E-02    0.05       1.0  T
   7   -153.1867837  0.121230E-03  0.308E-02    0.05       1.0  T
   8   -153.1869508 -0.167094E-03  0.133E-02    0.05       1.0  T
   9   -153.1869878 -0.369818E-04  0.117E-03    0.05       9.1  T
  10   -153.1869879 -0.159001E-06  0.523E-04    0.05      20.4  T
  11   -153.1869874  0.492881E-06  0.156E-03    0.05       6.8  T
     SCC iter.                  ...        0 min,  0.093 sec
     gradient                   ...        0 min,  0.013 sec
 * total energy  :  -150.8183620 Eh     change       -0.2495782E-03 Eh
   gradient norm :     0.0055118 Eh/α   predicted    -0.2335706E-03 (  -6.41%)
   displ. norm   :     0.4990429 α      lambda       -0.3079376E-03
   maximum displ.:     0.2541792 α      in ANC's #6, #7, #3, ...

........................................................................
.............................. CYCLE   36 ..............................
........................................................................
   1   -153.1876077 -0.153188E+03  0.160E-01    0.05       0.0  T
   2   -153.1778501  0.975760E-02  0.232E-01    0.06       1.0  T
   3   -153.0871150  0.907351E-01  0.709E-01    0.16       1.0  T
   4   -153.1806765 -0.935615E-01  0.182E-01    0.06       1.0  T
   5   -153.1875191 -0.684253E-02  0.262E-02    0.05       1.0  T
   6   -153.1874793  0.397932E-04  0.280E-02    0.05       1.0  T
   7   -153.1876449 -0.165585E-03  0.826E-03    0.05       1.3  T
   8   -153.1876511 -0.623709E-05  0.631E-03    0.05       1.7  T
   9   -153.1876590 -0.785955E-05  0.153E-03    0.05       7.0  T
  10   -153.1876594 -0.418828E-06  0.535E-04    0.05      19.9  T
  11   -153.1876593  0.386724E-07  0.591E-04    0.05      18.1  T
     SCC iter.                  ...        0 min,  0.093 sec
     gradient                   ...        0 min,  0.013 sec
 * total energy  :  -150.8185808 Eh     change       -0.2188533E-03 Eh
   gradient norm :     0.0069580 Eh/α   predicted    -0.1923161E-03 ( -12.13%)
   displ. norm   :     0.5472213 α      lambda       -0.3525114E-03
   maximum displ.:     0.2837077 α      in ANC's #6, #7, #3, ...

........................................................................
.............................. CYCLE   37 ..............................
........................................................................
   1   -153.1871076 -0.153187E+03  0.185E-01    0.05       0.0  T
   2   -153.1858647  0.124287E-02  0.121E-01    0.06       1.0  T
   3   -153.0517261  0.134139E+00  0.834E-01    0.28       1.0  T
   4   -153.1787483 -0.127022E+00  0.199E-01    0.06       1.0  T
   5   -153.1858281 -0.707989E-02  0.780E-02    0.06       1.0  T
   6   -153.1869793 -0.115116E-02  0.276E-02    0.05       1.0  T
   7   -153.1870799 -0.100581E-03  0.184E-02    0.05       1.0  T
   8   -153.1871395 -0.596397E-04  0.762E-03    0.05       1.4  T
   9   -153.1871510 -0.114392E-04  0.118E-03    0.05       9.0  T
  10   -153.1871511 -0.105784E-06  0.751E-04    0.05      14.2  T
  11   -153.1871509  0.174703E-06  0.107E-03    0.05       9.9  T
     SCC iter.                  ...        0 min,  0.096 sec
     gradient                   ...        0 min,  0.014 sec
 * total energy  :  -150.8188619 Eh     change       -0.2810429E-03 Eh
   gradient norm :     0.0052052 Eh/α   predicted    -0.2290381E-03 ( -18.50%)
   displ. norm   :     0.5624304 α      lambda       -0.3378113E-03
   maximum displ.:     0.2839457 α      in ANC's #6, #3, #7, ...

........................................................................
.............................. CYCLE   38 ..............................
........................................................................
   1   -153.1872100 -0.153187E+03  0.192E-01    0.05       0.0  T
   2   -153.1300041  0.572059E-01  0.537E-01    0.11       1.0  T
   3   -153.1282009  0.180327E-02  0.545E-01    0.11       1.0  T
   4   -153.1873966 -0.591957E-01  0.301E-02    0.05       1.0  T
   5   -153.1874211 -0.245338E-04  0.184E-02    0.05       1.0  T
   6   -153.1874181  0.299892E-05  0.149E-02    0.05       1.0  T
   7   -153.1874106  0.753382E-05  0.134E-02    0.05       1.0  T
   8   -153.1874447 -0.341000E-04  0.247E-03    0.05       4.3  T
   9   -153.1874454 -0.658591E-06  0.121E-03    0.05       8.8  T
  10   -153.1874455 -0.114181E-06  0.577E-04    0.05      18.5  T
     SCC iter.                  ...        0 min,  0.084 sec
     gradient                   ...        0 min,  0.013 sec
 * total energy  :  -150.8191170 Eh     change       -0.2551343E-03 Eh
   gradient norm :     0.0066846 Eh/α   predicted    -0.2223360E-03 ( -12.86%)
   displ. norm   :     0.5764647 α      lambda       -0.2959837E-03
   maximum displ.:     0.2913908 α      in ANC's #6, #3, #7, ...

........................................................................
.............................. CYCLE   39 ..............................
........................................................................
   1   -153.1861641 -0.153186E+03  0.187E-01    0.05       0.0  T
   2   -153.1852670  0.897056E-03  0.115E-01    0.06       1.0  T
   3   -153.0530857  0.132181E+00  0.827E-01    0.27       1.0  T
   4   -153.1807501 -0.127664E+00  0.162E-01    0.06       1.0  T
   5   -153.1843016 -0.355157E-02  0.937E-02    0.06       1.0  T
   6   -153.1860872 -0.178556E-02  0.225E-02    0.05       1.0  T
   7   -153.1861442 -0.570309E-04  0.171E-02    0.05       1.0  T
   8   -153.1861897 -0.454882E-04  0.929E-03    0.05       1.1  T
   9   -153.1862064 -0.166513E-04  0.233E-03    0.05       4.6  T
  10   -153.1862070 -0.624135E-06  0.141E-03    0.05       7.5  T
  11   -153.1862071 -0.881089E-07  0.118E-03    0.05       9.1  T
     SCC iter.                  ...        0 min,  0.093 sec
     gradient                   ...        0 min,  0.013 sec
 * total energy  :  -150.8193454 Eh     change       -0.2283543E-03 Eh
   gradient norm :     0.0060197 Eh/α   predicted    -0.1971715E-03 ( -13.66%)
   displ. norm   :     0.5537437 α      lambda       -0.2656884E-03
   maximum displ.:     0.2797096 α      in ANC's #6, #3, #7, ...

........................................................................
.............................. CYCLE   40 ..............................
........................................................................
   1   -153.1875864 -0.153188E+03  0.171E-01    0.06       0.0  T
   2   -153.1820108  0.557560E-02  0.185E-01    0.06       1.0  T
   3   -153.0678217  0.114189E+00  0.779E-01    0.22       1.0  T
   4   -153.1737621 -0.105940E+00  0.255E-01    0.07       1.0  T
   5   -153.1875285 -0.137664E-01  0.230E-02    0.06       1.0  T
   6   -153.1875689 -0.404341E-04  0.172E-02    0.06       1.0  T
   7   -153.1876044 -0.354392E-04  0.118E-02    0.06       1.0  T
   8   -153.1876124 -0.800872E-05  0.101E-02    0.06       1.1  T
   9   -153.1876339 -0.215566E-04  0.113E-03    0.06       9.4  T
  10   -153.1876339  0.112237E-07  0.102E-03    0.06      10.4  T
  11   -153.1876337  0.230499E-06  0.141E-03    0.06       7.6  T
     SCC iter.                  ...        0 min,  0.093 sec
     gradient                   ...        0 min,  0.013 sec
 * total energy  :  -150.8195509 Eh     change       -0.2055323E-03 Eh
   gradient norm :     0.0052373 Eh/α   predicted    -0.1735796E-03 ( -15.55%)
   displ. norm   :     0.5803787 α      lambda       -0.2640042E-03
   maximum displ.:     0.2973313 α      in ANC's #6, #3, #7, ...

........................................................................
.............................. CYCLE   41 ..............................
........................................................................
   1   -153.1871593 -0.153187E+03  0.172E-01    0.06       0.0  T
   2   -153.1865381  0.621241E-03  0.103E-01    0.06       1.0  T
   3   -153.0600192  0.126519E+00  0.804E-01    0.24       1.0  T
   4   -153.1849321 -0.124913E+00  0.105E-01    0.06       1.0  T
   5   -153.1856323 -0.700213E-03  0.855E-02    0.06       1.0  T
   6   -153.1870008 -0.136847E-02  0.289E-02    0.06       1.0  T
   7   -153.1871482 -0.147391E-03  0.149E-02    0.06       1.0  T
   8   -153.1871815 -0.332863E-04  0.863E-03    0.06       1.2  T
   9   -153.1871971 -0.156701E-04  0.808E-04    0.06      13.2  T
  10   -153.1871972 -0.147723E-07  0.536E-04    0.06      19.9  T
  11   -153.1871971  0.924109E-07  0.695E-04    0.06      15.3  T
     SCC iter.                  ...        0 min,  0.093 sec
     gradient                   ...        0 min,  0.013 sec
 * total energy  :  -150.8197448 Eh     change       -0.1938872E-03 Eh
   gradient norm :     0.0056017 Eh/α   predicted    -0.1764701E-03 (  -8.98%)
   displ. norm   :     0.5789089 α      lambda       -0.2388806E-03
   maximum displ.:     0.2897774 α      in ANC's #6, #3, #7, ...

........................................................................
.............................. CYCLE   42 ..............................
........................................................................
   1   -153.1889337 -0.153189E+03  0.173E-01    0.06       0.0  T
   2   -153.1868955  0.203819E-02  0.133E-01    0.06       1.0  T
   3   -153.0661811  0.120714E+00  0.786E-01    0.26       1.0  T
   4   -153.1808312 -0.114650E+00  0.197E-01    0.06       1.0  T
   5   -153.1889200 -0.808881E-02  0.187E-02    0.06       1.0  T
   6   -153.1889600 -0.399437E-04  0.112E-02    0.06       1.0  T
   7   -153.1889097  0.503046E-04  0.171E-02    0.06       1.0  T
   8   -153.1889574 -0.477336E-04  0.862E-03    0.06       1.2  T
   9   -153.1889734 -0.159986E-04  0.154E-03    0.06       6.9  T
  10   -153.1889738 -0.427889E-06  0.494E-04    0.06      21.6  T
  11   -153.1889735  0.323406E-06  0.124E-03    0.06       8.6  T
     SCC iter.                  ...        0 min,  0.092 sec
     gradient                   ...        0 min,  0.013 sec
 * total energy  :  -150.8199349 Eh     change       -0.1901069E-03 Eh
   gradient norm :     0.0057509 Eh/α   predicted    -0.1594734E-03 ( -16.11%)
   displ. norm   :     0.5993248 α      lambda       -0.2603244E-03
   maximum displ.:     0.2933529 α      in ANC's #6, #3, #7, ...
 * RMSD in coord.:     1.2591656 α      energy gain  -0.1014546E-01 Eh

generating ANC from model Hessian ...
Using Lindh-Hessian (1995)
 Shifting diagonal of input Hessian by   5.009135488200715E-003
 Lowest  eigenvalues of input Hessian
    0.005000   -0.000000   -0.000000   -0.000000    0.000000    0.000000
    0.000000    0.005043    0.005089    0.005114    0.005171    0.005177
    0.005277    0.005448    0.005526    0.005695    0.005826    0.006045
 Highest eigenvalues
    2.054474    2.074044    2.089872    2.094526    2.124207    2.249340
 

........................................................................
.............................. CYCLE   43 ..............................
........................................................................
   1   -153.1888672 -0.153189E+03  0.184E-01    0.06       0.0  T
   2   -153.1586372  0.302300E-01  0.396E-01    0.08       1.0  T
   3   -153.1208640  0.377731E-01  0.578E-01    0.13       1.0  T
   4   -153.1884062 -0.675422E-01  0.592E-02    0.06       1.0  T
   5   -153.1886727 -0.266503E-03  0.402E-02    0.06       1.0  T
   6   -153.1889395 -0.266794E-03  0.162E-02    0.06       1.0  T
   7   -153.1889710 -0.315200E-04  0.891E-03    0.06       1.2  T
   8   -153.1889836 -0.125469E-04  0.256E-03    0.06       4.2  T
   9   -153.1889843 -0.768683E-06  0.100E-03    0.06      10.6  T
  10   -153.1889838  0.528470E-06  0.172E-03    0.06       6.2  T
  11   -153.1889839 -0.564375E-07  0.157E-03    0.06       6.8  T
  12   -153.1889844 -0.555670E-06  0.224E-04    0.06      47.6  T
  13   -153.1889844 -0.552654E-08  0.118E-04    0.06      90.4  T
     SCC iter.                  ...        0 min,  0.109 sec
     gradient                   ...        0 min,  0.014 sec
 * total energy  :  -150.8201325 Eh     change       -0.1975660E-03 Eh
   gradient norm :     0.0071986 Eh/α   predicted     0.0000000E+00 (-100.00%)
   displ. norm   :     0.1045332 α      lambda       -0.1490372E-03
   maximum displ.:     0.0408098 α      in ANC's #18, #13, #9, ...

........................................................................
.............................. CYCLE   44 ..............................
........................................................................
   1   -153.1895378 -0.153190E+03  0.648E-02    0.06       0.0  T
   2   -153.1865761  0.296170E-02  0.123E-01    0.06       1.0  T
   3   -153.1668181  0.197580E-01  0.332E-01    0.08       1.0  T
   4   -153.1895313 -0.227132E-01  0.108E-02    0.06       1.0  T
   5   -153.1894913  0.399991E-04  0.163E-02    0.06       1.0  T
   6   -153.1895185 -0.272318E-04  0.116E-02    0.06       1.0  T
   7   -153.1895478 -0.292641E-04  0.305E-03    0.06       3.5  T
   8   -153.1895496 -0.183367E-05  0.106E-03    0.06      10.0  T
   9   -153.1895498 -0.162956E-06  0.442E-04    0.06      24.1  T
     SCC iter.                  ...        0 min,  0.076 sec
     gradient                   ...        0 min,  0.013 sec
 * total energy  :  -150.8202495 Eh     change       -0.1170737E-03 Eh
   gradient norm :     0.0035375 Eh/α   predicted    -0.7535950E-04 ( -35.63%)
   displ. norm   :     0.1152342 α      lambda       -0.1002421E-03
   maximum displ.:     0.0431475 α      in ANC's #18, #13, #9, ...

........................................................................
.............................. CYCLE   45 ..............................
........................................................................
   1   -153.1899265 -0.153190E+03  0.650E-02    0.06       0.0  T
   2   -153.1878922  0.203428E-02  0.104E-01    0.06       1.0  T
   3   -153.1605643  0.273279E-01  0.378E-01    0.08       1.0  T
   4   -153.1899220 -0.293577E-01  0.105E-02    0.06       1.0  T
   5   -153.1898856  0.363717E-04  0.152E-02    0.06       1.0  T
   6   -153.1899034 -0.178360E-04  0.119E-02    0.06       1.0  T
   7   -153.1899353 -0.318091E-04  0.207E-03    0.06       5.2  T
   8   -153.1899358 -0.540036E-06  0.119E-03    0.06       9.0  T
   9   -153.1899361 -0.259377E-06  0.320E-04    0.06      33.3  T
  10   -153.1899361 -0.100121E-07  0.153E-04    0.06      69.5  T
     SCC iter.                  ...        0 min,  0.085 sec
     gradient                   ...        0 min,  0.014 sec
 * total energy  :  -150.8203253 Eh     change       -0.7577068E-04 Eh
   gradient norm :     0.0015974 Eh/α   predicted    -0.5078714E-04 ( -32.97%)
   displ. norm   :     0.2639609 α      lambda       -0.8852718E-04
   maximum displ.:     0.0924525 α      in ANC's #18, #13, #9, ...

........................................................................
.............................. CYCLE   46 ..............................
........................................................................
   1   -153.1897214 -0.153190E+03  0.152E-01    0.05       0.0  T
   2   -153.1889749  0.746582E-03  0.956E-02    0.06       1.0  T
   3   -153.0681061  0.120869E+00  0.783E-01    0.23       1.0  T
   4   -153.1882010 -0.120095E+00  0.877E-02    0.06       1.0  T
   5   -153.1893517 -0.115069E-02  0.430E-02    0.06       1.0  T
   6   -153.1895354 -0.183747E-03  0.300E-02    0.06       1.0  T
   7   -153.1896832 -0.147792E-03  0.169E-02    0.06       1.0  T
   8   -153.1897389 -0.557179E-04  0.615E-03    0.05       1.7  T
   9   -153.1897469 -0.794522E-05  0.595E-04    0.06      17.9  T
  10   -153.1897467  0.155193E-06  0.957E-04    0.06      11.1  T
  11   -153.1897468 -0.125546E-06  0.498E-04    0.06      21.4  T
     SCC iter.                  ...        0 min,  0.096 sec
     gradient                   ...        0 min,  0.015 sec
 * total energy  :  -150.8203962 Eh     change       -0.7088343E-04 Eh
   gradient norm :     0.0046265 Eh/α   predicted    -0.4563912E-04 ( -35.61%)
   displ. norm   :     0.0843506 α      lambda       -0.3975956E-04
   maximum displ.:     0.0328103 α      in ANC's #9, #6, #4, ...

........................................................................
.............................. CYCLE   47 ..............................
........................................................................
   1   -153.1900377 -0.153190E+03  0.371E-02    0.05       0.0  T
   2   -153.1889541  0.108352E-02  0.753E-02    0.06       1.0  T
   3   -153.1855554  0.339871E-02  0.147E-01    0.06       1.0  T
   4   -153.1900366 -0.448116E-02  0.556E-03    0.05       1.9  T
   5   -153.1900267  0.985125E-05  0.813E-03    0.05       1.3  T
   6   -153.1900381 -0.113510E-04  0.373E-03    0.05       2.9  T
   7   -153.1900410 -0.295544E-05  0.125E-03    0.05       8.5  T
   8   -153.1900414 -0.326808E-06  0.254E-04    0.05      41.9  T
     SCC iter.                  ...        0 min,  0.068 sec
     gradient                   ...        0 min,  0.013 sec
 * total energy  :  -150.8204314 Eh     change       -0.3524367E-04 Eh
   gradient norm :     0.0037723 Eh/α   predicted    -0.2006013E-04 ( -43.08%)
   displ. norm   :     0.2629535 α      lambda       -0.1180870E-03
   maximum displ.:     0.1049734 α      in ANC's #6, #9, #4, ...

........................................................................
.............................. CYCLE   48 ..............................
........................................................................
   1   -153.1903146 -0.153190E+03  0.120E-01    0.05       0.0  T
   2   -153.1800116  0.103030E-01  0.234E-01    0.06       1.0  T
   3   -153.1498340  0.301776E-01  0.442E-01    0.09       1.0  T
   4   -153.1902285 -0.403946E-01  0.274E-02    0.05       1.0  T
   5   -153.1903498 -0.121297E-03  0.839E-03    0.05       1.3  T
   6   -153.1903502 -0.365580E-06  0.526E-03    0.05       2.0  T
   7   -153.1903380  0.122373E-04  0.856E-03    0.05       1.2  T
   8   -153.1903527 -0.147512E-04  0.184E-03    0.05       5.8  T
   9   -153.1903533 -0.558580E-06  0.507E-04    0.05      21.0  T
  10   -153.1903532  0.353807E-07  0.581E-04    0.05      18.4  T
     SCC iter.                  ...        0 min,  0.084 sec
     gradient                   ...        0 min,  0.014 sec
 * total energy  :  -150.8205155 Eh     change       -0.8410109E-04 Eh
   gradient norm :     0.0020427 Eh/α   predicted    -0.6313650E-04 ( -24.93%)
   displ. norm   :     0.2520509 α      lambda       -0.6498100E-04
   maximum displ.:     0.1049240 α      in ANC's #6, #9, #4, ...

........................................................................
.............................. CYCLE   49 ..............................
........................................................................
   1   -153.1897364 -0.153190E+03  0.110E-01    0.05       0.0  T
   2   -153.1837512  0.598519E-02  0.181E-01    0.06       1.0  T
   3   -153.1425270  0.412242E-01  0.477E-01    0.10       1.0  T
   4   -153.1894998 -0.469728E-01  0.365E-02    0.05       1.0  T
   5   -153.1897484 -0.248632E-03  0.985E-03    0.05       1.1  T
   6   -153.1897451  0.326875E-05  0.880E-03    0.05       1.2  T
   7   -153.1897393  0.579639E-05  0.102E-02    0.05       1.0  T
   8   -153.1897617 -0.223689E-04  0.120E-03    0.05       8.9  T
   9   -153.1897619 -0.200955E-06  0.412E-04    0.05      25.9  T
  10   -153.1897619  0.211335E-07  0.454E-04    0.05      23.5  T
     SCC iter.                  ...        0 min,  0.085 sec
     gradient                   ...        0 min,  0.014 sec
[...]
       145                         -0.2782526              -7.5716
       146                         -0.2666517              -7.2560
       147                         -0.2513706              -6.8401
       148                         -0.2446385              -6.6570
       149                         -0.2304313              -6.2704
       150                         -0.2282757              -6.2117
       151                         -0.2255343              -6.1371
       152                         -0.2228556              -6.0642
       ...                                ...                  ...
       307                          0.7202442              19.5988
      -------------------------------------------------------------
                  HL-Gap            0.0020073 Eh            0.0546 eV
             Fermi-level           -0.3232572 Eh           -8.7963 eV

     #   Z        covCN         q      C6AA      α(0)
     1   6 C      2.879    -0.097    30.440     9.045
     2   6 C      2.970     0.054    26.792     8.490
     3   6 C      3.055    -0.043    29.003     8.832
     4   6 C      3.059    -0.037    28.848     8.808
     5   6 C      3.022     0.027    27.368     8.581
     6  16 S      2.310    -0.048   143.054    20.130
     7   6 C      3.023     0.023    27.461     8.596
     8   6 C      3.074    -0.047    29.084     8.842
     9   6 C      3.102    -0.046    28.998     8.824
    10   6 C      2.974     0.031    27.296     8.570
    11  16 S      2.566    -0.036   142.531    20.094
    12   6 C      2.910    -0.044    29.081     8.843
    13   6 C      2.914    -0.044    29.101     8.846
    14   6 C      2.975     0.032    27.274     8.566
    15   6 C      3.114    -0.048    29.037     8.827
    16   6 C      3.082    -0.047    29.079     8.840
    17   6 C      3.043     0.019    27.542     8.608
    18  16 S      2.659    -0.038   142.632    20.101
    19   6 C      3.038     0.026    27.391     8.584
    20   6 C      3.089    -0.047    29.058     8.836
    21   6 C      3.107    -0.047    29.026     8.827
    22   6 C      2.977     0.030    27.330     8.575
    23  16 S      2.449    -0.074   144.128    20.206
    24   6 C      2.977    -0.056    29.391     8.893
    25   6 C      2.953     0.024    27.468     8.596
    26  16 S      2.350    -0.091   144.857    20.257
    27   6 C      2.966     0.037    27.164     8.549
    28   6 C      3.235    -0.031    27.880     8.568
    29   6 C      3.219     0.035    26.512     8.373
    30   7 N      2.961     0.003    21.214     6.841
    31   7 N      2.005    -0.196    26.018     7.565
    32   6 C      3.063     0.028    27.318     8.571
    33   6 C      2.934    -0.046    29.147     8.854
    34   6 C      2.911    -0.033    28.822     8.803
    35   6 C      2.933    -0.045    29.111     8.849
    36   6 C      2.989     0.031    27.304     8.571
    37   6 C      3.097    -0.049    29.086     8.839
    38   6 C      3.090    -0.048    29.074     8.838
    39   6 C      3.027     0.021    27.508     8.603
    40  16 S      2.399    -0.056   143.359    20.152
    41   6 C      3.029     0.022    27.476     8.598
    42   6 C      3.088    -0.047    29.069     8.838
    43   6 C      3.096    -0.048    29.063     8.835
    44   6 C      2.986     0.031    27.294     8.570
    45  16 S      2.388    -0.057   143.418    20.156
    46   6 C      2.931    -0.042    29.042     8.838
    47   6 C      2.930    -0.041    29.029     8.836
    48   6 C      2.985     0.031    27.297     8.570
    49   6 C      3.083    -0.046    29.032     8.833
    50   6 C      3.076    -0.048    29.098     8.844
    51   6 C      3.020     0.024    27.447     8.594
    52  16 S      2.338    -0.052   143.210    20.141
    53   6 C      3.020     0.024    27.436     8.592
    54   6 C      3.059    -0.038    28.875     8.812
    55   6 C      3.055    -0.048    29.124     8.850
    56   6 C      2.970     0.050    26.864     8.502
    57  16 S      2.308    -0.072   144.051    20.200
    58   6 C      2.879    -0.104    30.623     9.072
    59   1 H      0.926     0.063     2.162     2.299
    60   1 H      0.926     0.053     2.288     2.365
    61   1 H      0.926     0.046     2.365     2.405
    62   1 H      0.926     0.040     2.445     2.445
    63   1 H      0.926     0.038     2.470     2.458
    64   1 H      0.926     0.038     2.476     2.460
    65   1 H      0.925     0.042     2.426     2.435
    66   1 H      0.925     0.041     2.440     2.443
    67   1 H      0.926     0.037     2.486     2.466
    68   1 H      0.926     0.038     2.482     2.464
    69   1 H      0.926     0.038     2.471     2.458
    70   1 H      0.926     0.039     2.457     2.451
    71   1 H      0.925     0.054     2.268     2.355
    72   1 H      0.861     0.186     1.183     1.704
    73   1 H      0.926     0.041     2.438     2.442
    74   1 H      0.926     0.043     2.413     2.429
    75   1 H      0.926     0.052     2.295     2.369
    76   1 H      0.925     0.042     2.426     2.436
    77   1 H      0.926     0.037     2.492     2.468
    78   1 H      0.926     0.035     2.514     2.480
    79   1 H      0.926     0.036     2.504     2.475
    80   1 H      0.926     0.039     2.466     2.456
    81   1 H      0.925     0.049     2.326     2.385
    82   1 H      0.925     0.048     2.343     2.394
    83   1 H      0.926     0.039     2.455     2.450
    84   1 H      0.926     0.036     2.504     2.475
    85   1 H      0.926     0.038     2.469     2.457
    86   1 H      0.926     0.042     2.428     2.436
    87   1 H      0.926     0.049     2.327     2.385
    88   1 H      0.926     0.051     2.313     2.378

 Mol. C6AA /au·bohr⁶  :     170990.206580
 Mol. C8AA /au·bohr⁸  :    5309504.485282
 Mol. α(0) /au        :        677.998429


Wiberg/Mayer (AO) data.
largest (>0.10) Wiberg bond orders for each atom
          total WBO             WBO to atom ...
     1  C   3.775        C    2 1.683    H   60 0.976    H   59 0.964
     2  C   3.957        C    1 1.683    C    3 1.177    S    6 1.040
     3  C   3.856        C    4 1.597    C    2 1.177    H   61 0.961
     4  C   3.978        C    3 1.597    C    5 1.254    H   62 0.962
     5  C   3.813        C    7 1.318    C    4 1.254    S    6 1.121
     6  S   2.423        C    5 1.121    C    2 1.040
     7  C   3.942        C    8 1.321    C    5 1.318    S   11 1.098
     8  C   3.907        C    9 1.472    C    7 1.321    H   63 0.963
     9  C   3.948        C    8 1.472    C   10 1.342    H   64 0.964
    10  C   3.865        C    9 1.342    C   12 1.267    S   11 1.121
    11  S   2.550        C   10 1.121    C    7 1.098
    12  C   3.946        C   13 1.547    C   10 1.267    H   65 0.956
    13  C   3.908        C   12 1.547    C   14 1.254    H   66 0.958
    14  C   3.912        C   15 1.381    C   13 1.254    S   18 1.120
    15  C   3.931        C   16 1.415    C   14 1.381    H   67 0.965
    16  C   3.952        C   15 1.415    C   17 1.396    H   68 0.964
    17  C   3.905        C   16 1.396    C   19 1.217    S   18 1.120
    18  S   2.592        C   14 1.120    C   17 1.120
    19  C   3.906        C   20 1.407    C   17 1.217    S   23 1.110
    20  C   3.951        C   19 1.407    C   21 1.404    H   69 0.964
    21  C   3.935        C   20 1.404    C   22 1.390    H   70 0.964
    22  C   3.915        C   21 1.390    C   24 1.258    S   23 1.103
    23  S   2.542        C   19 1.110    C   22 1.103
    24  C   3.932        C   25 1.510    C   22 1.258    H   71 0.953
    25  C   3.917        C   24 1.510    C   29 1.174    S   26 1.057
    26  S   2.406        C   27 1.068    C   25 1.057
    27  C   3.900        C   33 1.511    C   28 1.164    S   26 1.068
    28  C   3.955        C   32 1.298    C   29 1.294    C   27 1.164
    29  C   3.938        C   28 1.294    N   30 1.242    C   25 1.174    N   31 0.117
    30  N   3.603        C   29 1.242    N   31 1.208    H   72 0.920
    31  N   2.970        C   32 1.528    N   30 1.208    C   29 0.117
    32  C   3.968        N   31 1.528    C   28 1.298    H   73 0.963
    33  C   3.936        C   27 1.511    C   34 1.276    H   74 0.962
    34  C   3.953        C   35 1.562    C   33 1.276    H   75 0.946
    35  C   3.921        C   34 1.562    C   36 1.242    H   76 0.958
    36  C   3.914        C   37 1.409    C   35 1.242    S   40 1.109
    37  C   3.931        C   36 1.409    C   38 1.396    H   77 0.964
    38  C   3.949        C   39 1.409    C   37 1.396    H   78 0.964
    39  C   3.913        C   38 1.409    C   41 1.217    S   40 1.121
    40  S   2.546        C   39 1.121    C   36 1.109
    41  C   3.904        C   42 1.405    C   39 1.217    S   45 1.120
    42  C   3.953        C   41 1.405    C   43 1.405    H   79 0.964
    43  C   3.924        C   42 1.405    C   44 1.395    H   80 0.964
    44  C   3.911        C   43 1.395    C   46 1.259    S   45 1.104
    45  S   2.525        C   41 1.120    C   44 1.104
    46  C   3.906        C   47 1.544    C   44 1.259    H   81 0.953
    47  C   3.948        C   46 1.544    C   48 1.278    H   82 0.948
    48  C   3.866        C   49 1.350    C   47 1.278    S   52 1.108
    49  C   3.942        C   50 1.466    C   48 1.350    H   83 0.964
    50  C   3.900        C   49 1.466    C   51 1.323    H   84 0.963
    51  C   3.942        C   50 1.323    C   53 1.321    S   52 1.102
    52  S   2.488        C   48 1.108    C   51 1.102
    53  C   3.810        C   51 1.321    C   54 1.261    S   57 1.106
    54  C   3.977        C   55 1.589    C   53 1.261    H   85 0.962
    55  C   3.851        C   54 1.589    C   56 1.180    H   86 0.964
    56  C   3.955        C   58 1.677    C   55 1.180    S   57 1.041
    57  S   2.403        C   53 1.106    C   56 1.041
    58  C   3.769        C   56 1.677    H   88 0.977    H   87 0.970
    59  H   0.995        C    1 0.964
    60  H   0.997        C    1 0.976
    61  H   0.997        C    3 0.961
    62  H   0.998        C    4 0.962
    63  H   0.998        C    8 0.963
    64  H   0.998        C    9 0.964
    65  H   0.996        C   12 0.956
    66  H   0.997        C   13 0.958
    67  H   0.998        C   15 0.965
    68  H   0.998        C   16 0.964
    69  H   0.998        C   20 0.964
    70  H   0.998        C   21 0.964
    71  H   0.996        C   24 0.953
    72  H   0.965        N   30 0.920
    73  H   0.998        C   32 0.963
    74  H   0.997        C   33 0.962
    75  H   0.997        C   34 0.946
    76  H   0.998        C   35 0.958
    77  H   0.998        C   37 0.964
    78  H   0.998        C   38 0.964
    79  H   0.998        C   42 0.964
    80  H   0.998        C   43 0.964
    81  H   0.997        C   46 0.953
    82  H   0.997        C   47 0.948
    83  H   0.998        C   49 0.964
    84  H   0.998        C   50 0.963
    85  H   0.998        C   54 0.962
    86  H   0.997        C   55 0.964
    87  H   0.997        C   58 0.970
    88  H   0.997        C   58 0.977

molecular dipole:
                 x           y           z       tot (Debye)
 q only:       -0.526       0.160       0.565
   full:       -0.739       0.111       0.738       2.669
molecular quadrupole (traceless):
                xx          xy          yy          xz          yz          zz
 q only:      -23.244       3.303      15.134      12.637      -4.371       8.109
  q+dip:      -29.434      -4.001      25.540      -5.579      -6.754       3.894
   full:      -28.344      -2.854      20.433       3.257      -5.054       7.911

           -------------------------------------------------
          |                Geometry Summary                 |
           -------------------------------------------------

      molecular mass/u    :      911.3074000
   center of mass at/Å    :       13.0658346      -3.5372294      -1.3386669
  moments of inertia/u·Å² :        0.1407196E+05   0.2863472E+05   0.4233415E+05
rotational constants/cm⁻¹ :        0.1197959E-02   0.5887130E-03   0.3982041E-03

 * 93 selected distances

     #   Z        #   Z                                     value/Å
     1   6 C      2   6 C                                 1.3436666
     2   6 C      3   6 C                                 1.4288854
     3   6 C      4   6 C                                 1.3588700
     4   6 C      5   6 C                                 1.4131759
     5   6 C      6  16 S                                 1.7450758
     5   6 C      7   6 C                                 1.3925682
     7   6 C      8   6 C                                 1.3991814
     8   6 C      9   6 C                                 1.3762119
     9   6 C     10   6 C                                 1.3998925
     7   6 C     11  16 S                                 1.7483857
    10   6 C     11  16 S                                 1.7434179
    10   6 C     12   6 C                                 1.4097554
    12   6 C     13   6 C                                 1.3684283
    13   6 C     14   6 C                                 1.4109375
    14   6 C     15   6 C                                 1.3936575
    15   6 C     16   6 C                                 1.3866278
    16   6 C     17   6 C                                 1.3853191
    14   6 C     18  16 S                                 1.7375541
    17   6 C     18  16 S                                 1.7417396
    17   6 C     19   6 C                                 1.4117438
    19   6 C     20   6 C                                 1.3845155
    20   6 C     21   6 C                                 1.3889647
    21   6 C     22   6 C                                 1.3906072
    19   6 C     23  16 S                                 1.7414447
    22   6 C     23  16 S                                 1.7438658
    22   6 C     24   6 C                                 1.4072764
    24   6 C     25   6 C                                 1.3673078
    27   6 C     28   6 C                                 1.4253985
    25   6 C     29   6 C                                 1.4231293
    28   6 C     29   6 C                                 1.4093639
    29   6 C     30   7 N                                 1.3500634
    30   7 N     31   7 N                                 1.3329089
    28   6 C     32   6 C                                 1.4083010
    31   7 N     32   6 C                                 1.3164503
    27   6 C     33   6 C                                 1.3655002
    33   6 C     34   6 C                                 1.4058712
    34   6 C     35   6 C                                 1.3618824
    35   6 C     36   6 C                                 1.4123386
    36   6 C     37   6 C                                 1.3856558
    37   6 C     38   6 C                                 1.3902712
    38   6 C     39   6 C                                 1.3851411
    36   6 C     40  16 S                                 1.7456152
    39   6 C     40  16 S                                 1.7403613
    39   6 C     41   6 C                                 1.4127476
    41   6 C     42   6 C                                 1.3855677
    42   6 C     43   6 C                                 1.3881303
    43   6 C     44   6 C                                 1.3876998
    41   6 C     45  16 S                                 1.7419996
    44   6 C     45  16 S                                 1.7463391
    44   6 C     46   6 C                                 1.4069868
    46   6 C     47   6 C                                 1.3643209
    47   6 C     48   6 C                                 1.4022038
    48   6 C     49   6 C                                 1.3951624
    49   6 C     50   6 C                                 1.3775059
    50   6 C     51   6 C                                 1.4000538
    48   6 C     52  16 S                                 1.7463672
    51   6 C     52  16 S                                 1.7491335 (max)
    51   6 C     53   6 C                                 1.3917677
    53   6 C     54   6 C                                 1.4113029
    54   6 C     55   6 C                                 1.3598700
    55   6 C     56   6 C                                 1.4283166
    53   6 C     57  16 S                                 1.7481608
    56   6 C     58   6 C                                 1.3447345
     1   6 C     59   1 H                                 1.0757988
     1   6 C     60   1 H                                 1.0744772
     3   6 C     61   1 H                                 1.0754709
     4   6 C     62   1 H                                 1.0760789
     8   6 C     63   1 H                                 1.0749435
     9   6 C     64   1 H                                 1.0764982
    12   6 C     65   1 H                                 1.0854408
    13   6 C     66   1 H                                 1.0848294
    15   6 C     67   1 H                                 1.0762424
    16   6 C     68   1 H                                 1.0752541
    20   6 C     69   1 H                                 1.0751392
    21   6 C     70   1 H                                 1.0758535
    24   6 C     71   1 H                                 1.0834779
    30   7 N     72   1 H                                 1.0067425 (min)
    32   6 C     73   1 H                                 1.0708899
    33   6 C     74   1 H                                 1.0810227
    34   6 C     75   1 H                                 1.0807359
    35   6 C     76   1 H                                 1.0814987
    37   6 C     77   1 H                                 1.0759004
    38   6 C     78   1 H                                 1.0752483
    42   6 C     79   1 H                                 1.0751632
    43   6 C     80   1 H                                 1.0757300
    46   6 C     81   1 H                                 1.0824534
    47   6 C     82   1 H                                 1.0833342
    49   6 C     83   1 H                                 1.0764284
    50   6 C     84   1 H                                 1.0749710
    54   6 C     85   1 H                                 1.0756988
    55   6 C     86   1 H                                 1.0752937
    58   6 C     87   1 H                                 1.0754396
    58   6 C     88   1 H                                 1.0742078

 * 6 distinct bonds (by element types)

   Z      Z             #   av. dist./Å        max./Å        min./Å
   1 H    6 C          29     1.0773628     1.0854408     1.0708899
   6 C    6 C          46     1.3923221     1.4288854     1.3436666
   1 H    7 N           1     1.0067425     1.0067425     1.0067425
   6 C    7 N           2     1.3332568     1.3500634     1.3164503
   7 N    7 N           1     1.3329089     1.3329089     1.3329089
   6 C   16 S          14     1.7442471     1.7491335     1.7375541


optimized geometry written to: xtbopt.xyz


           -------------------------------------------------
          | TOTAL ENERGY             -150.824344155531 Eh   |
          | GRADIENT NORM               0.001004537759 Eh/α |
          | HOMO-LUMO GAP               0.054620780420 eV   |
           -------------------------------------------------

------------------------------------------------------------------------
 * finished run on 2021/06/04 at 07:10:58.309     
------------------------------------------------------------------------
 total:
 * wall-time:     0 d,  0 h,  0 min, 15.618 sec
 *  cpu-time:     0 d,  0 h,  3 min,  7.281 sec
 * ratio c/w:    11.991 speedup
 SCF:
 * wall-time:     0 d,  0 h,  0 min,  0.172 sec
 *  cpu-time:     0 d,  0 h,  0 min,  2.057 sec
 * ratio c/w:    11.932 speedup
 ANC optimizer:
 * wall-time:     0 d,  0 h,  0 min, 15.405 sec
 *  cpu-time:     0 d,  0 h,  3 min,  4.840 sec
 * ratio c/w:    11.999 speedup

