      -----------------------------------------------------------      
     |                   =====================                   |     
     |                           x T B                           |     
     |                   =====================                   |     
     |                         S. Grimme                         |     
     |          Mulliken Center for Theoretical Chemistry        |     
     |                    University of Bonn                     |     
     |                Version 6.2 RC2 (SAW190805)                |     
      -----------------------------------------------------------      

   This program is distributed in the hope that it will be useful,
   but WITHOUT ANY WARRANTY; without even the implied warranty of
   MERCHANTABILITY or FITNESS FOR A PARTICULAR PURPOSE.
   
   FOR NON-COMMERCIAL, ACADEMIA USE ONLY.
   
   Cite this work as:
   * S. Grimme, C. Bannwarth, P. Shushkov, J. Chem. Theory Comput., 2017,
     13, 1989-2009. DOI: 10.1021/acs.jctc.7b00118
   * C. Bannwarth, S. Ehlert and S. Grimme., J. Chem. Theory Comput., 2019,
     15, 1652-1671. DOI: 10.1021/acs.jctc.8b01176
   * P. Pracht, E. Caldeweyher, S. Ehlert, S. Grimme, ChemRxiv, 2019, preprint.
     DOI: 10.26434/chemrxiv.8326202.v1
   
   for DFT-D4:
   * E. Caldeweyher, C. Bannwarth and S. Grimme, J. Chem. Phys., 2017,
     147, 034112. DOI: 10.1063/1.4993215
   * E. Caldeweyher, S. Ehlert, A. Hansen, H. Neugebauer, S. Spicher,
     C. Bannwarth and S. Grimme, J. Chem. Phys., 2019, 150, 154122.
     DOI: 10.1063/1.5090222
   
   for sTDA-xTB:
   * S. Grimme and C. Bannwarth, J. Chem. Phys., 2016, 145, 054103.
     DOI: 10.1063/1.4959605
   
   in the mass-spec context:
   * V. Asgeirsson, C. Bauer and S. Grimme, Chem. Sci., 2017, 8, 4879.
     DOI: 10.1039/c7sc00601b
   
   for metadynamics refer to:
   * S. Grimme, J. Chem. Theory Comput., 2019, 155, 2847-2862
     DOI: 10.1021/acs.jctc.9b00143
   
   with help from (in alphabetical order)
   C. Bannwarth, F. Bohle, G. Brandenburg, E. Caldeweyher, M. Checinski,
   S. Dohm, S. Ehlert, S. Ehrlich, F. März, H. Neugebauer, J. Pisarek,
   P. Pracht, P. Shushkov, and S. Spicher.
   
 * started run on 2021/06/15 at 05:45:38.556     

           -------------------------------------------------
          |                Calculation Setup                |
           -------------------------------------------------

          program call               : /ihome/ghutchison/geoffh/xtb/xtb /ihome/ghutchison/blp62/GA/running_GA/sequence/generations/195/47_482_482_482_47_02220.xyz -opt
          hostname                   : smp-n53
          coordinate file            : /ihome/ghutchison/blp62/GA/running_GA/sequence/generations/195/47_482_482_482_47_02220.xyz
          omp threads                :                    12
          number of atoms            :                    77
          number of electrons        :                   274
          charge                     :                     0
          spin                       :                   0.0
          first test random number   :      0.98470775396570


########################################################################
# WARNING! Please study the warnings concerning your input carefully
#  - XTBPATH is not set, using XTBHOME instead
#  - the use of '-opt' is discouraged, please use '--opt' next time
########################################################################

           ------------------------------------------------- 
          |                 G F N 2 - x T B                 |
          | Geometry, Frequencies, Noncovalent interactions |
          |            JCTC 2019 parametrisation            |
           ------------------------------------------------- 
             KAB for C  - Si     :                1.0500
             KAB for H  - Pd     :                0.9500
             k(s)              :                1.8500
             k(p)              :                2.2300
             k(d)              :                2.2300
             k(f)              :                2.0000
             kEN (H0ij)        :               -2.0000
             D4 a1             :                0.5200
             D4 a2             :                5.0000
             D4 s6             :                1.0000
             D4 s8             :                2.7000
             D4 s9             :                5.0000
             alphaj            :                2.0000

  Z AO/shell   Hii/eV     exponent
  1     Wed Apr 25 08:07:45 CEST 2018   EN: 2.200 GM2: 0.406  GM3: 0.0800  RAES: 1.40
     1s    -10.707211    1.230000
  6     Wed Apr 25 08:07:45 CEST 2018   EN: 2.550 GM2: 0.538  GM3: 0.1500  RAES: 3.00
     2s    -13.970922    2.096432
     2p    -10.063292    1.800000
 16     Tue Apr 24 11:44:34 CEST 2018   EN: 2.580 GM2: 0.340  GM3:-0.0502  RAES: 3.10
     3s    -20.029654    1.981333
     3p    -11.377694    2.025643
     3d     -0.420282    1.702555

           ------------------------------------------------- 
          |        Self-Consistent Charge Iterations        |
           ------------------------------------------------- 

          ...................................................
          :                      SETUP                      :
          :.................................................:
          :  # basis functions                 326          :
          :  # atomic orbitals                 313          :
          :  # shells                          147          :
          :  # electrons                       274          :
          :  max. iterations                   250          :
          :  Hamiltonian                  GFN2-xTB          :
          :  restarted?                      false          :
          :  GBSA solvation                  false          :
          :  PC potential                    false          :
          :  electronic temp.          300.0000000     K    :
          :  accuracy                    1.0000000          :
          :  -> integral cutoff          0.2500000E+02      :
          :  -> integral neglect         0.1000000E-07      :
          :  -> SCF convergence          0.1000000E-05 Eh   :
          :  -> wf. convergence          0.1000000E-03 e    :
          :  Broyden damping             0.4000000          :
          ...................................................

 iter      E             dE          RMSdq      gap      omega  full diag
   1   -148.4418022 -0.148442E+03  0.455E+00    1.61       0.0  T
   2   -148.5019535 -0.601513E-01  0.252E+00    1.38       1.0  T
   3   -148.3818866  0.120067E+00  0.149E+00    1.45       1.0  T
   4   -148.5312778 -0.149391E+00  0.528E-01    1.37       1.0  T
   5   -148.5362106 -0.493277E-02  0.300E-01    1.38       1.0  T
   6   -148.5398459 -0.363535E-02  0.171E-01    1.37       1.0  T
   7   -148.5411283 -0.128232E-02  0.894E-02    1.37       1.0  T
   8   -148.5418995 -0.771215E-03  0.253E-02    1.37       1.0  T
   9   -148.5419168 -0.173445E-04  0.139E-02    1.37       1.0  T
  10   -148.5419168  0.353654E-07  0.845E-03    1.37       1.3  T
  11   -148.5419197 -0.288842E-05  0.472E-03    1.37       2.4  T
  12   -148.5419209 -0.121884E-05  0.221E-03    1.37       5.2  T
  13   -148.5419211 -0.199970E-06  0.106E-03    1.37      10.7  T
  14   -148.5419211 -0.374409E-07  0.494E-04    1.37      23.1  T
  15   -148.5419211 -0.349661E-08  0.230E-04    1.37      49.5  T

   *** convergence criteria satisfied after 15 iterations ***

         #    Occupation            Energy/Eh            Energy/eV
      -------------------------------------------------------------
         1        2.0000           -0.7408293             -20.1590
       ...           ...                  ...                  ...
       131        2.0000           -0.3838204             -10.4443
       132        2.0000           -0.3777302             -10.2786
       133        2.0000           -0.3703112             -10.0767
       134        2.0000           -0.3627591              -9.8712
       135        2.0000           -0.3578845              -9.7385
       136        2.0000           -0.3502813              -9.5316
       137        2.0000           -0.3499986              -9.5239 (HOMO)
       138                         -0.2995291              -8.1506 (LUMO)
       139                         -0.2991025              -8.1390
       140                         -0.2788955              -7.5891
       141                         -0.2773604              -7.5474
       142                         -0.2609640              -7.1012
       ...                                ...                  ...
       313                          0.7645457              20.8043
      -------------------------------------------------------------
                  HL-Gap            0.0504694 Eh            1.3733 eV
             Fermi-level           -0.3247365 Eh           -8.8365 eV

 SCC (total)                   0 d,  0 h,  0 min,  0.698 sec
 SCC setup                      ...        0 min,  0.002 sec (  0.254%)
 Dispersion                     ...        0 min,  0.003 sec (  0.432%)
 integral evaluation            ...        0 min,  0.028 sec (  4.018%)
 zeroth order Hamiltonian       ...        0 min,  0.001 sec (  0.166%)
 iterations                     ...        0 min,  0.636 sec ( 91.114%)
 molecular gradient             ...        0 min,  0.027 sec (  3.854%)
 printout                       ...        0 min,  0.001 sec (  0.149%)

         :::::::::::::::::::::::::::::::::::::::::::::::::::::
         ::                     SUMMARY                     ::
         :::::::::::::::::::::::::::::::::::::::::::::::::::::
         :: total energy            -146.441895222844 Eh    ::
         :: gradient norm              0.175858809309 Eh/a0 ::
         :: HOMO-LUMO gap              1.373343383997 eV    ::
         ::.................................................::
         :: SCC energy              -148.541921134390 Eh    ::
         :: -> isotropic ES            0.009439065898 Eh    ::
         :: -> anisotropic ES          0.007668574129 Eh    ::
         :: -> anisotropic XC          0.062972028062 Eh    ::
         :: -> dispersion             -0.136136245092 Eh    ::
         :: repulsion energy           2.100943598994 Eh    ::
         :: add. restraining           0.000000000000 Eh    ::
         :::::::::::::::::::::::::::::::::::::::::::::::::::::

      ----------------------------------------------------------- 
     |                   =====================                   |
     |                        A N C O P T                        |
     |                   =====================                   |
     |               Approximate Normal Coordinate               |
     |                Rational Function Optimizer                |
      ----------------------------------------------------------- 

          ...................................................
          :                      SETUP                      :
          :.................................................:
          :   optimization level            normal          :
          :   max. optcycles                   231          :
          :   ANC micro-cycles                  20          :
          :   degrees of freedom               225          :
          :.................................................:
          :   RF solver                   davidson          :
          :   input Hessian                  false          :
          :   write xtbopt.log                true          :
          :   linear?                        false          :
          :   energy convergence         0.5000000E-05 Eh   :
          :   grad. convergence          0.1000000E-02 Eh/α :
          :   maximium RF displ.         2.0000000          :
          :   Hlow (freq-cutoff)         0.5000000E-02      :
          :   Hmax (freq-cutoff)         5.0000000          :
          :   S6 in model hess.         20.0000000          :
          ...................................................

generating ANC from model Hessian ...
Using Lindh-Hessian (1995)
 Shifting diagonal of input Hessian by   4.977826664626793E-003
 Lowest  eigenvalues of input Hessian
   -0.000000   -0.000000   -0.000000    0.000000    0.000000    0.000000
    0.005000    0.005021    0.005035    0.005083    0.005197    0.005359
    0.005463    0.005515    0.005648    0.005958    0.006143    0.006355
 Highest eigenvalues
    2.030344    2.033484    2.034581    2.040422    2.066081    2.073175
 

........................................................................
.............................. CYCLE    1 ..............................
........................................................................
   1   -148.5419211 -0.148542E+03  0.901E-05    1.37       0.0  T
   2   -148.5419211  0.000000E+00  0.659E-05    1.37     172.9  T
   3   -148.5419211 -0.125482E-09  0.504E-05    1.37     226.0  T
     SCC iter.                  ...        0 min,  0.127 sec
     gradient                   ...        0 min,  0.027 sec
 * total energy  :  -146.4418952 Eh     change       -0.1278582E-07 Eh
   gradient norm :     0.1758590 Eh/α   predicted     0.0000000E+00 (-100.00%)
   displ. norm   :     0.4008702 α      lambda       -0.5092162E-01
   maximum displ.:     0.1636163 α      in ANC's #134, #102, #159, ...

........................................................................
.............................. CYCLE    2 ..............................
........................................................................
   1   -148.6027186 -0.148603E+03  0.415E-01    1.31       0.0  T
   2   -148.6030812 -0.362558E-03  0.253E-01    1.31       1.0  T
   3   -148.6020176  0.106354E-02  0.175E-01    1.31       1.0  T
   4   -148.6034873 -0.146970E-02  0.104E-01    1.31       1.0  T
   5   -148.6043281 -0.840791E-03  0.435E-02    1.31       1.0  T
   6   -148.6043928 -0.646862E-04  0.172E-02    1.31       1.0  T
   7   -148.6044092 -0.163508E-04  0.734E-03    1.31       1.6  T
   8   -148.6044106 -0.139624E-05  0.441E-03    1.31       2.6  T
   9   -148.6044115 -0.909789E-06  0.263E-03    1.31       4.3  T
     SCC iter.                  ...        0 min,  0.400 sec
     gradient                   ...        0 min,  0.050 sec
 * total energy  :  -146.4803638 Eh     change       -0.3846859E-01 Eh
   gradient norm :     0.0925581 Eh/α   predicted    -0.2955229E-01 ( -23.18%)
   displ. norm   :     0.4388531 α      lambda       -0.2704336E-01
   maximum displ.:     0.1723061 α      in ANC's #134, #43, #27, ...

........................................................................
.............................. CYCLE    3 ..............................
........................................................................
   1   -148.6313101 -0.148631E+03  0.423E-01    1.24       0.0  T
   2   -148.6317329 -0.422770E-03  0.254E-01    1.24       1.0  T
   3   -148.6302041  0.152882E-02  0.192E-01    1.24       1.0  T
   4   -148.6315966 -0.139255E-02  0.129E-01    1.24       1.0  T
   5   -148.6330450 -0.144839E-02  0.444E-02    1.24       1.0  T
   6   -148.6331088 -0.637486E-04  0.180E-02    1.24       1.0  T
   7   -148.6331265 -0.176794E-04  0.829E-03    1.24       1.4  T
   8   -148.6331279 -0.143156E-05  0.594E-03    1.24       1.9  T
   9   -148.6331303 -0.244874E-05  0.267E-03    1.24       4.3  T
     SCC iter.                  ...        0 min,  0.473 sec
     gradient                   ...        0 min,  0.030 sec
 * total energy  :  -146.4956150 Eh     change       -0.1525117E-01 Eh
   gradient norm :     0.0266005 Eh/α   predicted    -0.1612585E-01 (   5.74%)
   displ. norm   :     0.4591824 α      lambda       -0.4830630E-02
   maximum displ.:     0.2122533 α      in ANC's #20, #27, #43, ...

........................................................................
.............................. CYCLE    4 ..............................
........................................................................
   1   -148.6215617 -0.148622E+03  0.345E-01    1.23       0.0  T
   2   -148.6216580 -0.963594E-04  0.167E-01    1.23       1.0  T
   3   -148.6212898  0.368192E-03  0.715E-02    1.23       1.0  T
   4   -148.6216348 -0.344980E-03  0.350E-02    1.23       1.0  T
   5   -148.6216831 -0.483352E-04  0.231E-02    1.23       1.0  T
   6   -148.6217156 -0.324623E-04  0.413E-03    1.23       2.8  T
   7   -148.6217161 -0.458468E-06  0.287E-03    1.23       4.0  T
   8   -148.6217163 -0.252310E-06  0.202E-03    1.23       5.6  T
     SCC iter.                  ...        0 min,  0.361 sec
     gradient                   ...        0 min,  0.024 sec
 * total energy  :  -146.4993859 Eh     change       -0.3770945E-02 Eh
   gradient norm :     0.0184346 Eh/α   predicted    -0.2924674E-02 ( -22.44%)
   displ. norm   :     0.5963942 α      lambda       -0.4011661E-02
   maximum displ.:     0.2872098 α      in ANC's #20, #18, #11, ...

........................................................................
.............................. CYCLE    5 ..............................
........................................................................
   1   -148.6142979 -0.148614E+03  0.373E-01    1.21       0.0  T
   2   -148.6144037 -0.105829E-03  0.184E-01    1.21       1.0  T
   3   -148.6142597  0.143949E-03  0.548E-02    1.21       1.0  T
   4   -148.6143859 -0.126190E-03  0.332E-02    1.21       1.0  T
   5   -148.6143723  0.136670E-04  0.287E-02    1.21       1.0  T
   6   -148.6144434 -0.711258E-04  0.679E-03    1.21       1.7  T
   7   -148.6144470 -0.360407E-05  0.267E-03    1.21       4.3  T
   8   -148.6144473 -0.327036E-06  0.153E-03    1.21       7.5  T
   9   -148.6144473  0.476547E-08  0.950E-04    1.21      12.0  T
     SCC iter.                  ...        0 min,  0.150 sec
     gradient                   ...        0 min,  0.028 sec
 * total energy  :  -146.5023664 Eh     change       -0.2980467E-02 Eh
   gradient norm :     0.0123025 Eh/α   predicted    -0.2719280E-02 (  -8.76%)
   displ. norm   :     0.5769464 α      lambda       -0.2356965E-02
   maximum displ.:     0.2538659 α      in ANC's #20, #18, #11, ...

........................................................................
.............................. CYCLE    6 ..............................
........................................................................
   1   -148.6159813 -0.148616E+03  0.382E-01    1.20       0.0  T
   2   -148.6161004 -0.119119E-03  0.188E-01    1.20       1.0  T
   3   -148.6159724  0.128059E-03  0.509E-02    1.19       1.0  T
   4   -148.6160477 -0.752691E-04  0.371E-02    1.20       1.0  T
   5   -148.6160947 -0.470010E-04  0.235E-02    1.20       1.0  T
   6   -148.6161390 -0.443683E-04  0.521E-03    1.19       2.2  T
   7   -148.6161409 -0.185679E-05  0.197E-03    1.20       5.8  T
   8   -148.6161410 -0.126886E-06  0.121E-03    1.20       9.4  T
     SCC iter.                  ...        0 min,  0.199 sec
     gradient                   ...        0 min,  0.038 sec
 * total energy  :  -146.5042075 Eh     change       -0.1841113E-02 Eh
   gradient norm :     0.0135865 Eh/α   predicted    -0.1570812E-02 ( -14.68%)
   displ. norm   :     0.5922292 α      lambda       -0.1931082E-02
   maximum displ.:     0.2439239 α      in ANC's #11, #18, #12, ...

........................................................................
.............................. CYCLE    7 ..............................
........................................................................
   1   -148.6230918 -0.148623E+03  0.361E-01    1.18       0.0  T
   2   -148.6231929 -0.101032E-03  0.178E-01    1.18       1.0  T
   3   -148.6230833  0.109540E-03  0.477E-02    1.18       1.0  T
   4   -148.6231205 -0.372084E-04  0.381E-02    1.18       1.0  T
   5   -148.6231963 -0.757643E-04  0.187E-02    1.18       1.0  T
   6   -148.6232246 -0.282748E-04  0.318E-03    1.18       3.6  T
   7   -148.6232251 -0.558702E-06  0.155E-03    1.18       7.3  T
   8   -148.6232252 -0.978312E-07  0.910E-04    1.18      12.5  T
     SCC iter.                  ...        0 min,  0.235 sec
     gradient                   ...        0 min,  0.055 sec
 * total energy  :  -146.5058010 Eh     change       -0.1593514E-02 Eh
   gradient norm :     0.0150557 Eh/α   predicted    -0.1304195E-02 ( -18.16%)
   displ. norm   :     0.6480700 α      lambda       -0.1957298E-02
   maximum displ.:     0.2804403 α      in ANC's #11, #12, #18, ...

........................................................................
.............................. CYCLE    8 ..............................
........................................................................
   1   -148.6323305 -0.148632E+03  0.407E-01    1.16       0.0  T
   2   -148.6324664 -0.135864E-03  0.200E-01    1.16       1.0  T
   3   -148.6322717  0.194732E-03  0.581E-02    1.15       1.0  T
   4   -148.6323962 -0.124553E-03  0.409E-02    1.16       1.0  T
   5   -148.6324840 -0.878203E-04  0.180E-02    1.16       1.0  T
   6   -148.6325108 -0.267463E-04  0.303E-03    1.15       3.8  T
   7   -148.6325114 -0.582623E-06  0.127E-03    1.15       9.0  T
   8   -148.6325114 -0.213766E-07  0.887E-04    1.15      12.8  T
     SCC iter.                  ...        0 min,  0.234 sec
     gradient                   ...        0 min,  0.060 sec
 * total energy  :  -146.5074671 Eh     change       -0.1666049E-02 Eh
   gradient norm :     0.0146298 Eh/α   predicted    -0.1389683E-02 ( -16.59%)
   displ. norm   :     0.7094177 α      lambda       -0.2033654E-02
   maximum displ.:     0.3147134 α      in ANC's #11, #12, #18, ...

........................................................................
.............................. CYCLE    9 ..............................
........................................................................
   1   -148.6382609 -0.148638E+03  0.437E-01    1.13       0.0  T
   2   -148.6384126 -0.151662E-03  0.214E-01    1.13       1.0  T
   3   -148.6380513  0.361215E-03  0.737E-02    1.12       1.0  T
   4   -148.6383564 -0.305005E-03  0.422E-02    1.13       1.0  T
   5   -148.6384235 -0.670982E-04  0.239E-02    1.13       1.0  T
   6   -148.6384711 -0.476027E-04  0.344E-03    1.13       3.3  T
   7   -148.6384717 -0.623295E-06  0.167E-03    1.13       6.8  T
   8   -148.6384718 -0.132259E-06  0.970E-04    1.13      11.8  T
     SCC iter.                  ...        0 min,  0.189 sec
     gradient                   ...        0 min,  0.032 sec
 * total energy  :  -146.5092040 Eh     change       -0.1736927E-02 Eh
   gradient norm :     0.0126348 Eh/α   predicted    -0.1528570E-02 ( -12.00%)
   displ. norm   :     0.7324723 α      lambda       -0.1963421E-02
   maximum displ.:     0.3265740 α      in ANC's #11, #12, #18, ...

........................................................................
.............................. CYCLE   10 ..............................
........................................................................
   1   -148.6394870 -0.148639E+03  0.464E-01    1.10       0.0  T
   2   -148.6396654 -0.178454E-03  0.226E-01    1.10       1.0  T
   3   -148.6391584  0.507038E-03  0.836E-02    1.10       1.0  T
   4   -148.6396100 -0.451584E-03  0.445E-02    1.10       1.0  T
   5   -148.6396930 -0.829702E-04  0.239E-02    1.10       1.0  T
   6   -148.6397374 -0.444055E-04  0.421E-03    1.10       2.7  T
   7   -148.6397384 -0.103906E-05  0.188E-03    1.10       6.1  T
   8   -148.6397386 -0.161451E-06  0.114E-03    1.10      10.0  T
     SCC iter.                  ...        0 min,  0.187 sec
     gradient                   ...        0 min,  0.028 sec
 * total energy  :  -146.5108425 Eh     change       -0.1638470E-02 Eh
   gradient norm :     0.0118462 Eh/α   predicted    -0.1508422E-02 (  -7.94%)
   displ. norm   :     0.7181710 α      lambda       -0.1713019E-02
   maximum displ.:     0.3175920 α      in ANC's #11, #12, #18, ...

........................................................................
.............................. CYCLE   11 ..............................
........................................................................
   1   -148.6370401 -0.148637E+03  0.444E-01    1.07       0.0  T
   2   -148.6371858 -0.145692E-03  0.215E-01    1.07       1.0  T
   3   -148.6363952  0.790568E-03  0.983E-02    1.07       1.0  T
   4   -148.6371863 -0.791129E-03  0.386E-02    1.07       1.0  T
   5   -148.6372244 -0.380971E-04  0.232E-02    1.07       1.0  T
   6   -148.6372665 -0.421216E-04  0.375E-03    1.07       3.0  T
   7   -148.6372673 -0.795072E-06  0.172E-03    1.07       6.6  T
   8   -148.6372675 -0.150485E-06  0.101E-03    1.07      11.3  T
     SCC iter.                  ...        0 min,  0.173 sec
     gradient                   ...        0 min,  0.022 sec
 * total energy  :  -146.5121863 Eh     change       -0.1343782E-02 Eh
   gradient norm :     0.0129630 Eh/α   predicted    -0.1298275E-02 (  -3.39%)
   displ. norm   :     0.6487917 α      lambda       -0.1461918E-02
   maximum displ.:     0.2915380 α      in ANC's #11, #12, #14, ...

........................................................................
.............................. CYCLE   12 ..............................
........................................................................
   1   -148.6380644 -0.148638E+03  0.395E-01    1.06       0.0  T
   2   -148.6381988 -0.134356E-03  0.191E-01    1.06       1.0  T
   3   -148.6381296  0.692272E-04  0.438E-02    1.06       1.0  T
   4   -148.6380894  0.401777E-04  0.427E-02    1.06       1.0  T
   5   -148.6382101 -0.120766E-03  0.164E-02    1.06       1.0  T
   6   -148.6382345 -0.243981E-04  0.324E-03    1.06       3.5  T
   7   -148.6382352 -0.649612E-06  0.126E-03    1.06       9.1  T
   8   -148.6382352 -0.343330E-07  0.820E-04    1.06      13.9  T
     SCC iter.                  ...        0 min,  0.188 sec
     gradient                   ...        0 min,  0.037 sec
 * total energy  :  -146.5130974 Eh     change       -0.9111237E-03 Eh
   gradient norm :     0.0153915 Eh/α   predicted    -0.1038653E-02 (  14.00%)
   displ. norm   :     0.6308336 α      lambda       -0.1255883E-02
   maximum displ.:     0.2818609 α      in ANC's #11, #12, #14, ...

........................................................................
.............................. CYCLE   13 ..............................
........................................................................
   1   -148.6278281 -0.148628E+03  0.382E-01    1.04       0.0  T
   2   -148.6279162 -0.881251E-04  0.186E-01    1.04       1.0  T
   3   -148.6266960  0.122015E-02  0.117E-01    1.05       1.0  T
   4   -148.6279583 -0.126222E-02  0.334E-02    1.04       1.0  T
   5   -148.6279787 -0.204017E-04  0.233E-02    1.05       1.0  T
   6   -148.6280147 -0.360938E-04  0.476E-03    1.04       2.4  T
   7   -148.6280163 -0.157093E-05  0.205E-03    1.04       5.6  T
   8   -148.6280165 -0.161759E-06  0.136E-03    1.04       8.4  T
     SCC iter.                  ...        0 min,  0.173 sec
     gradient                   ...        0 min,  0.041 sec
 * total energy  :  -146.5136525 Eh     change       -0.5551555E-03 Eh
   gradient norm :     0.0160715 Eh/α   predicted    -0.8778336E-03 (  58.12%)
   displ. norm   :     0.2711844 α      lambda       -0.8719789E-03
   maximum displ.:     0.0930687 α      in ANC's #12, #11, #2, ...

........................................................................
.............................. CYCLE   14 ..............................
........................................................................
   1   -148.6430148 -0.148643E+03  0.177E-01    1.05       0.0  T
   2   -148.6430443 -0.295354E-04  0.848E-02    1.04       1.0  T
   3   -148.6429689  0.754375E-04  0.342E-02    1.05       1.0  T
   4   -148.6430583 -0.893563E-04  0.124E-02    1.05       1.0  T
   5   -148.6430511  0.711903E-05  0.116E-02    1.05       1.0  T
   6   -148.6430622 -0.110685E-04  0.406E-03    1.05       2.8  T
   7   -148.6430637 -0.144645E-05  0.110E-03    1.05      10.4  T
   8   -148.6430637 -0.599428E-07  0.614E-04    1.05      18.5  T
     SCC iter.                  ...        0 min,  0.194 sec
     gradient                   ...        0 min,  0.037 sec
 * total energy  :  -146.5140648 Eh     change       -0.4122901E-03 Eh
   gradient norm :     0.0124986 Eh/α   predicted    -0.4680576E-03 (  13.53%)
   displ. norm   :     0.3933755 α      lambda       -0.8411331E-03
   maximum displ.:     0.1809511 α      in ANC's #11, #12, #18, ...

........................................................................
.............................. CYCLE   15 ..............................
........................................................................
   1   -148.6385656 -0.148639E+03  0.212E-01    1.04       0.0  T
   2   -148.6385664 -0.865461E-06  0.107E-01    1.04       1.0  T
   3   -148.6375916  0.974864E-03  0.103E-01    1.04       1.0  T
   4   -148.6386205 -0.102898E-02  0.182E-02    1.04       1.0  T
   5   -148.6386227 -0.215410E-05  0.127E-02    1.04       1.0  T
   6   -148.6386297 -0.702520E-05  0.392E-03    1.04       2.9  T
   7   -148.6386311 -0.135361E-05  0.140E-03    1.04       8.1  T
   8   -148.6386311 -0.101002E-07  0.118E-03    1.04       9.6  T
     SCC iter.                  ...        0 min,  0.244 sec
     gradient                   ...        0 min,  0.038 sec
 * total energy  :  -146.5141128 Eh     change       -0.4795953E-04 Eh
   gradient norm :     0.0183319 Eh/α   predicted    -0.4856484E-03 ( 912.62%)
   displ. norm   :     0.1722775 α      lambda       -0.8887420E-03
   maximum displ.:     0.0699224 α      in ANC's #2, #19, #11, ...

........................................................................
.............................. CYCLE   16 ..............................
........................................................................
   1   -148.6450478 -0.148645E+03  0.149E-01    1.04       0.0  T
   2   -148.6450320  0.157833E-04  0.738E-02    1.04       1.0  T
   3   -148.6442836  0.748483E-03  0.906E-02    1.04       1.0  T
   4   -148.6450859 -0.802301E-03  0.154E-02    1.04       1.0  T
   5   -148.6450986 -0.127408E-04  0.896E-03    1.04       1.3  T
   6   -148.6451014 -0.280999E-05  0.269E-03    1.04       4.2  T
   7   -148.6451018 -0.407378E-06  0.118E-03    1.04       9.7  T
     SCC iter.                  ...        0 min,  0.227 sec
     gradient                   ...        0 min,  0.144 sec
 * total energy  :  -146.5144771 Eh     change       -0.3643547E-03 Eh
   gradient norm :     0.0093636 Eh/α   predicted    -0.4575644E-03 (  25.58%)
   displ. norm   :     0.1958647 α      lambda       -0.3909167E-03
   maximum displ.:     0.0767467 α      in ANC's #2, #9, #11, ...

........................................................................
.............................. CYCLE   17 ..............................
........................................................................
   1   -148.6464105 -0.148646E+03  0.127E-01    1.03       0.0  T
   2   -148.6464301 -0.196087E-04  0.611E-02    1.04       1.0  T
   3   -148.6463941  0.359242E-04  0.242E-02    1.04       1.0  T
   4   -148.6464261 -0.319623E-04  0.133E-02    1.04       1.0  T
   5   -148.6464324 -0.625154E-05  0.948E-03    1.04       1.2  T
   6   -148.6464390 -0.659628E-05  0.234E-03    1.04       4.9  T
   7   -148.6464393 -0.326512E-06  0.851E-04    1.04      13.4  T
   8   -148.6464393 -0.117529E-07  0.542E-04    1.04      21.0  T
     SCC iter.                  ...        0 min,  0.114 sec
     gradient                   ...        0 min,  0.027 sec
 * total energy  :  -146.5145629 Eh     change       -0.8580283E-04 Eh
   gradient norm :     0.0093748 Eh/α   predicted    -0.2029606E-03 ( 136.54%)
   displ. norm   :     0.1722066 α      lambda       -0.2511437E-03
   maximum displ.:     0.0636085 α      in ANC's #11, #2, #18, ...

........................................................................
.............................. CYCLE   18 ..............................
........................................................................
   1   -148.6415696 -0.148642E+03  0.104E-01    1.04       0.0  T
   2   -148.6415792 -0.958444E-05  0.507E-02    1.04       1.0  T
   3   -148.6415446  0.345640E-04  0.213E-02    1.04       1.0  T
   4   -148.6415756 -0.309737E-04  0.112E-02    1.04       1.0  T
   5   -148.6415815 -0.585674E-05  0.693E-03    1.04       1.6  T
   6   -148.6415843 -0.282881E-05  0.193E-03    1.04       5.9  T
   7   -148.6415846 -0.250638E-06  0.561E-04    1.04      20.3  T
     SCC iter.                  ...        0 min,  0.446 sec
     gradient                   ...        0 min,  0.038 sec
 * total energy  :  -146.5146707 Eh     change       -0.1077393E-03 Eh
   gradient norm :     0.0059588 Eh/α   predicted    -0.1293009E-03 (  20.01%)
   displ. norm   :     0.1602462 α      lambda       -0.2546372E-03
   maximum displ.:     0.0865712 α      in ANC's #2, #26, #10, ...

........................................................................
.............................. CYCLE   19 ..............................
........................................................................
   1   -148.6480643 -0.148648E+03  0.112E-01    1.03       0.0  T
   2   -148.6480783 -0.139848E-04  0.538E-02    1.03       1.0  T
   3   -148.6480625  0.157639E-04  0.174E-02    1.03       1.0  T
   4   -148.6480787 -0.162047E-04  0.948E-03    1.04       1.2  T
   5   -148.6480779  0.831428E-06  0.874E-03    1.04       1.3  T
   6   -148.6480840 -0.607776E-05  0.168E-03    1.04       6.8  T
   7   -148.6480842 -0.181905E-06  0.682E-04    1.04      16.7  T
   8   -148.6480842 -0.770726E-08  0.462E-04    1.04      24.7  T
     SCC iter.                  ...        0 min,  0.676 sec
     gradient                   ...        0 min,  0.033 sec
 * total energy  :  -146.5147161 Eh     change       -0.4541814E-04 Eh
   gradient norm :     0.0080593 Eh/α   predicted    -0.1305898E-03 ( 187.53%)
   displ. norm   :     0.1112796 α      lambda       -0.1661377E-03
   maximum displ.:     0.0550909 α      in ANC's #2, #10, #8, ...

........................................................................
.............................. CYCLE   20 ..............................
........................................................................
   1   -148.6467681 -0.148647E+03  0.651E-02    1.03       0.0  T
   2   -148.6467727 -0.457635E-05  0.312E-02    1.03       1.0  T
   3   -148.6467689  0.378961E-05  0.883E-03    1.03       1.3  T
   4   -148.6467727 -0.377811E-05  0.534E-03    1.03       2.1  T
   5   -148.6467723  0.435626E-06  0.481E-03    1.03       2.4  T
   6   -148.6467742 -0.199501E-05  0.117E-03    1.03       9.7  T
   7   -148.6467744 -0.106915E-06  0.434E-04    1.03      26.3  T
     SCC iter.                  ...        0 min,  0.326 sec
     gradient                   ...        0 min,  0.215 sec
 * total energy  :  -146.5148276 Eh     change       -0.1115383E-03 Eh
   gradient norm :     0.0037827 Eh/α   predicted    -0.8409915E-04 ( -24.60%)
   displ. norm   :     0.1710256 α      lambda       -0.1299767E-03
   maximum displ.:     0.1057733 α      in ANC's #2, #10, #8, ...
 * RMSD in coord.:     0.8005012 α      energy gain  -0.7293242E-01 Eh

generating ANC from model Hessian ...
Using Lindh-Hessian (1995)
 Shifting diagonal of input Hessian by   4.981143559594334E-003
 Lowest  eigenvalues of input Hessian
   -0.000000   -0.000000   -0.000000    0.000000    0.000000    0.000000
    0.005000    0.005025    0.005051    0.005088    0.005181    0.005343
    0.005456    0.005514    0.005684    0.005968    0.006204    0.006323
 Highest eigenvalues
    2.029411    2.066426    2.068694    2.096670    2.101668    2.107146
 

........................................................................
.............................. CYCLE   21 ..............................
........................................................................
   1   -148.6450216 -0.148645E+03  0.768E-02    1.03       0.0  T
   2   -148.6450272 -0.558063E-05  0.371E-02    1.03       1.0  T
   3   -148.6450239  0.331738E-05  0.987E-03    1.03       1.2  T
   4   -148.6450281 -0.417784E-05  0.544E-03    1.03       2.1  T
   5   -148.6450267  0.141982E-05  0.515E-03    1.03       2.2  T
   6   -148.6450290 -0.237590E-05  0.136E-03    1.03       8.4  T
   7   -148.6450292 -0.148885E-06  0.485E-04    1.03      23.5  T
   8   -148.6450292 -0.322447E-08  0.319E-04    1.03      35.7  T
     SCC iter.                  ...        0 min,  0.199 sec
     gradient                   ...        0 min,  0.031 sec
 * total energy  :  -146.5149017 Eh     change       -0.7404107E-04 Eh
   gradient norm :     0.0043779 Eh/α   predicted     0.0000000E+00 (-100.00%)
   displ. norm   :     0.1009210 α      lambda       -0.8848670E-04
   maximum displ.:     0.0507790 α      in ANC's #2, #1, #3, ...

........................................................................
.............................. CYCLE   22 ..............................
........................................................................
   1   -148.6449542 -0.148645E+03  0.454E-02    1.03       0.0  T
   2   -148.6449559 -0.175675E-05  0.222E-02    1.03       1.0  T
   3   -148.6449534  0.259178E-05  0.657E-03    1.03       1.7  T
   4   -148.6449549 -0.157772E-05  0.469E-03    1.04       2.4  T
   5   -148.6449561 -0.120287E-05  0.233E-03    1.04       4.9  T
   6   -148.6449565 -0.390434E-06  0.568E-04    1.03      20.1  T
     SCC iter.                  ...        0 min,  0.136 sec
     gradient                   ...        0 min,  0.021 sec
 * total energy  :  -146.5149750 Eh     change       -0.7333055E-04 Eh
   gradient norm :     0.0019088 Eh/α   predicted    -0.4469402E-04 ( -39.05%)
   displ. norm   :     0.1343085 α      lambda       -0.5523522E-04
   maximum displ.:     0.0635452 α      in ANC's #2, #1, #3, ...

........................................................................
.............................. CYCLE   23 ..............................
........................................................................
   1   -148.6450375 -0.148645E+03  0.612E-02    1.04       0.0  T
   2   -148.6450403 -0.280089E-05  0.303E-02    1.04       1.0  T
   3   -148.6450326  0.771123E-05  0.104E-02    1.04       1.1  T
   4   -148.6450385 -0.589183E-05  0.645E-03    1.04       1.8  T
   5   -148.6450406 -0.218547E-05  0.350E-03    1.04       3.3  T
   6   -148.6450414 -0.809826E-06  0.677E-04    1.04      16.8  T
   7   -148.6450415 -0.340911E-07  0.215E-04    1.04      53.0  T
     SCC iter.                  ...        0 min,  0.179 sec
     gradient                   ...        0 min,  0.044 sec
 * total energy  :  -146.5150400 Eh     change       -0.6501510E-04 Eh
   gradient norm :     0.0018042 Eh/α   predicted    -0.2783941E-04 ( -57.18%)
   displ. norm   :     0.2972582 α      lambda       -0.9061861E-04
   maximum displ.:     0.1408932 α      in ANC's #2, #1, #3, ...

........................................................................
.............................. CYCLE   24 ..............................
........................................................................
   1   -148.6450082 -0.148645E+03  0.132E-01    1.04       0.0  T
   2   -148.6450211 -0.128910E-04  0.649E-02    1.04       1.0  T
   3   -148.6450093  0.117402E-04  0.160E-02    1.04       1.0  T
   4   -148.6450104 -0.111049E-05  0.137E-02    1.04       1.0  T
   5   -148.6450210 -0.105299E-04  0.721E-03    1.04       1.6  T
   6   -148.6450250 -0.407363E-05  0.955E-04    1.04      11.9  T
   7   -148.6450251 -0.558082E-07  0.440E-04    1.04      25.9  T
   8   -148.6450251 -0.556352E-08  0.276E-04    1.04      41.3  T
     SCC iter.                  ...        0 min,  0.142 sec
     gradient                   ...        0 min,  0.022 sec
 * total energy  :  -146.5151423 Eh     change       -0.1023190E-03 Eh
   gradient norm :     0.0044453 Eh/α   predicted    -0.4710631E-04 ( -53.96%)
   displ. norm   :     0.2940207 α      lambda       -0.1166713E-03
   maximum displ.:     0.1413939 α      in ANC's #2, #1, #3, ...

........................................................................
.............................. CYCLE   25 ..............................
........................................................................
   1   -148.6448465 -0.148645E+03  0.123E-01    1.04       0.0  T
   2   -148.6448576 -0.110210E-04  0.603E-02    1.04       1.0  T
   3   -148.6448582 -0.680113E-06  0.105E-02    1.04       1.1  T
   4   -148.6448470  0.112616E-04  0.120E-02    1.04       1.0  T
   5   -148.6448585 -0.115558E-04  0.440E-03    1.04       2.6  T
   6   -148.6448603 -0.175852E-05  0.610E-04    1.04      18.7  T
   7   -148.6448603 -0.110366E-07  0.406E-04    1.04      28.1  T
     SCC iter.                  ...        0 min,  0.142 sec
     gradient                   ...        0 min,  0.029 sec
 * total energy  :  -146.5152423 Eh     change       -0.9995574E-04 Eh
   gradient norm :     0.0052355 Eh/α   predicted    -0.6339167E-04 ( -36.58%)
   displ. norm   :     0.4483779 α      lambda       -0.1677615E-03
   maximum displ.:     0.2192505 α      in ANC's #2, #1, #3, ...

........................................................................
.............................. CYCLE   26 ..............................
........................................................................
   1   -148.6444814 -0.148644E+03  0.181E-01    1.04       0.0  T
   2   -148.6445053 -0.239224E-04  0.887E-02    1.04       1.0  T
   3   -148.6445096 -0.432054E-05  0.145E-02    1.04       1.0  T
   4   -148.6444969  0.126883E-04  0.126E-02    1.04       1.0  T
   5   -148.6445095 -0.126164E-04  0.409E-03    1.04       2.8  T
   6   -148.6445110 -0.145321E-05  0.102E-03    1.04      11.1  T
   7   -148.6445110 -0.459139E-07  0.669E-04    1.04      17.0  T
     SCC iter.                  ...        0 min,  0.095 sec
     gradient                   ...        0 min,  0.021 sec
 * total energy  :  -146.5153879 Eh     change       -0.1456231E-03 Eh
   gradient norm :     0.0049563 Eh/α   predicted    -0.1007444E-03 ( -30.82%)
   displ. norm   :     0.5252080 α      lambda       -0.1914734E-03
   maximum displ.:     0.2648697 α      in ANC's #2, #1, #3, ...

........................................................................
.............................. CYCLE   27 ..............................
........................................................................
   1   -148.6442946 -0.148644E+03  0.200E-01    1.04       0.0  T
   2   -148.6443242 -0.295947E-04  0.977E-02    1.04       1.0  T
   3   -148.6443271 -0.295406E-05  0.170E-02    1.04       1.0  T
   4   -148.6443051  0.220631E-04  0.172E-02    1.04       1.0  T
   5   -148.6443261 -0.209858E-04  0.736E-03    1.04       1.5  T
   6   -148.6443315 -0.539011E-05  0.125E-03    1.04       9.1  T
   7   -148.6443315 -0.570465E-07  0.770E-04    1.04      14.8  T
   8   -148.6443315 -0.543611E-08  0.477E-04    1.04      23.9  T
     SCC iter.                  ...        0 min,  0.096 sec
     gradient                   ...        0 min,  0.020 sec
 * total energy  :  -146.5155514 Eh     change       -0.1634280E-03 Eh
   gradient norm :     0.0032778 Eh/α   predicted    -0.1221471E-03 ( -25.26%)
   displ. norm   :     0.5226176 α      lambda       -0.1751592E-03
   maximum displ.:     0.2735636 α      in ANC's #2, #1, #3, ...

........................................................................
.............................. CYCLE   28 ..............................
........................................................................
   1   -148.6448076 -0.148645E+03  0.184E-01    1.03       0.0  T
   2   -148.6448325 -0.249678E-04  0.896E-02    1.04       1.0  T
   3   -148.6448277  0.483316E-05  0.182E-02    1.04       1.0  T
   4   -148.6448102  0.174990E-04  0.187E-02    1.04       1.0  T
   5   -148.6448316 -0.213940E-04  0.904E-03    1.04       1.3  T
   6   -148.6448392 -0.756742E-05  0.124E-03    1.04       9.2  T
   7   -148.6448392 -0.579934E-07  0.756E-04    1.04      15.1  T
   8   -148.6448392 -0.502931E-08  0.489E-04    1.04      23.3  T
     SCC iter.                  ...        0 min,  0.097 sec
     gradient                   ...        0 min,  0.024 sec
 * total energy  :  -146.5156980 Eh     change       -0.1466889E-03 Eh
   gradient norm :     0.0017982 Eh/α   predicted    -0.1115055E-03 ( -23.99%)
   displ. norm   :     0.7374885 α      lambda       -0.1432868E-03
   maximum displ.:     0.3974552 α      in ANC's #2, #1, #3, ...

........................................................................
.............................. CYCLE   29 ..............................
........................................................................
   1   -148.6453121 -0.148645E+03  0.241E-01    1.03       0.0  T
   2   -148.6453551 -0.429955E-04  0.117E-01    1.03       1.0  T
   3   -148.6453428  0.122434E-04  0.247E-02    1.03       1.0  T
   4   -148.6453120  0.308538E-04  0.255E-02    1.03       1.0  T
   5   -148.6453543 -0.423772E-04  0.117E-02    1.03       1.0  T
   6   -148.6453667 -0.123148E-04  0.160E-03    1.03       7.1  T
   7   -148.6453667 -0.879354E-07  0.101E-03    1.03      11.3  T
   8   -148.6453668 -0.107500E-07  0.658E-04    1.03      17.3  T
   9   -148.6453668  0.483428E-08  0.512E-04    1.03      22.2  T
     SCC iter.                  ...        0 min,  0.197 sec
     gradient                   ...        0 min,  0.029 sec
 * total energy  :  -146.5158702 Eh     change       -0.1721105E-03 Eh
   gradient norm :     0.0038567 Eh/α   predicted    -0.8896237E-04 ( -48.31%)
   displ. norm   :     0.4025416 α      lambda       -0.1183077E-03
   maximum displ.:     0.2216911 α      in ANC's #2, #1, #3, ...

........................................................................
.............................. CYCLE   30 ..............................
........................................................................
   1   -148.6459337 -0.148646E+03  0.124E-01    1.03       0.0  T
   2   -148.6459452 -0.115355E-04  0.604E-02    1.03       1.0  T
   3   -148.6459447  0.508005E-06  0.115E-02    1.03       1.0  T
   4   -148.6459309  0.138232E-04  0.138E-02    1.03       1.0  T
   5   -148.6459463 -0.154419E-04  0.411E-03    1.03       2.8  T
   6   -148.6459481 -0.176959E-05  0.687E-04    1.03      16.6  T
   7   -148.6459481 -0.110405E-07  0.476E-04    1.03      24.0  T
   8   -148.6459481 -0.211918E-08  0.326E-04    1.03      34.9  T
     SCC iter.                  ...        0 min,  0.163 sec
     gradient                   ...        0 min,  0.037 sec
 * total energy  :  -146.5159824 Eh     change       -0.1122008E-03 Eh
   gradient norm :     0.0042577 Eh/α   predicted    -0.6874073E-04 ( -38.73%)
   displ. norm   :     0.5651443 α      lambda       -0.2057678E-03
   maximum displ.:     0.3124616 α      in ANC's #2, #1, #3, ...

........................................................................
.............................. CYCLE   31 ..............................
........................................................................
   1   -148.6472117 -0.148647E+03  0.174E-01    1.03       0.0  T
   2   -148.6472347 -0.229905E-04  0.847E-02    1.03       1.0  T
   3   -148.6472377 -0.300321E-05  0.147E-02    1.03       1.0  T
   4   -148.6472235  0.141817E-04  0.141E-02    1.03       1.0  T
   5   -148.6472362 -0.127324E-04  0.599E-03    1.03       1.9  T
   6   -148.6472402 -0.392790E-05  0.105E-03    1.03      10.9  T
   7   -148.6472402 -0.422682E-07  0.640E-04    1.03      17.8  T
   8   -148.6472402 -0.633307E-08  0.433E-04    1.03      26.3  T
     SCC iter.                  ...        0 min,  0.171 sec
     gradient                   ...        0 min,  0.025 sec
 * total energy  :  -146.5161767 Eh     change       -0.1943946E-03 Eh
   gradient norm :     0.0041239 Eh/α   predicted    -0.1357474E-03 ( -30.17%)
   displ. norm   :     0.7390312 α      lambda       -0.2939083E-03
   maximum displ.:     0.4076596 α      in ANC's #2, #1, #3, ...

........................................................................
.............................. CYCLE   32 ..............................
........................................................................
   1   -148.6469181 -0.148647E+03  0.235E-01    1.02       0.0  T
   2   -148.6469602 -0.421058E-04  0.114E-01    1.03       1.0  T
   3   -148.6469624 -0.225033E-05  0.209E-02    1.03       1.0  T
   4   -148.6469429  0.195727E-04  0.194E-02    1.03       1.0  T
   5   -148.6469605 -0.175849E-04  0.973E-03    1.03       1.2  T
   6   -148.6469705 -0.100150E-04  0.170E-03    1.03       6.7  T
   7   -148.6469706 -0.153026E-06  0.913E-04    1.03      12.5  T
   8   -148.6469706 -0.210366E-07  0.602E-04    1.03      18.9  T
     SCC iter.                  ...        0 min,  0.192 sec
     gradient                   ...        0 min,  0.032 sec
 * total energy  :  -146.5164510 Eh     change       -0.2742192E-03 Eh
   gradient norm :     0.0036530 Eh/α   predicted    -0.2272162E-03 ( -17.14%)
   displ. norm   :     0.7914562 α      lambda       -0.3349942E-03
   maximum displ.:     0.4341765 α      in ANC's #2, #1, #3, ...

........................................................................
.............................. CYCLE   33 ..............................
........................................................................
   1   -148.6464770 -0.148646E+03  0.263E-01    1.02       0.0  T
   2   -148.6465291 -0.521016E-04  0.128E-01    1.02       1.0  T
   3   -148.6465269  0.223911E-05  0.246E-02    1.02       1.0  T
   4   -148.6465116  0.152539E-04  0.213E-02    1.03       1.0  T
   5   -148.6465285 -0.168568E-04  0.120E-02    1.02       1.0  T
   6   -148.6465423 -0.137702E-04  0.227E-03    1.02       5.0  T
   7   -148.6465426 -0.369179E-06  0.111E-03    1.02      10.2  T
   8   -148.6465427 -0.389784E-07  0.687E-04    1.02      16.6  T
   9   -148.6465427 -0.598504E-09  0.382E-04    1.02      29.9  T
     SCC iter.                  ...        0 min,  0.202 sec
     gradient                   ...        0 min,  0.023 sec
 * total energy  :  -146.5167538 Eh     change       -0.3028418E-03 Eh
   gradient norm :     0.0040711 Eh/α   predicted    -0.2724200E-03 ( -10.05%)
   displ. norm   :     0.7897432 α      lambda       -0.3411479E-03
   maximum displ.:     0.4276396 α      in ANC's #2, #1, #3, ...

........................................................................
.............................. CYCLE   34 ..............................
........................................................................
   1   -148.6465640 -0.148647E+03  0.278E-01    1.02       0.0  T
   2   -148.6466213 -0.573421E-04  0.135E-01    1.02       1.0  T
   3   -148.6466125  0.877626E-05  0.272E-02    1.02       1.0  T
   4   -148.6465878  0.247243E-04  0.255E-02    1.02       1.0  T
   5   -148.6466120 -0.242363E-04  0.153E-02    1.02       1.0  T
   6   -148.6466363 -0.243081E-04  0.207E-03    1.02       5.5  T
   7   -148.6466365 -0.205324E-06  0.120E-03    1.02       9.5  T
   8   -148.6466366 -0.316897E-07  0.797E-04    1.02      14.3  T
     SCC iter.                  ...        0 min,  0.114 sec
     gradient                   ...        0 min,  0.023 sec
 * total energy  :  -146.5170538 Eh     change       -0.2999908E-03 Eh
   gradient norm :     0.0052590 Eh/α   predicted    -0.2769646E-03 (  -7.68%)
   displ. norm   :     0.7507681 α      lambda       -0.3183585E-03
   maximum displ.:     0.4057238 α      in ANC's #2, #1, #3, ...

........................................................................
.............................. CYCLE   35 ..............................
........................................................................
   1   -148.6458706 -0.148646E+03  0.268E-01    1.02       0.0  T
   2   -148.6459223 -0.516801E-04  0.131E-01    1.02       1.0  T
   3   -148.6459001  0.222036E-04  0.286E-02    1.02       1.0  T
   4   -148.6458859  0.141339E-04  0.259E-02    1.02       1.0  T
   5   -148.6459108 -0.248295E-04  0.161E-02    1.02       1.0  T
   6   -148.6459370 -0.261920E-04  0.222E-03    1.02       5.1  T
   7   -148.6459372 -0.265174E-06  0.120E-03    1.02       9.5  T
   8   -148.6459372 -0.651866E-08  0.885E-04    1.02      12.9  T
     SCC iter.                  ...        0 min,  0.113 sec
     gradient                   ...        0 min,  0.021 sec
 * total energy  :  -146.5173308 Eh     change       -0.2770305E-03 Eh
   gradient norm :     0.0057638 Eh/α   predicted    -0.2489023E-03 ( -10.15%)
   displ. norm   :     0.7111154 α      lambda       -0.3002112E-03
   maximum displ.:     0.3853419 α      in ANC's #2, #1, #3, ...

........................................................................
.............................. CYCLE   36 ..............................
........................................................................
   1   -148.6462512 -0.148646E+03  0.257E-01    1.02       0.0  T
   2   -148.6462948 -0.436265E-04  0.125E-01    1.02       1.0  T
   3   -148.6461760  0.118802E-03  0.410E-02    1.02       1.0  T
   4   -148.6462642 -0.882176E-04  0.265E-02    1.02       1.0  T
   5   -148.6462957 -0.314207E-04  0.136E-02    1.02       1.0  T
   6   -148.6463123 -0.166544E-04  0.220E-03    1.02       5.2  T
   7   -148.6463126 -0.240488E-06  0.136E-03    1.02       8.4  T
   8   -148.6463126  0.775228E-08  0.121E-03    1.02       9.5  T
     SCC iter.                  ...        0 min,  0.103 sec
     gradient                   ...        0 min,  0.020 sec
 * total energy  :  -146.5175934 Eh     change       -0.2625970E-03 Eh
   gradient norm :     0.0049449 Eh/α   predicted    -0.2260185E-03 ( -13.93%)
   displ. norm   :     0.7188684 α      lambda       -0.2923589E-03
   maximum displ.:     0.4002244 α      in ANC's #2, #1, #3, ...

........................................................................
.............................. CYCLE   37 ..............................
........................................................................
   1   -148.6450746 -0.148645E+03  0.248E-01    1.02       0.0  T
   2   -148.6451128 -0.381935E-04  0.121E-01    1.02       1.0  T
   3   -148.6449120  0.200810E-03  0.495E-02    1.02       1.0  T
   4   -148.6450992 -0.187264E-03  0.240E-02    1.02       1.0  T
   5   -148.6451178 -0.185109E-04  0.133E-02    1.02       1.0  T
   6   -148.6451336 -0.158220E-04  0.223E-03    1.02       5.1  T
   7   -148.6451339 -0.284815E-06  0.118E-03    1.02       9.7  T
   8   -148.6451339  0.142850E-07  0.926E-04    1.02      12.3  T
     SCC iter.                  ...        0 min,  0.215 sec
     gradient                   ...        0 min,  0.029 sec
 * total energy  :  -146.5178502 Eh     change       -0.2568134E-03 Eh
   gradient norm :     0.0043320 Eh/α   predicted    -0.2217225E-03 ( -13.66%)
   displ. norm   :     0.6867272 α      lambda       -0.3216639E-03
   maximum displ.:     0.3776971 α      in ANC's #2, #1, #6, ...

........................................................................
.............................. CYCLE   38 ..............................
........................................................................
   1   -148.6491837 -0.148649E+03  0.241E-01    1.03       0.0  T
   2   -148.6492051 -0.213402E-04  0.119E-01    1.03       1.0  T
   3   -148.6485957  0.609426E-03  0.801E-02    1.03       1.0  T
   4   -148.6492286 -0.632985E-03  0.206E-02    1.03       1.0  T
   5   -148.6492317 -0.302793E-05  0.127E-02    1.03       1.0  T
   6   -148.6492441 -0.123885E-04  0.278E-03    1.03       4.1  T
   7   -148.6492445 -0.461368E-06  0.166E-03    1.03       6.9  T
   8   -148.6492446 -0.975561E-07  0.121E-03    1.03       9.4  T
     SCC iter.                  ...        0 min,  0.455 sec
     gradient                   ...        0 min,  0.027 sec
 * total energy  :  -146.5181038 Eh     change       -0.2535407E-03 Eh
   gradient norm :     0.0054329 Eh/α   predicted    -0.2366809E-03 (  -6.65%)
   displ. norm   :     0.7550601 α      lambda       -0.3129546E-03
   maximum displ.:     0.4312527 α      in ANC's #2, #1, #3, ...

........................................................................
.............................. CYCLE   39 ..............................
........................................................................
   1   -148.6442845 -0.148644E+03  0.255E-01    1.02       0.0  T
   2   -148.6443163 -0.317786E-04  0.126E-01    1.02       1.0  T
   3   -148.6438002  0.516026E-03  0.749E-02    1.02       1.0  T
   4   -148.6443315 -0.531233E-03  0.223E-02    1.02       1.0  T
   5   -148.6443398 -0.835118E-05  0.131E-02    1.02       1.0  T
   6   -148.6443529 -0.131110E-04  0.246E-03    1.02       4.6  T
   7   -148.6443533 -0.353008E-06  0.138E-03    1.02       8.2  T
   8   -148.6443533 -0.312504E-07  0.113E-03    1.02      10.1  T
     SCC iter.                  ...        0 min,  0.139 sec
     gradient                   ...        0 min,  0.039 sec
 * total energy  :  -146.5183565 Eh     change       -0.2526807E-03 Eh
   gradient norm :     0.0073846 Eh/α   predicted    -0.2456899E-03 (  -2.77%)
   displ. norm   :     0.5926942 α      lambda       -0.3140871E-03
   maximum displ.:     0.3304808 α      in ANC's #2, #4, #1, ...

........................................................................
.............................. CYCLE   40 ..............................
........................................................................
   1   -148.6458814 -0.148646E+03  0.209E-01    1.02       0.0  T
   2   -148.6459033 -0.219316E-04  0.103E-01    1.02       1.0  T
   3   -148.6455524  0.350950E-03  0.615E-02    1.02       1.0  T
   4   -148.6459151 -0.362752E-03  0.178E-02    1.02       1.0  T
   5   -148.6459204 -0.531275E-05  0.945E-03    1.02       1.2  T
   6   -148.6459279 -0.742775E-05  0.190E-03    1.02       6.0  T
   7   -148.6459281 -0.212584E-06  0.961E-04    1.02      11.9  T
   8   -148.6459281 -0.269442E-07  0.581E-04    1.02      19.6  T
     SCC iter.                  ...        0 min,  0.186 sec
     gradient                   ...        0 min,  0.047 sec
 * total energy  :  -146.5186314 Eh     change       -0.2749456E-03 Eh
   gradient norm :     0.0089935 Eh/α   predicted    -0.2122153E-03 ( -22.82%)
   displ. norm   :     0.6335752 α      lambda       -0.4504005E-03
   maximum displ.:     0.3338074 α      in ANC's #2, #4, #1, ...

........................................................................
.............................. CYCLE   41 ..............................
........................................................................
   1   -148.6483178 -0.148648E+03  0.243E-01    1.02       0.0  T
   2   -148.6483481 -0.302868E-04  0.119E-01    1.02       1.0  T
   3   -148.6478110  0.537030E-03  0.756E-02    1.02       1.0  T
   4   -148.6483709 -0.559811E-03  0.199E-02    1.02       1.0  T
   5   -148.6483758 -0.489215E-05  0.116E-02    1.02       1.0  T
   6   -148.6483848 -0.906471E-05  0.287E-03    1.02       4.0  T
   7   -148.6483853 -0.510714E-06  0.165E-03    1.02       6.9  T
   8   -148.6483855 -0.171301E-06  0.994E-04    1.02      11.5  T
     SCC iter.                  ...        0 min,  0.328 sec
     gradient                   ...        0 min,  0.019 sec
 * total energy  :  -146.5190049 Eh     change       -0.3734447E-03 Eh
   gradient norm :     0.0073313 Eh/α   predicted    -0.3156000E-03 ( -15.49%)
   displ. norm   :     0.6709579 α      lambda       -0.4501321E-03
   maximum displ.:     0.3460146 α      in ANC's #2, #4, #8, ...

........................................................................
.............................. CYCLE   42 ..............................
........................................................................
   1   -148.6502601 -0.148650E+03  0.268E-01    1.02       0.0  T
   2   -148.6503193 -0.591939E-04  0.130E-01    1.02       1.0  T
   3   -148.6502660  0.533232E-04  0.335E-02    1.02       1.0  T
   4   -148.6502750 -0.897292E-05  0.284E-02    1.02       1.0  T
   5   -148.6503230 -0.480059E-04  0.123E-02    1.02       1.0  T
   6   -148.6503368 -0.137611E-04  0.230E-03    1.02       5.0  T
   7   -148.6503371 -0.312490E-06  0.113E-03    1.02      10.1  T
   8   -148.6503371 -0.269035E-07  0.746E-04    1.02      15.3  T
     SCC iter.                  ...        0 min,  0.210 sec
     gradient                   ...        0 min,  0.020 sec
 * total energy  :  -146.5193584 Eh     change       -0.3535784E-03 Eh
   gradient norm :     0.0072898 Eh/α   predicted    -0.3263931E-03 (  -7.69%)
   displ. norm   :     0.7504085 α      lambda       -0.4403988E-03
   maximum displ.:     0.4084308 α      in ANC's #2, #4, #6, ...
 * RMSD in coord.:     1.3073344 α      energy gain  -0.4530790E-02 Eh

generating ANC from model Hessian ...
Using Lindh-Hessian (1995)
 Shifting diagonal of input Hessian by   4.976755969068168E-003
 Lowest  eigenvalues of input Hessian
   -0.000000   -0.000000   -0.000000   -0.000000   -0.000000    0.000000
    0.005000    0.005025    0.005057    0.005089    0.005200    0.005296
    0.005434    0.005490    0.005729    0.006005    0.006190    0.006315
 Highest eigenvalues
    2.033521    2.063349    2.071517    2.093222    2.099758    2.105427
 

........................................................................
.............................. CYCLE   43 ..............................
........................................................................
   1   -148.6471826 -0.148647E+03  0.273E-01    1.01       0.0  T
   2   -148.6472213 -0.386878E-04  0.134E-01    1.01       1.0  T
   3   -148.6465391  0.682243E-03  0.859E-02    1.01       1.0  T
   4   -148.6472499 -0.710830E-03  0.228E-02    1.01       1.0  T
   5   -148.6472527 -0.282845E-05  0.147E-02    1.01       1.0  T
   6   -148.6472695 -0.167934E-04  0.299E-03    1.01       3.8  T
   7   -148.6472701 -0.513440E-06  0.167E-03    1.01       6.8  T
   8   -148.6472701 -0.854758E-07  0.127E-03    1.01       9.0  T
   9   -148.6472702 -0.886681E-07  0.643E-04    1.01      17.7  T
  10   -148.6472702 -0.117111E-07  0.289E-04    1.01      39.5  T
     SCC iter.                  ...        0 min,  0.431 sec
     gradient                   ...        0 min,  0.028 sec
 * total energy  :  -146.5196835 Eh     change       -0.3250354E-03 Eh
   gradient norm :     0.0084532 Eh/α   predicted     0.0000000E+00 (-100.00%)
   displ. norm   :     0.1351788 α      lambda       -0.2413492E-03
   maximum displ.:     0.0733742 α      in ANC's #4, #2, #7, ...

........................................................................
.............................. CYCLE   44 ..............................
........................................................................
   1   -148.6491395 -0.148649E+03  0.734E-02    1.01       0.0  T
   2   -148.6491440 -0.454535E-05  0.359E-02    1.01       1.0  T
   3   -148.6491223  0.216721E-04  0.168E-02    1.01       1.0  T
   4   -148.6491428 -0.204414E-04  0.758E-03    1.01       1.5  T
   5   -148.6491451 -0.233137E-05  0.443E-03    1.01       2.6  T
   6   -148.6491464 -0.132488E-05  0.126E-03    1.01       9.0  T
   7   -148.6491465 -0.972888E-07  0.614E-04    1.01      18.6  T
     SCC iter.                  ...        0 min,  0.350 sec
     gradient                   ...        0 min,  0.020 sec
 * total energy  :  -146.5198721 Eh     change       -0.1886619E-03 Eh
   gradient norm :     0.0035357 Eh/α   predicted    -0.1228802E-03 ( -34.87%)
   displ. norm   :     0.1335674 α      lambda       -0.1369449E-03
   maximum displ.:     0.0645228 α      in ANC's #4, #7, #2, ...

........................................................................
.............................. CYCLE   45 ..............................
........................................................................
   1   -148.6501924 -0.148650E+03  0.714E-02    1.01       0.0  T
   2   -148.6501962 -0.372214E-05  0.355E-02    1.01       1.0  T
   3   -148.6501734  0.227595E-04  0.168E-02    1.01       1.0  T
   4   -148.6501952 -0.218309E-04  0.723E-03    1.01       1.6  T
   5   -148.6501972 -0.199340E-05  0.401E-03    1.01       2.8  T
   6   -148.6501984 -0.113852E-05  0.919E-04    1.01      12.4  T
   7   -148.6501984 -0.417946E-07  0.550E-04    1.01      20.7  T
   8   -148.6501984 -0.129079E-07  0.382E-04    1.01      29.8  T
     SCC iter.                  ...        0 min,  0.878 sec
     gradient                   ...        0 min,  0.038 sec
 * total energy  :  -146.5199797 Eh     change       -0.1076137E-03 Eh
   gradient norm :     0.0019272 Eh/α   predicted    -0.6969412E-04 ( -35.24%)
   displ. norm   :     0.3495489 α      lambda       -0.1530965E-03
   maximum displ.:     0.1763965 α      in ANC's #4, #7, #2, ...

........................................................................
.............................. CYCLE   46 ..............................
........................................................................
   1   -148.6505902 -0.148651E+03  0.173E-01    1.02       0.0  T
   2   -148.6506140 -0.238677E-04  0.856E-02    1.02       1.0  T
   3   -148.6505675  0.465016E-04  0.273E-02    1.02       1.0  T
   4   -148.6505997 -0.321940E-04  0.182E-02    1.01       1.0  T
   5   -148.6506162 -0.164775E-04  0.868E-03    1.02       1.3  T
   6   -148.6506225 -0.631221E-05  0.152E-03    1.02       7.5  T
   7   -148.6506226 -0.646393E-07  0.112E-03    1.02      10.2  T
   8   -148.6506226 -0.555193E-07  0.746E-04    1.02      15.3  T
   9   -148.6506227 -0.268233E-07  0.368E-04    1.02      31.0  T
     SCC iter.                  ...        0 min,  0.174 sec
     gradient                   ...        0 min,  0.023 sec
 * total energy  :  -146.5201244 Eh     change       -0.1446907E-03 Eh
   gradient norm :     0.0058372 Eh/α   predicted    -0.8070912E-04 ( -44.22%)
   displ. norm   :     0.1783512 α      lambda       -0.1021678E-03
   maximum displ.:     0.0972252 α      in ANC's #4, #2, #7, ...

........................................................................
.............................. CYCLE   47 ..............................
........................................................................
   1   -148.6505771 -0.148651E+03  0.765E-02    1.02       0.0  T
   2   -148.6505816 -0.449244E-05  0.376E-02    1.02       1.0  T
   3   -148.6505723  0.926240E-05  0.118E-02    1.02       1.0  T
   4   -148.6505795 -0.715170E-05  0.751E-03    1.02       1.5  T
   5   -148.6505823 -0.284853E-05  0.319E-03    1.02       3.6  T
   6   -148.6505832 -0.886706E-06  0.529E-04    1.02      21.5  T
   7   -148.6505832 -0.140627E-07  0.282E-04    1.02      40.4  T
     SCC iter.                  ...        0 min,  0.139 sec
     gradient                   ...        0 min,  0.040 sec
 * total energy  :  -146.5202181 Eh     change       -0.9368696E-04 Eh
   gradient norm :     0.0054234 Eh/α   predicted    -0.5270892E-04 ( -43.74%)
   displ. norm   :     0.4151395 α      lambda       -0.2640523E-03
   maximum displ.:     0.2232181 α      in ANC's #4, #2, #7, ...

........................................................................
.............................. CYCLE   48 ..............................
........................................................................
   1   -148.6498457 -0.148650E+03  0.167E-01    1.02       0.0  T
   2   -148.6498625 -0.168245E-04  0.826E-02    1.02       1.0  T
   3   -148.6496846  0.177898E-03  0.448E-02    1.02       1.0  T
   4   -148.6498689 -0.184222E-03  0.140E-02    1.02       1.0  T
   5   -148.6498708 -0.196557E-05  0.844E-03    1.02       1.4  T
   6   -148.6498766 -0.574094E-05  0.159E-03    1.02       7.1  T
   7   -148.6498767 -0.165226E-06  0.791E-04    1.02      14.4  T
   8   -148.6498767 -0.230034E-08  0.689E-04    1.02      16.5  T
     SCC iter.                  ...        0 min,  0.131 sec
     gradient                   ...        0 min,  0.037 sec
 * total energy  :  -146.5204459 Eh     change       -0.2277604E-03 Eh
   gradient norm :     0.0039993 Eh/α   predicted    -0.1547846E-03 ( -32.04%)
   displ. norm   :     0.5686611 α      lambda       -0.3123757E-03
   maximum displ.:     0.3119122 α      in ANC's #4, #2, #7, ...

........................................................................
.............................. CYCLE   49 ..............................
........................................................................
   1   -148.6481874 -0.148648E+03  0.220E-01    1.01       0.0  T
   2   -148.6482140 -0.265968E-04  0.109E-01    1.02       1.0  T
   3   -148.6478200  0.393973E-03  0.660E-02    1.01       1.0  T
   4   -148.6482312 -0.411151E-03  0.181E-02    1.02       1.0  T
   5   -148.6482322 -0.101578E-05  0.116E-02    1.02       1.0  T
   6   -148.6482430 -0.107679E-04  0.235E-03    1.02       4.8  T
   7   -148.6482433 -0.340598E-06  0.136E-03    1.02       8.4  T
   8   -148.6482434 -0.937127E-07  0.861E-04    1.02      13.2  T
   9   -148.6482435 -0.411479E-07  0.387E-04    1.02      29.5  T
     SCC iter.                  ...        0 min,  0.315 sec
     gradient                   ...        0 min,  0.022 sec
 * total energy  :  -146.5207047 Eh     change       -0.2588710E-03 Eh
   gradient norm :     0.0062167 Eh/α   predicted    -0.2066971E-03 ( -20.15%)
   displ. norm   :     0.5335002 α      lambda       -0.2818033E-03
   maximum displ.:     0.3022265 α      in ANC's #4, #2, #7, ...

........................................................................
.............................. CYCLE   50 ..............................
........................................................................
   1   -148.6476869 -0.148648E+03  0.189E-01    1.01       0.0  T
   2   -148.6477041 -0.172066E-04  0.935E-02    1.01       1.0  T
   3   -148.6473461  0.358068E-03  0.625E-02    1.01       1.0  T
   4   -148.6477212 -0.375099E-03  0.155E-02    1.01       1.0  T
   5   -148.6477226 -0.148897E-05  0.903E-03    1.01       1.3  T
   6   -148.6477287 -0.609315E-05  0.204E-03    1.01       5.6  T
   7   -148.6477290 -0.216699E-06  0.135E-03    1.01       8.5  T
   8   -148.6477291 -0.111361E-06  0.747E-04    1.01      15.3  T
     SCC iter.                  ...        0 min,  0.113 sec
     gradient                   ...        0 min,  0.021 sec
 * total energy  :  -146.5209521 Eh     change       -0.2473401E-03 Eh
   gradient norm :     0.0078278 Eh/α   predicted    -0.1810057E-03 ( -26.82%)
   displ. norm   :     0.5560472 α      lambda       -0.3546582E-03
   maximum displ.:     0.3251503 α      in ANC's #4, #2, #7, ...

........................................................................
.............................. CYCLE   51 ..............................
........................................................................
   1   -148.6491156 -0.148649E+03  0.179E-01    1.01       0.0  T
   2   -148.6491320 -0.163544E-04  0.888E-02    1.01       1.0  T
   3   -148.6488302  0.301774E-03  0.576E-02    1.01       1.0  T
   4   -148.6491448 -0.314651E-03  0.153E-02    1.01       1.0  T
   5   -148.6491487 -0.390059E-05  0.755E-03    1.01       1.5  T
   6   -148.6491526 -0.388165E-05  0.192E-03    1.01       5.9  T
   7   -148.6491527 -0.571330E-07  0.162E-03    1.01       7.0  T
   8   -148.6491529 -0.204272E-06  0.694E-04    1.01      16.4  T
     SCC iter.                  ...        0 min,  0.119 sec
     gradient                   ...        0 min,  0.024 sec
 * total energy  :  -146.5212638 Eh     change       -0.3116712E-03 Eh
   gradient norm :     0.0072302 Eh/α   predicted    -0.2321576E-03 ( -25.51%)
   displ. norm   :     0.6614266 α      lambda       -0.4019639E-03
   maximum displ.:     0.3926136 α      in ANC's #4, #2, #7, ...

........................................................................
.............................. CYCLE   52 ..............................
........................................................................
   1   -148.6492140 -0.148649E+03  0.207E-01    1.00       0.0  T
   2   -148.6492428 -0.288049E-04  0.102E-01    1.00       1.0  T
   3   -148.6490053  0.237505E-03  0.526E-02    1.00       1.0  T
   4   -148.6492470 -0.241699E-03  0.188E-02    1.00       1.0  T
   5   -148.6492575 -0.105356E-04  0.824E-03    1.00       1.4  T
   6   -148.6492625 -0.501807E-05  0.185E-03    1.00       6.2  T
   7   -148.6492626 -0.109612E-06  0.123E-03    1.00       9.3  T
   8   -148.6492627 -0.393889E-07  0.913E-04    1.00      12.5  T
     SCC iter.                  ...        0 min,  0.111 sec
     gradient                   ...        0 min,  0.024 sec
 * total energy  :  -146.5216215 Eh     change       -0.3577232E-03 Eh
   gradient norm :     0.0060922 Eh/α   predicted    -0.2889089E-03 ( -19.24%)
   displ. norm   :     0.6974430 α      lambda       -0.4047019E-03
   maximum displ.:     0.4208983 α      in ANC's #4, #2, #7, ...

........................................................................
.............................. CYCLE   53 ..............................
........................................................................
   1   -148.6492687 -0.148649E+03  0.215E-01    1.00       0.0  T
   2   -148.6493043 -0.355864E-04  0.106E-01    1.00       1.0  T
   3   -148.6491763  0.128003E-03  0.413E-02    1.00       1.0  T
   4   -148.6492934 -0.117066E-03  0.214E-02    1.00       1.0  T
   5   -148.6493143 -0.209064E-04  0.838E-03    1.00       1.4  T
   6   -148.6493198 -0.547774E-05  0.171E-03    1.00       6.7  T
   7   -148.6493199 -0.108262E-06  0.103E-03    1.00      11.0  T
   8   -148.6493199  0.236787E-08  0.822E-04    1.00      13.9  T
     SCC iter.                  ...        0 min,  0.109 sec
     gradient                   ...        0 min,  0.029 sec
 * total energy  :  -146.5219853 Eh     change       -0.3638265E-03 Eh
   gradient norm :     0.0055371 Eh/α   predicted    -0.3007816E-03 ( -17.33%)
   displ. norm   :     0.7083694 α      lambda       -0.3977493E-03
   maximum displ.:     0.4338317 α      in ANC's #4, #2, #7, ...

........................................................................
.............................. CYCLE   54 ..............................
........................................................................
   1   -148.6493246 -0.148649E+03  0.222E-01    1.00       0.0  T
   2   -148.6493634 -0.388112E-04  0.108E-01    1.00       1.0  T
   3   -148.6492680  0.953971E-04  0.374E-02    1.00       1.0  T
   4   -148.6493455 -0.774905E-04  0.228E-02    1.00       1.0  T
   5   -148.6493722 -0.266649E-04  0.862E-03    1.00       1.3  T
   6   -148.6493780 -0.579185E-05  0.164E-03    1.00       6.9  T
   7   -148.6493781 -0.818563E-07  0.109E-03    1.00      10.4  T
   8   -148.6493781  0.744373E-08  0.914E-04    1.00      12.5  T
     SCC iter.                  ...        0 min,  0.110 sec
     gradient                   ...        0 min,  0.028 sec
 * total energy  :  -146.5223443 Eh     change       -0.3589969E-03 Eh
   gradient norm :     0.0053511 Eh/α   predicted    -0.2986746E-03 ( -16.80%)
   displ. norm   :     0.7111624 α      lambda       -0.3908929E-03
   maximum displ.:     0.4419035 α      in ANC's #4, #2, #7, ...

........................................................................
.............................. CYCLE   55 ..............................
........................................................................
   1   -148.6499827 -0.148650E+03  0.221E-01    1.00       0.0  T
   2   -148.6500225 -0.398178E-04  0.108E-01    1.00       1.0  T
   3   -148.6500107  0.118731E-04  0.233E-02    0.99       1.0  T
   4   -148.6499786  0.320221E-04  0.254E-02    1.00       1.0  T
   5   -148.6500237 -0.451077E-04  0.102E-02    0.99       1.1  T
   6   -148.6500330 -0.925301E-05  0.171E-03    1.00       6.7  T
   7   -148.6500331 -0.128605E-06  0.106E-03    0.99      10.8  T
   8   -148.6500331  0.186455E-07  0.900E-04    0.99      12.7  T
     SCC iter.                  ...        0 min,  0.178 sec
     gradient                   ...        0 min,  0.039 sec
 * total energy  :  -146.5226972 Eh     change       -0.3528861E-03 Eh
   gradient norm :     0.0050876 Eh/α   predicted    -0.2943005E-03 ( -16.60%)
   displ. norm   :     0.7185520 α      lambda       -0.3832488E-03
   maximum displ.:     0.4514482 α      in ANC's #4, #2, #7, ...

........................................................................
.............................. CYCLE   56 ..............................
........................................................................
   1   -148.6503448 -0.148650E+03  0.227E-01    0.99       0.0  T
   2   -148.6503835 -0.386945E-04  0.111E-01    0.99       1.0  T
   3   -148.6502914  0.920929E-04  0.366E-02    0.99       1.0  T
   4   -148.6503627 -0.712872E-04  0.235E-02    0.99       1.0  T
   5   -148.6503918 -0.291306E-04  0.855E-03    0.99       1.3  T
   6   -148.6503977 -0.582335E-05  0.190E-03    0.99       6.0  T
   7   -148.6503978 -0.155740E-06  0.128E-03    0.99       8.9  T
   8   -148.6503979 -0.405515E-07  0.994E-04    0.99      11.5  T
     SCC iter.                  ...        0 min,  0.172 sec
     gradient                   ...        0 min,  0.037 sec
 * total energy  :  -146.5230423 Eh     change       -0.3451370E-03 Eh
   gradient norm :     0.0054958 Eh/α   predicted    -0.2905647E-03 ( -15.81%)
   displ. norm   :     0.6906835 α      lambda       -0.3721222E-03
   maximum displ.:     0.4394484 α      in ANC's #4, #2, #7, ...

........................................................................
.............................. CYCLE   57 ..............................
........................................................................
   1   -148.6513774 -0.148651E+03  0.211E-01    0.99       0.0  T
   2   -148.6514117 -0.342143E-04  0.103E-01    0.99       1.0  T
   3   -148.6514001  0.115039E-04  0.224E-02    0.99       1.0  T
   4   -148.6513688  0.313800E-04  0.247E-02    1.00       1.0  T
   5   -148.6514115 -0.427237E-04  0.958E-03    0.99       1.2  T
   6   -148.6514207 -0.915957E-05  0.145E-03    0.99       7.9  T
   7   -148.6514207 -0.963182E-07  0.835E-04    0.99      13.6  T
   8   -148.6514208 -0.564313E-08  0.507E-04    0.99      22.5  T
     SCC iter.                  ...        0 min,  0.164 sec
     gradient                   ...        0 min,  0.021 sec
 * total energy  :  -146.5233857 Eh     change       -0.3433926E-03 Eh
   gradient norm :     0.0052473 Eh/α   predicted    -0.2748215E-03 ( -19.97%)
   displ. norm   :     0.7063566 α      lambda       -0.3879678E-03
   maximum displ.:     0.4524895 α      in ANC's #4, #2, #7, ...

........................................................................
.............................. CYCLE   58 ..............................
........................................................................
   1   -148.6516824 -0.148652E+03  0.213E-01    0.99       0.0  T
   2   -148.6517152 -0.328669E-04  0.104E-01    0.99       1.0  T
   3   -148.6516650  0.502038E-04  0.298E-02    0.99       1.0  T
   4   -148.6516846 -0.195674E-04  0.237E-02    0.99       1.0  T
   5   -148.6517194 -0.347788E-04  0.861E-03    0.99       1.3  T
   6   -148.6517259 -0.648274E-05  0.148E-03    0.99       7.7  T
   7   -148.6517260 -0.876869E-07  0.994E-04    0.99      11.5  T
   8   -148.6517260 -0.189419E-07  0.764E-04    0.99      14.9  T
     SCC iter.                  ...        0 min,  0.386 sec
     gradient                   ...        0 min,  0.033 sec
[...]
         :: -> dispersion             -0.140391677479 Eh    ::
         :: repulsion energy           2.130442457935 Eh    ::
         :: add. restraining           0.000000000000 Eh    ::
         :::::::::::::::::::::::::::::::::::::::::::::::::::::

           -------------------------------------------------
          |                Property Printout                |
           -------------------------------------------------

    * Orbital Energies and Occupations

         #    Occupation            Energy/Eh            Energy/eV
      -------------------------------------------------------------
         1        2.0000           -0.7404978             -20.1500
       ...           ...                  ...                  ...
       125        2.0000           -0.4047889             -11.0149
       126        2.0000           -0.4036522             -10.9839
       127        2.0000           -0.4027373             -10.9590
       128        2.0000           -0.3914759             -10.6526
       129        2.0000           -0.3911501             -10.6437
       130        2.0000           -0.3887218             -10.5777
       131        2.0000           -0.3865144             -10.5176
       132        2.0000           -0.3793714             -10.3232
       133        2.0000           -0.3782716             -10.2933
       134        2.0000           -0.3654544              -9.9445
       135        2.0000           -0.3556738              -9.6784
       136        2.0000           -0.3421922              -9.3115
       137        2.0000           -0.3410717              -9.2810 (HOMO)
       138                         -0.3061621              -8.3311 (LUMO)
       139                         -0.3053743              -8.3097
       140                         -0.2831093              -7.7038
       141                         -0.2813553              -7.6561
       142                         -0.2648980              -7.2082
       143                         -0.2623209              -7.1381
       144                         -0.2511382              -6.8338
       145                         -0.2424056              -6.5962
       146                         -0.2391576              -6.5078
       147                         -0.2336132              -6.3569
       148                         -0.2319661              -6.3121
       ...                                ...                  ...
       313                          0.7793455              21.2071
      -------------------------------------------------------------
                  HL-Gap            0.0349095 Eh            0.9499 eV
             Fermi-level           -0.3236616 Eh           -8.8073 eV

     #   Z        covCN         q      C6AA      α(0)
     1   6 C      2.878    -0.103    30.584     9.066
     2   6 C      2.969     0.052    26.823     8.495
     3   6 C      3.047    -0.041    28.982     8.830
     4   6 C      3.049    -0.034    28.805     8.802
     5   6 C      3.019     0.028    27.347     8.578
     6  16 S      2.290    -0.084   144.544    20.235
     7   6 C      3.021     0.027    27.381     8.583
     8   6 C      3.053    -0.039    28.913     8.818
     9   6 C      3.063    -0.041    28.958     8.824
    10   6 C      2.977     0.039    27.118     8.542
    11  16 S      2.404    -0.069   143.917    20.191
    12   6 C      2.948    -0.054    29.344     8.885
    13   6 C      2.981     0.017    27.625     8.622
    14  16 S      2.434    -0.009   141.426    20.015
    15   6 C      2.933    -0.028    28.711     8.788
    16   6 C      3.248    -0.009    27.204     8.446
    17   6 C      3.204     0.018    27.025     8.468
    18  16 S      2.162    -0.081   144.422    20.226
    19   6 C      3.198     0.020    27.020     8.472
    20   6 C      3.254    -0.007    27.103     8.421
    21   6 C      2.931    -0.028    28.705     8.787
    22  16 S      2.364    -0.012   141.563    20.025
    23   6 C      3.015     0.007    27.848     8.656
    24   6 C      3.015     0.007    27.838     8.655
    25  16 S      2.370    -0.015   141.668    20.033
    26   6 C      2.930    -0.028    28.700     8.786
    27   6 C      3.254    -0.007    27.087     8.418
    28   6 C      3.196     0.021    27.023     8.475
    29  16 S      2.172    -0.078   144.288    20.217
    30   6 C      3.194     0.020    27.042     8.479
    31   6 C      3.253    -0.008    27.126     8.426
    32   6 C      2.931    -0.028    28.699     8.786
    33  16 S      2.380    -0.003   141.184    19.998
    34   6 C      3.013     0.007    27.851     8.657
    35   6 C      3.017     0.007    27.832     8.654
    36  16 S      2.356    -0.012   141.544    20.024
    37   6 C      2.932    -0.028    28.704     8.786
    38   6 C      3.252    -0.008    27.147     8.431
    39   6 C      3.202     0.019    27.026     8.470
    40  16 S      2.353    -0.064   143.694    20.175
    41   6 C      3.180     0.021    27.125     8.502
    42   6 C      3.271    -0.007    26.867     8.358
    43   6 C      2.925    -0.026    28.640     8.776
    44  16 S      2.367    -0.031   142.356    20.081
    45   6 C      2.977     0.018    27.591     8.616
    46   6 C      2.974    -0.055    29.366     8.889
    47   6 C      2.973     0.039    27.116     8.542
    48   6 C      3.070    -0.041    28.945     8.822
    49   6 C      3.053    -0.038    28.901     8.817
    50   6 C      3.023     0.027    27.371     8.582
    51  16 S      2.479    -0.067   143.849    20.186
    52   6 C      3.022     0.029    27.333     8.576
    53   6 C      3.048    -0.034    28.801     8.802
    54   6 C      3.046    -0.041    28.983     8.830
    55   6 C      2.969     0.053    26.815     8.494
    56  16 S      2.294    -0.084   144.574    20.237
    57   6 C      2.878    -0.103    30.594     9.068
    58   1 H      0.926     0.051     2.313     2.378
    59   1 H      0.926     0.052     2.291     2.367
    60   1 H      0.926     0.044     2.392     2.419
    61   1 H      0.926     0.041     2.437     2.441
    62   1 H      0.926     0.041     2.437     2.441
    63   1 H      0.926     0.043     2.412     2.428
    64   1 H      0.925     0.054     2.265     2.354
    65   1 H      0.926     0.053     2.287     2.365
    66   1 H      0.927     0.054     2.270     2.356
    67   1 H      0.927     0.054     2.272     2.357
    68   1 H      0.927     0.055     2.260     2.351
    69   1 H      0.927     0.054     2.276     2.359
    70   1 H      0.926     0.051     2.305     2.374
    71   1 H      0.925     0.052     2.291     2.367
    72   1 H      0.926     0.043     2.411     2.428
    73   1 H      0.926     0.042     2.426     2.436
    74   1 H      0.926     0.041     2.434     2.440
    75   1 H      0.926     0.045     2.389     2.417
    76   1 H      0.926     0.050     2.315     2.379
    77   1 H      0.926     0.051     2.306     2.375

 Mol. C6AA /au·bohr⁶  :     175217.875136
 Mol. C8AA /au·bohr⁸  :    5977588.935656
 Mol. α(0) /au        :        690.255867


Wiberg/Mayer (AO) data.
largest (>0.10) Wiberg bond orders for each atom
          total WBO             WBO to atom ...
     1  C   3.868        C    2 1.721    H   59 0.976    H   58 0.970
     2  C   3.961        C    1 1.721    C    3 1.152    S    6 1.039
     3  C   3.915        C    4 1.660    C    2 1.152    H   60 0.963
     4  C   3.986        C    3 1.660    C    5 1.202    H   61 0.962
     5  C   3.915        C    7 1.434    C    4 1.202    S    6 1.087
     6  S   2.407        C    5 1.087    C    2 1.039
     7  C   3.957        C    5 1.434    C    8 1.221    S   11 1.075
     8  C   3.949        C    9 1.614    C    7 1.221    H   62 0.962
     9  C   3.939        C    8 1.614    C   10 1.207    H   63 0.964
    10  C   3.956        C   12 1.501    C    9 1.207    S   11 1.077
    11  S   2.483        C   10 1.077    C    7 1.075
    12  C   3.908        C   10 1.501    C   13 1.254    H   64 0.948
    13  C   3.946        C   17 1.403    C   12 1.254    S   14 1.097
    14  S   2.608        C   15 1.196    C   13 1.097
    15  C   3.893        C   16 1.505    S   14 1.196    H   65 0.968
    16  C   3.981        C   15 1.505    C   17 1.210    C   20 1.099
    17  C   3.886        C   13 1.403    C   16 1.210    S   18 1.065
    18  S   2.453        C   19 1.066    C   17 1.065
    19  C   3.948        C   23 1.455    C   20 1.189    S   18 1.066
    20  C   3.982        C   21 1.527    C   19 1.189    C   16 1.099
    21  C   3.928        C   20 1.527    S   22 1.191    H   66 0.967
    22  S   2.614        C   21 1.191    C   23 1.106
    23  C   3.942        C   19 1.455    C   24 1.178    S   22 1.106
    24  C   3.943        C   28 1.456    C   23 1.178    S   25 1.104
    25  S   2.612        C   26 1.191    C   24 1.104
    26  C   3.928        C   27 1.527    S   25 1.191    H   67 0.967
    27  C   3.982        C   26 1.527    C   28 1.189    C   31 1.100
    28  C   3.947        C   24 1.456    C   27 1.189    S   29 1.063
    29  S   2.476        C   28 1.063    C   30 1.061
    30  C   3.946        C   34 1.456    C   31 1.190    S   29 1.061
    31  C   3.982        C   32 1.524    C   30 1.190    C   27 1.100
    32  C   3.928        C   31 1.524    S   33 1.196    H   68 0.967
    33  S   2.623        C   32 1.196    C   34 1.106
    34  C   3.944        C   30 1.456    C   35 1.178    S   33 1.106
    35  C   3.941        C   39 1.452    C   34 1.178    S   36 1.106
    36  S   2.612        C   37 1.192    C   35 1.106
    37  C   3.928        C   38 1.526    S   36 1.192    H   69 0.967
    38  C   3.982        C   37 1.526    C   39 1.190    C   42 1.100
    39  C   3.948        C   35 1.452    C   38 1.190    S   40 1.065
    40  S   2.511        C   41 1.070    C   39 1.065
    41  C   3.893        C   45 1.422    C   42 1.195    S   40 1.070
    42  C   3.982        C   43 1.519    C   41 1.195    C   38 1.100
    43  C   3.896        C   42 1.519    S   44 1.197    H   70 0.968
    44  S   2.565        C   43 1.197    C   45 1.085
    45  C   3.941        C   41 1.422    C   46 1.240    S   44 1.085
    46  C   3.904        C   47 1.503    C   45 1.240    H   71 0.953
    47  C   3.955        C   46 1.503    C   48 1.203    S   51 1.076
    48  C   3.940        C   49 1.616    C   47 1.203    H   72 0.964
    49  C   3.949        C   48 1.616    C   50 1.220    H   73 0.962
    50  C   3.957        C   52 1.434    C   49 1.220    S   51 1.075
    51  S   2.492        C   47 1.076    C   50 1.075
    52  C   3.917        C   50 1.434    C   53 1.202    S   56 1.086
    53  C   3.986        C   54 1.659    C   52 1.202    H   74 0.962
    54  C   3.915        C   53 1.659    C   55 1.152    H   75 0.963
    55  C   3.961        C   57 1.721    C   54 1.152    S   56 1.039
    56  S   2.411        C   52 1.086    C   55 1.039
    57  C   3.868        C   55 1.721    H   77 0.977    H   76 0.970
    58  H   0.997        C    1 0.970
    59  H   0.997        C    1 0.976
    60  H   0.997        C    3 0.963
    61  H   0.998        C    4 0.962
    62  H   0.997        C    8 0.962
    63  H   0.997        C    9 0.964
    64  H   0.996        C   12 0.948
    65  H   0.997        C   15 0.968
    66  H   0.996        C   21 0.967
    67  H   0.996        C   26 0.967
    68  H   0.996        C   32 0.967
    69  H   0.996        C   37 0.967
    70  H   0.997        C   43 0.968
    71  H   0.996        C   46 0.953
    72  H   0.997        C   48 0.964
    73  H   0.997        C   49 0.962
    74  H   0.998        C   53 0.962
    75  H   0.997        C   54 0.963
    76  H   0.997        C   57 0.970
    77  H   0.997        C   57 0.977

molecular dipole:
                 x           y           z       tot (Debye)
 q only:       -0.607      -0.107       0.435
   full:       -1.123      -0.372       0.822       3.663
molecular quadrupole (traceless):
                xx          xy          yy          xz          yz          zz
 q only:      -17.186       8.570      22.959     -10.977     -35.908      -5.773
  q+dip:      -31.603      14.406      35.286     -19.556     -61.321      -3.683
   full:      -34.544      14.851      33.625     -18.872     -57.203       0.920

           -------------------------------------------------
          |                Geometry Summary                 |
           -------------------------------------------------

      molecular mass/u    :      965.4220000
   center of mass at/Å    :        4.8403250     -10.7970540       8.1577924
  moments of inertia/u·Å² :        0.6316744E+04   0.6689219E+05   0.7224100E+05
rotational constants/cm⁻¹ :        0.2668722E-02   0.2520119E-03   0.2333527E-03

 * 86 selected distances

     #   Z        #   Z                                     value/Å
     1   6 C      2   6 C                                 1.3395744
     2   6 C      3   6 C                                 1.4355996
     3   6 C      4   6 C                                 1.3503877
     4   6 C      5   6 C                                 1.4241943
     5   6 C      6  16 S                                 1.7540588
     5   6 C      7   6 C                                 1.3719570
     7   6 C      8   6 C                                 1.4192715
     8   6 C      9   6 C                                 1.3557706
     9   6 C     10   6 C                                 1.4229660
     7   6 C     11  16 S                                 1.7574981 (max)
    10   6 C     11  16 S                                 1.7564652
    10   6 C     12   6 C                                 1.3651954
    12   6 C     13   6 C                                 1.4075806
    13   6 C     14  16 S                                 1.7550985
    14  16 S     15   6 C                                 1.7229759
    15   6 C     16   6 C                                 1.3647072
    13   6 C     17   6 C                                 1.3805467
    16   6 C     17   6 C                                 1.4227823
    17   6 C     18  16 S                                 1.7507578
    18  16 S     19   6 C                                 1.7496683
    16   6 C     20   6 C                                 1.4363082
    19   6 C     20   6 C                                 1.4283751
    20   6 C     21   6 C                                 1.3618494
    21   6 C     22  16 S                                 1.7233224
    19   6 C     23   6 C                                 1.3719273
    22  16 S     23   6 C                                 1.7516436
    23   6 C     24   6 C                                 1.4196194
    24   6 C     25  16 S                                 1.7523683
    25  16 S     26   6 C                                 1.7226218
    26   6 C     27   6 C                                 1.3616991
    24   6 C     28   6 C                                 1.3718039
    27   6 C     28   6 C                                 1.4283080
    28   6 C     29  16 S                                 1.7519684
    29  16 S     30   6 C                                 1.7525455
    27   6 C     31   6 C                                 1.4354264
    30   6 C     31   6 C                                 1.4278394
    31   6 C     32   6 C                                 1.3622147
    32   6 C     33  16 S                                 1.7216458
    30   6 C     34   6 C                                 1.3715214
    33  16 S     34   6 C                                 1.7532376
    34   6 C     35   6 C                                 1.4194701
    35   6 C     36  16 S                                 1.7513498
    36  16 S     37   6 C                                 1.7242112
    37   6 C     38   6 C                                 1.3623211
    35   6 C     39   6 C                                 1.3716251
    38   6 C     39   6 C                                 1.4259154
    39   6 C     40  16 S                                 1.7474242
    40  16 S     41   6 C                                 1.7519887
    38   6 C     42   6 C                                 1.4359268
    41   6 C     42   6 C                                 1.4304615
    42   6 C     43   6 C                                 1.3625178
    43   6 C     44  16 S                                 1.7181587
    41   6 C     45   6 C                                 1.3802812
    45   6 C     46   6 C                                 1.4131304
    46   6 C     47   6 C                                 1.3662001
    47   6 C     48   6 C                                 1.4253012
    48   6 C     49   6 C                                 1.3557603
    49   6 C     50   6 C                                 1.4187604
    47   6 C     51  16 S                                 1.7554938
    50   6 C     51  16 S                                 1.7555343
    50   6 C     52   6 C                                 1.3717621
    52   6 C     53   6 C                                 1.4236901
    53   6 C     54   6 C                                 1.3505065
    54   6 C     55   6 C                                 1.4356856
    52   6 C     56  16 S                                 1.7546436
    55   6 C     57   6 C                                 1.3396744
     1   6 C     58   1 H                                 1.0757782
     1   6 C     59   1 H                                 1.0744462
     3   6 C     60   1 H                                 1.0757773
     4   6 C     61   1 H                                 1.0757629
     8   6 C     62   1 H                                 1.0752783
     9   6 C     63   1 H                                 1.0759323
    12   6 C     64   1 H                                 1.0834322
    15   6 C     65   1 H                                 1.0710039
    21   6 C     66   1 H                                 1.0708344 (min)
    26   6 C     67   1 H                                 1.0708375
    32   6 C     68   1 H                                 1.0709013
    37   6 C     69   1 H                                 1.0708870
    43   6 C     70   1 H                                 1.0709833
    46   6 C     71   1 H                                 1.0834438
    48   6 C     72   1 H                                 1.0761015
    49   6 C     73   1 H                                 1.0753306
    53   6 C     74   1 H                                 1.0757479
    54   6 C     75   1 H                                 1.0756901
    57   6 C     76   1 H                                 1.0757227
    57   6 C     77   1 H                                 1.0744576

 * 3 distinct bonds (by element types)

   Z      Z             #   av. dist./Å        max./Å        min./Å
   1 H    6 C          20     1.0749174     1.0834438     1.0708344
   6 C    6 C          43     1.3936376     1.4363082     1.3395744
   6 C   16 S          23     1.7449861     1.7574981     1.7181587


optimized geometry written to: xtbopt.xyz


           -------------------------------------------------
          | TOTAL ENERGY             -146.534295204734 Eh   |
          | GRADIENT NORM               0.000343839323 Eh/α |
          | HOMO-LUMO GAP               0.949936713021 eV   |
           -------------------------------------------------

------------------------------------------------------------------------
 * finished run on 2021/06/15 at 05:46:30.960     
------------------------------------------------------------------------
 total:
 * wall-time:     0 d,  0 h,  0 min, 52.403 sec
 *  cpu-time:     0 d,  0 h,  8 min, 51.928 sec
 * ratio c/w:    10.151 speedup
 SCF:
 * wall-time:     0 d,  0 h,  0 min,  0.698 sec
 *  cpu-time:     0 d,  0 h,  0 min,  6.889 sec
 * ratio c/w:     9.863 speedup
 ANC optimizer:
 * wall-time:     0 d,  0 h,  0 min, 51.630 sec
 *  cpu-time:     0 d,  0 h,  8 min, 44.388 sec
 * ratio c/w:    10.157 speedup

