      -----------------------------------------------------------      
     |                   =====================                   |     
     |                           x T B                           |     
     |                   =====================                   |     
     |                         S. Grimme                         |     
     |          Mulliken Center for Theoretical Chemistry        |     
     |                    University of Bonn                     |     
     |                Version 6.2 RC2 (SAW190805)                |     
      -----------------------------------------------------------      

   This program is distributed in the hope that it will be useful,
   but WITHOUT ANY WARRANTY; without even the implied warranty of
   MERCHANTABILITY or FITNESS FOR A PARTICULAR PURPOSE.
   
   FOR NON-COMMERCIAL, ACADEMIA USE ONLY.
   
   Cite this work as:
   * S. Grimme, C. Bannwarth, P. Shushkov, J. Chem. Theory Comput., 2017,
     13, 1989-2009. DOI: 10.1021/acs.jctc.7b00118
   * C. Bannwarth, S. Ehlert and S. Grimme., J. Chem. Theory Comput., 2019,
     15, 1652-1671. DOI: 10.1021/acs.jctc.8b01176
   * P. Pracht, E. Caldeweyher, S. Ehlert, S. Grimme, ChemRxiv, 2019, preprint.
     DOI: 10.26434/chemrxiv.8326202.v1
   
   for DFT-D4:
   * E. Caldeweyher, C. Bannwarth and S. Grimme, J. Chem. Phys., 2017,
     147, 034112. DOI: 10.1063/1.4993215
   * E. Caldeweyher, S. Ehlert, A. Hansen, H. Neugebauer, S. Spicher,
     C. Bannwarth and S. Grimme, J. Chem. Phys., 2019, 150, 154122.
     DOI: 10.1063/1.5090222
   
   for sTDA-xTB:
   * S. Grimme and C. Bannwarth, J. Chem. Phys., 2016, 145, 054103.
     DOI: 10.1063/1.4959605
   
   in the mass-spec context:
   * V. Asgeirsson, C. Bauer and S. Grimme, Chem. Sci., 2017, 8, 4879.
     DOI: 10.1039/c7sc00601b
   
   for metadynamics refer to:
   * S. Grimme, J. Chem. Theory Comput., 2019, 155, 2847-2862
     DOI: 10.1021/acs.jctc.9b00143
   
   with help from (in alphabetical order)
   C. Bannwarth, F. Bohle, G. Brandenburg, E. Caldeweyher, M. Checinski,
   S. Dohm, S. Ehlert, S. Ehrlich, F. März, H. Neugebauer, J. Pisarek,
   P. Pracht, P. Shushkov, and S. Spicher.
   
 * started run on 2021/06/11 at 18:48:06.028     

           -------------------------------------------------
          |                Calculation Setup                |
           -------------------------------------------------

          program call               : /ihome/ghutchison/geoffh/xtb/xtb /ihome/ghutchison/blp62/GA/running_GA/sequence/generations/99/47_435_435_435_259_02224.xyz -opt
          hostname                   : smp-n66
          coordinate file            : /ihome/ghutchison/blp62/GA/running_GA/sequence/generations/99/47_435_435_435_259_02224.xyz
          omp threads                :                    12
          number of atoms            :                    63
          number of electrons        :                   232
          charge                     :                     0
          spin                       :                   0.0
          first test random number   :      0.92142857067353


########################################################################
# WARNING! Please study the warnings concerning your input carefully
#  - XTBPATH is not set, using XTBHOME instead
#  - the use of '-opt' is discouraged, please use '--opt' next time
########################################################################

           ------------------------------------------------- 
          |                 G F N 2 - x T B                 |
          | Geometry, Frequencies, Noncovalent interactions |
          |            JCTC 2019 parametrisation            |
           ------------------------------------------------- 
             KAB for C  - Si     :                1.0500
             KAB for H  - Pd     :                0.9500
             k(s)              :                1.8500
             k(p)              :                2.2300
             k(d)              :                2.2300
             k(f)              :                2.0000
             kEN (H0ij)        :               -2.0000
             D4 a1             :                0.5200
             D4 a2             :                5.0000
             D4 s6             :                1.0000
             D4 s8             :                2.7000
             D4 s9             :                5.0000
             alphaj            :                2.0000

  Z AO/shell   Hii/eV     exponent
  1     Wed Apr 25 08:07:45 CEST 2018   EN: 2.200 GM2: 0.406  GM3: 0.0800  RAES: 1.40
     1s    -10.707211    1.230000
  6     Wed Apr 25 08:07:45 CEST 2018   EN: 2.550 GM2: 0.538  GM3: 0.1500  RAES: 3.00
     2s    -13.970922    2.096432
     2p    -10.063292    1.800000
  7     Wed Apr 25 08:07:45 CEST 2018   EN: 3.040 GM2: 0.461  GM3:-0.0640  RAES: 1.90
     2s    -16.686243    2.339881
     2p    -12.523956    2.014332
  8     Wed Apr 25 08:07:45 CEST 2018   EN: 3.440 GM2: 0.452  GM3:-0.0517  RAES: 1.80
     2s    -20.229985    2.439742
     2p    -15.503117    2.137023
 16     Tue Apr 24 11:44:34 CEST 2018   EN: 2.580 GM2: 0.340  GM3:-0.0502  RAES: 3.10
     3s    -20.029654    1.981333
     3p    -11.377694    2.025643
     3d     -0.420282    1.702555

           ------------------------------------------------- 
          |        Self-Consistent Charge Iterations        |
           ------------------------------------------------- 

          ...................................................
          :                      SETUP                      :
          :.................................................:
          :  # basis functions                 255          :
          :  # atomic orbitals                 246          :
          :  # shells                          118          :
          :  # electrons                       232          :
          :  max. iterations                   250          :
          :  Hamiltonian                  GFN2-xTB          :
          :  restarted?                      false          :
          :  GBSA solvation                  false          :
          :  PC potential                    false          :
          :  electronic temp.          300.0000000     K    :
          :  accuracy                    1.0000000          :
          :  -> integral cutoff          0.2500000E+02      :
          :  -> integral neglect         0.1000000E-07      :
          :  -> SCF convergence          0.1000000E-05 Eh   :
          :  -> wf. convergence          0.1000000E-03 e    :
          :  Broyden damping             0.4000000          :
          ...................................................

 iter      E             dE          RMSdq      gap      omega  full diag
   1   -130.5443529 -0.130544E+03  0.515E+00    1.49       0.0  T
   2   -130.7010184 -0.156666E+00  0.276E+00    0.57       1.0  T
   3   -130.6296272  0.713912E-01  0.152E+00    0.29       1.0  T
   4   -130.4767156  0.152912E+00  0.152E+00    0.02       1.0  T
   5   -130.7149709 -0.238255E+00  0.651E-01    1.11       1.0  T
   6   -130.7286725 -0.137017E-01  0.332E-01    0.99       1.0  T
   7   -130.7300520 -0.137943E-02  0.244E-01    0.91       1.0  T
   8   -130.7315736 -0.152162E-02  0.150E-01    0.67       1.0  T
   9   -130.7322708 -0.697210E-03  0.113E-01    0.42       1.0  T
  10   -130.7326575 -0.386688E-03  0.703E-02    0.31       1.0  T
  11   -130.7327035 -0.460681E-04  0.548E-02    0.16       1.0  T
  12   -130.7330085 -0.304910E-03  0.242E-02    0.18       1.0  T
  13   -130.7330688 -0.603895E-04  0.124E-02    0.20       1.0  T
  14   -130.7330862 -0.173520E-04  0.430E-03    0.20       2.9  T
  15   -130.7330866 -0.379534E-06  0.251E-03    0.20       5.0  T
  16   -130.7330869 -0.294251E-06  0.151E-03    0.19       8.4  T
  17   -130.7330871 -0.271525E-06  0.462E-04    0.19      27.3  T
  18   -130.7330871  0.642328E-08  0.396E-04    0.19      31.8  T

   *** convergence criteria satisfied after 18 iterations ***

         #    Occupation            Energy/Eh            Energy/eV
      -------------------------------------------------------------
         1        2.0000           -0.7822321             -21.2856
       ...           ...                  ...                  ...
       110        2.0000           -0.3940592             -10.7229
       111        2.0000           -0.3893106             -10.5937
       112        2.0000           -0.3886514             -10.5757
       113        2.0000           -0.3793662             -10.3231
       114        2.0000           -0.3699464             -10.0668
       115        2.0000           -0.3632833              -9.8854
       116        1.9538           -0.3494969              -9.5103 (HOMO)
       117        0.0462           -0.3423807              -9.3167 (LUMO)
       118                         -0.3095184              -8.4224
       119                         -0.2984120              -8.1202
       120                         -0.2845102              -7.7419
       121                         -0.2639422              -7.1822
       ...                                ...                  ...
       246                          0.7672747              20.8786
      -------------------------------------------------------------
                  HL-Gap            0.0071162 Eh            0.1936 eV
             Fermi-level           -0.3459388 Eh           -9.4135 eV

 SCC (total)                   0 d,  0 h,  0 min,  0.196 sec
 SCC setup                      ...        0 min,  0.001 sec (  0.734%)
 Dispersion                     ...        0 min,  0.002 sec (  1.066%)
 integral evaluation            ...        0 min,  0.013 sec (  6.696%)
 zeroth order Hamiltonian       ...        0 min,  0.001 sec (  0.478%)
 iterations                     ...        0 min,  0.165 sec ( 83.981%)
 molecular gradient             ...        0 min,  0.013 sec (  6.530%)
 printout                       ...        0 min,  0.001 sec (  0.437%)

         :::::::::::::::::::::::::::::::::::::::::::::::::::::
         ::                     SUMMARY                     ::
         :::::::::::::::::::::::::::::::::::::::::::::::::::::
         :: total energy            -129.228621884812 Eh    ::
         :: gradient norm              0.141803234012 Eh/a0 ::
         :: HOMO-LUMO gap              0.193640341454 eV    ::
         ::.................................................::
         :: SCC energy              -130.733087135109 Eh    ::
         :: -> isotropic ES            0.125028588546 Eh    ::
         :: -> anisotropic ES          0.011007378796 Eh    ::
         :: -> anisotropic XC          0.028280366350 Eh    ::
         :: -> dispersion             -0.101637781712 Eh    ::
         :: repulsion energy           1.505213766503 Eh    ::
         :: add. restraining           0.000000000000 Eh    ::
         :::::::::::::::::::::::::::::::::::::::::::::::::::::

      ----------------------------------------------------------- 
     |                   =====================                   |
     |                        A N C O P T                        |
     |                   =====================                   |
     |               Approximate Normal Coordinate               |
     |                Rational Function Optimizer                |
      ----------------------------------------------------------- 

          ...................................................
          :                      SETUP                      :
          :.................................................:
          :   optimization level            normal          :
          :   max. optcycles                   200          :
          :   ANC micro-cycles                  20          :
          :   degrees of freedom               183          :
          :.................................................:
          :   RF solver                   davidson          :
          :   input Hessian                  false          :
          :   write xtbopt.log                true          :
          :   linear?                        false          :
          :   energy convergence         0.5000000E-05 Eh   :
          :   grad. convergence          0.1000000E-02 Eh/α :
          :   maximium RF displ.         2.0000000          :
          :   Hlow (freq-cutoff)         0.5000000E-02      :
          :   Hmax (freq-cutoff)         5.0000000          :
          :   S6 in model hess.         20.0000000          :
          ...................................................

generating ANC from model Hessian ...
Using Lindh-Hessian (1995)
 Shifting diagonal of input Hessian by   4.954197770976902E-003
 Lowest  eigenvalues of input Hessian
   -0.000000   -0.000000   -0.000000    0.000000    0.000000    0.000000
    0.005000    0.005005    0.005029    0.005101    0.005253    0.005395
    0.005558    0.005650    0.006184    0.006495    0.006611    0.006989
 Highest eigenvalues
    2.039562    2.067749    2.102039    2.142937    2.259323    2.511628
 

........................................................................
.............................. CYCLE    1 ..............................
........................................................................
   1   -130.7330871 -0.130733E+03  0.187E-04    0.19       0.0  T
   2   -130.7330871  0.285957E-07  0.462E-04    0.19      27.3  T
   3   -130.7330871 -0.326009E-07  0.597E-05    0.19     211.0  T
     SCC iter.                  ...        0 min,  0.028 sec
     gradient                   ...        0 min,  0.012 sec
 * total energy  :  -129.2286219 Eh     change       -0.8823662E-08 Eh
   gradient norm :     0.1418105 Eh/α   predicted     0.0000000E+00 (-100.00%)
   displ. norm   :     0.3547236 α      lambda       -0.2701493E-01
   maximum displ.:     0.0959353 α      in ANC's #42, #41, #52, ...

........................................................................
.............................. CYCLE    2 ..............................
........................................................................
   1   -130.7585816 -0.130759E+03  0.368E-01    0.31       0.0  T
   2   -130.7583496  0.231918E-03  0.211E-01    0.15       1.0  T
   3   -130.7574375  0.912143E-03  0.168E-01    0.43       1.0  T
   4   -130.7590271 -0.158961E-02  0.909E-02    0.31       1.0  T
   5   -130.7596259 -0.598754E-03  0.369E-02    0.23       1.0  T
   6   -130.7596676 -0.417761E-04  0.229E-02    0.20       1.0  T
   7   -130.7596811 -0.134927E-04  0.165E-02    0.21       1.0  T
   8   -130.7596852 -0.402968E-05  0.111E-02    0.20       1.1  T
   9   -130.7596982 -0.130113E-04  0.323E-03    0.21       3.9  T
  10   -130.7596985 -0.374008E-06  0.152E-03    0.21       8.3  T
  11   -130.7596986 -0.923257E-07  0.858E-04    0.21      14.7  T
     SCC iter.                  ...        0 min,  0.097 sec
     gradient                   ...        0 min,  0.012 sec
 * total energy  :  -129.2476377 Eh     change       -0.1901581E-01 Eh
   gradient norm :     0.0620254 Eh/α   predicted    -0.1520712E-01 ( -20.03%)
   displ. norm   :     0.3592730 α      lambda       -0.9000965E-02
   maximum displ.:     0.1257704 α      in ANC's #41, #23, #22, ...

........................................................................
.............................. CYCLE    3 ..............................
........................................................................
   1   -130.7738535 -0.130774E+03  0.350E-01    0.27       0.0  T
   2   -130.7739242 -0.706904E-04  0.179E-01    0.18       1.0  T
   3   -130.7725816  0.134261E-02  0.141E-01    0.36       1.0  T
   4   -130.7739289 -0.134725E-02  0.695E-02    0.27       1.0  T
   5   -130.7742989 -0.370075E-03  0.241E-02    0.22       1.0  T
   6   -130.7743051 -0.613995E-05  0.147E-02    0.21       1.0  T
   7   -130.7743100 -0.490583E-05  0.950E-03    0.22       1.3  T
   8   -130.7743134 -0.340740E-05  0.545E-03    0.21       2.3  T
   9   -130.7743160 -0.265613E-05  0.169E-03    0.22       7.4  T
     SCC iter.                  ...        0 min,  0.080 sec
     gradient                   ...        0 min,  0.012 sec
 * total energy  :  -129.2530370 Eh     change       -0.5399342E-02 Eh
   gradient norm :     0.0170137 Eh/α   predicted    -0.5081393E-02 (  -5.89%)
   displ. norm   :     0.3017319 α      lambda       -0.1658955E-02
   maximum displ.:     0.1048555 α      in ANC's #23, #22, #26, ...

........................................................................
.............................. CYCLE    4 ..............................
........................................................................
   1   -130.7758103 -0.130776E+03  0.313E-01    0.21       0.0  T
   2   -130.7758759 -0.655852E-04  0.150E-01    0.23       1.0  T
   3   -130.7757732  0.102667E-03  0.414E-02    0.19       1.0  T
   4   -130.7758687 -0.954781E-04  0.228E-02    0.24       1.0  T
   5   -130.7758880 -0.192768E-04  0.146E-02    0.21       1.0  T
   6   -130.7758991 -0.111640E-04  0.482E-03    0.22       2.6  T
   7   -130.7759003 -0.118499E-05  0.218E-03    0.22       5.8  T
   8   -130.7759005 -0.190513E-06  0.103E-03    0.22      12.2  T
     SCC iter.                  ...        0 min,  0.069 sec
     gradient                   ...        0 min,  0.012 sec
 * total energy  :  -129.2542287 Eh     change       -0.1191606E-02 Eh
   gradient norm :     0.0106464 Eh/α   predicted    -0.9050387E-03 ( -24.05%)
   displ. norm   :     0.4022384 α      lambda       -0.1354377E-02
   maximum displ.:     0.1359426 α      in ANC's #23, #15, #22, ...

........................................................................
.............................. CYCLE    5 ..............................
........................................................................
   1   -130.7752464 -0.130775E+03  0.414E-01    0.21       0.0  T
   2   -130.7753453 -0.988884E-04  0.201E-01    0.24       1.0  T
   3   -130.7740977  0.124759E-02  0.987E-02    0.15       1.0  T
   4   -130.7753085 -0.121085E-02  0.355E-02    0.26       1.0  T
   5   -130.7753752 -0.667070E-04  0.242E-02    0.23       1.0  T
   6   -130.7754019 -0.266686E-04  0.883E-03    0.22       1.4  T
   7   -130.7754060 -0.410812E-05  0.335E-03    0.22       3.8  T
   8   -130.7754066 -0.580811E-06  0.196E-03    0.22       6.4  T
   9   -130.7754067 -0.902213E-07  0.131E-03    0.22       9.6  T
     SCC iter.                  ...        0 min,  0.078 sec
     gradient                   ...        0 min,  0.012 sec
 * total energy  :  -129.2548674 Eh     change       -0.6387916E-03 Eh
   gradient norm :     0.0155741 Eh/α   predicted    -0.7867558E-03 (  23.16%)
   displ. norm   :     0.2815225 α      lambda       -0.9344753E-03
   maximum displ.:     0.1036447 α      in ANC's #15, #16, #23, ...

........................................................................
.............................. CYCLE    6 ..............................
........................................................................
   1   -130.7759441 -0.130776E+03  0.249E-01    0.21       0.0  T
   2   -130.7759766 -0.324319E-04  0.124E-01    0.23       1.0  T
   3   -130.7756439  0.332674E-03  0.548E-02    0.18       1.0  T
   4   -130.7759564 -0.312527E-03  0.243E-02    0.24       1.0  T
   5   -130.7759856 -0.291908E-04  0.156E-02    0.22       1.0  T
   6   -130.7759986 -0.129585E-04  0.476E-03    0.22       2.6  T
   7   -130.7759998 -0.121238E-05  0.191E-03    0.22       6.6  T
   8   -130.7759999 -0.748013E-07  0.149E-03    0.22       8.4  T
     SCC iter.                  ...        0 min,  0.070 sec
     gradient                   ...        0 min,  0.012 sec
 * total energy  :  -129.2553637 Eh     change       -0.4963030E-03 Eh
   gradient norm :     0.0141516 Eh/α   predicted    -0.5042701E-03 (   1.61%)
   displ. norm   :     0.2009461 α      lambda       -0.5344987E-03
   maximum displ.:     0.0848707 α      in ANC's #15, #16, #6, ...

........................................................................
.............................. CYCLE    7 ..............................
........................................................................
   1   -130.7792798 -0.130779E+03  0.151E-01    0.22       0.0  T
   2   -130.7792944 -0.146539E-04  0.731E-02    0.21       1.0  T
   3   -130.7792606  0.338067E-04  0.227E-02    0.24       1.0  T
   4   -130.7792929 -0.322538E-04  0.129E-02    0.21       1.0  T
   5   -130.7792964 -0.353300E-05  0.890E-03    0.22       1.4  T
   6   -130.7793006 -0.422953E-05  0.316E-03    0.22       4.0  T
   7   -130.7793013 -0.650721E-06  0.156E-03    0.22       8.1  T
   8   -130.7793014 -0.123065E-06  0.102E-03    0.22      12.4  T
     SCC iter.                  ...        0 min,  0.069 sec
     gradient                   ...        0 min,  0.012 sec
 * total energy  :  -129.2557898 Eh     change       -0.4260567E-03 Eh
   gradient norm :     0.0095478 Eh/α   predicted    -0.2780487E-03 ( -34.74%)
   displ. norm   :     0.5118955 α      lambda       -0.9927017E-03
   maximum displ.:     0.1965489 α      in ANC's #13, #6, #15, ...

........................................................................
.............................. CYCLE    8 ..............................
........................................................................
   1   -130.7804083 -0.130780E+03  0.435E-01    0.23       0.0  T
   2   -130.7805260 -0.117716E-03  0.210E-01    0.21       1.0  T
   3   -130.7804036  0.122400E-03  0.510E-02    0.25       1.0  T
   4   -130.7805228 -0.119223E-03  0.324E-02    0.21       1.0  T
   5   -130.7805164  0.639148E-05  0.250E-02    0.21       1.0  T
   6   -130.7805669 -0.504582E-04  0.615E-03    0.22       2.0  T
   7   -130.7805704 -0.352545E-05  0.217E-03    0.22       5.8  T
   8   -130.7805705 -0.152382E-06  0.152E-03    0.22       8.3  T
   9   -130.7805707 -0.137380E-06  0.601E-04    0.22      21.0  T
     SCC iter.                  ...        0 min,  0.078 sec
     gradient                   ...        0 min,  0.012 sec
 * total energy  :  -129.2565172 Eh     change       -0.7274202E-03 Eh
   gradient norm :     0.0095970 Eh/α   predicted    -0.6264178E-03 ( -13.89%)
   displ. norm   :     0.5204055 α      lambda       -0.6913999E-03
   maximum displ.:     0.2046979 α      in ANC's #13, #6, #15, ...

........................................................................
.............................. CYCLE    9 ..............................
........................................................................
   1   -130.7781685 -0.130778E+03  0.402E-01    0.22       0.0  T
   2   -130.7782692 -0.100679E-03  0.195E-01    0.22       1.0  T
   3   -130.7781837  0.855225E-04  0.470E-02    0.21       1.0  T
   4   -130.7782520 -0.683341E-04  0.312E-02    0.23       1.0  T
   5   -130.7782685 -0.165004E-04  0.187E-02    0.21       1.0  T
   6   -130.7782997 -0.312003E-04  0.582E-03    0.22       2.2  T
   7   -130.7783026 -0.287469E-05  0.191E-03    0.22       6.6  T
   8   -130.7783026 -0.731779E-07  0.129E-03    0.22       9.8  T
     SCC iter.                  ...        0 min,  0.069 sec
     gradient                   ...        0 min,  0.012 sec
 * total energy  :  -129.2570591 Eh     change       -0.5418947E-03 Eh
   gradient norm :     0.0115813 Eh/α   predicted    -0.4393250E-03 ( -18.93%)
   displ. norm   :     0.5161394 α      lambda       -0.7623785E-03
   maximum displ.:     0.2134418 α      in ANC's #13, #6, #4, ...

........................................................................
.............................. CYCLE   10 ..............................
........................................................................
   1   -130.7799897 -0.130780E+03  0.371E-01    0.22       0.0  T
   2   -130.7800784 -0.887639E-04  0.180E-01    0.22       1.0  T
   3   -130.7798813  0.197091E-03  0.557E-02    0.20       1.0  T
   4   -130.7800622 -0.180893E-03  0.305E-02    0.24       1.0  T
   5   -130.7800841 -0.218647E-04  0.199E-02    0.21       1.0  T
   6   -130.7801108 -0.266807E-04  0.718E-03    0.22       1.8  T
   7   -130.7801148 -0.404177E-05  0.230E-03    0.22       5.5  T
   8   -130.7801151 -0.249738E-06  0.130E-03    0.22       9.7  T
   9   -130.7801151 -0.818105E-07  0.606E-04    0.22      20.8  T
     SCC iter.                  ...        0 min,  0.078 sec
     gradient                   ...        0 min,  0.012 sec
 * total energy  :  -129.2576198 Eh     change       -0.5606616E-03 Eh
   gradient norm :     0.0104963 Eh/α   predicted    -0.4827384E-03 ( -13.90%)
   displ. norm   :     0.6205301 α      lambda       -0.7074797E-03
   maximum displ.:     0.2527173 α      in ANC's #13, #6, #4, ...

........................................................................
.............................. CYCLE   11 ..............................
........................................................................
   1   -130.7738930 -0.130774E+03  0.446E-01    0.20       0.0  T
   2   -130.7739587 -0.657851E-04  0.218E-01    0.25       1.0  T
   3   -130.7656377  0.832108E-02  0.239E-01    0.11       1.0  T
   4   -130.7738834 -0.824574E-02  0.499E-02    0.29       1.0  T
   5   -130.7739654 -0.819661E-04  0.422E-02    0.24       1.0  T
   6   -130.7740576 -0.922046E-04  0.214E-02    0.23       1.0  T
   7   -130.7740832 -0.255936E-04  0.895E-03    0.23       1.4  T
   8   -130.7740915 -0.835406E-05  0.461E-03    0.22       2.7  T
   9   -130.7740930 -0.148394E-05  0.206E-03    0.22       6.1  T
  10   -130.7740933 -0.275643E-06  0.741E-04    0.22      17.0  T
     SCC iter.                  ...        0 min,  0.088 sec
     gradient                   ...        0 min,  0.012 sec
 * total energy  :  -129.2580134 Eh     change       -0.3935985E-03 Eh
   gradient norm :     0.0127487 Eh/α   predicted    -0.4899590E-03 (  24.48%)
   displ. norm   :     0.3009363 α      lambda       -0.6875704E-03
   maximum displ.:     0.1162501 α      in ANC's #13, #3, #6, ...

........................................................................
.............................. CYCLE   12 ..............................
........................................................................
   1   -130.7820988 -0.130782E+03  0.175E-01    0.21       0.0  T
   2   -130.7821173 -0.184919E-04  0.870E-02    0.22       1.0  T
   3   -130.7817852  0.332172E-03  0.496E-02    0.18       1.0  T
   4   -130.7820875 -0.302309E-03  0.233E-02    0.24       1.0  T
   5   -130.7821293 -0.418330E-04  0.108E-02    0.22       1.2  T
   6   -130.7821336 -0.433344E-05  0.428E-03    0.21       2.9  T
   7   -130.7821348 -0.117652E-05  0.203E-03    0.22       6.2  T
   8   -130.7821349 -0.126278E-06  0.149E-03    0.21       8.4  T
     SCC iter.                  ...        0 min,  0.069 sec
     gradient                   ...        0 min,  0.012 sec
 * total energy  :  -129.2583570 Eh     change       -0.3436289E-03 Eh
   gradient norm :     0.0097233 Eh/α   predicted    -0.3749209E-03 (   9.11%)
   displ. norm   :     0.4571157 α      lambda       -0.5832810E-03
   maximum displ.:     0.2067077 α      in ANC's #13, #6, #4, ...

........................................................................
.............................. CYCLE   13 ..............................
........................................................................
   1   -130.7776621 -0.130778E+03  0.379E-01    0.21       0.0  T
   2   -130.7777671 -0.104952E-03  0.181E-01    0.23       1.0  T
   3   -130.7765517  0.121541E-02  0.991E-02    0.16       1.0  T
   4   -130.7777305 -0.117884E-02  0.349E-02    0.25       1.0  T
   5   -130.7777953 -0.647507E-04  0.246E-02    0.22       1.0  T
   6   -130.7778198 -0.245524E-04  0.113E-02    0.22       1.1  T
   7   -130.7778281 -0.831948E-05  0.421E-03    0.21       3.0  T
   8   -130.7778289 -0.735408E-06  0.213E-03    0.22       5.9  T
   9   -130.7778290 -0.100240E-06  0.135E-03    0.21       9.3  T
     SCC iter.                  ...        0 min,  0.078 sec
     gradient                   ...        0 min,  0.012 sec
 * total energy  :  -129.2584654 Eh     change       -0.1083946E-03 Eh
   gradient norm :     0.0146491 Eh/α   predicted    -0.3525841E-03 ( 225.28%)
   displ. norm   :     0.1931867 α      lambda       -0.5207128E-03
   maximum displ.:     0.0824320 α      in ANC's #3, #6, #13, ...

........................................................................
.............................. CYCLE   14 ..............................
........................................................................
   1   -130.7787951 -0.130779E+03  0.111E-01    0.21       0.0  T
   2   -130.7787914  0.374831E-05  0.572E-02    0.22       1.0  T
   3   -130.7782358  0.555559E-03  0.700E-02    0.18       1.0  T
   4   -130.7788010 -0.565143E-03  0.138E-02    0.23       1.0  T
   5   -130.7788085 -0.752332E-05  0.109E-02    0.21       1.2  T
   6   -130.7788151 -0.657714E-05  0.524E-03    0.22       2.4  T
   7   -130.7788165 -0.146464E-05  0.205E-03    0.21       6.1  T
   8   -130.7788167 -0.151270E-06  0.112E-03    0.21      11.2  T
     SCC iter.                  ...        0 min,  0.069 sec
     gradient                   ...        0 min,  0.012 sec
 * total energy  :  -129.2587740 Eh     change       -0.3085676E-03 Eh
   gradient norm :     0.0070956 Eh/α   predicted    -0.2700788E-03 ( -12.47%)
   displ. norm   :     0.2042868 α      lambda       -0.2388221E-03
   maximum displ.:     0.1161941 α      in ANC's #3, #13, #16, ...

........................................................................
.............................. CYCLE   15 ..............................
........................................................................
   1   -130.7806602 -0.130781E+03  0.140E-01    0.21       0.0  T
   2   -130.7806735 -0.133274E-04  0.680E-02    0.22       1.0  T
   3   -130.7806646  0.888139E-05  0.155E-02    0.21       1.0  T
   4   -130.7806624  0.219838E-05  0.138E-02    0.22       1.0  T
   5   -130.7806755 -0.130930E-04  0.501E-03    0.21       2.5  T
   6   -130.7806771 -0.159436E-05  0.170E-03    0.22       7.4  T
   7   -130.7806773 -0.191708E-06  0.106E-03    0.21      11.9  T
     SCC iter.                  ...        0 min,  0.062 sec
     gradient                   ...        0 min,  0.012 sec
 * total energy  :  -129.2589211 Eh     change       -0.1470878E-03 Eh
   gradient norm :     0.0063107 Eh/α   predicted    -0.1243984E-03 ( -15.43%)
   displ. norm   :     0.3470266 α      lambda       -0.3109038E-03
   maximum displ.:     0.2122368 α      in ANC's #3, #13, #2, ...

........................................................................
.............................. CYCLE   16 ..............................
........................................................................
   1   -130.7856957 -0.130786E+03  0.196E-01    0.21       0.0  T
   2   -130.7856998 -0.416537E-05  0.980E-02    0.22       1.0  T
   3   -130.7849571  0.742762E-03  0.865E-02    0.18       1.0  T
   4   -130.7857184 -0.761291E-03  0.185E-02    0.23       1.0  T
   5   -130.7857046  0.137627E-04  0.189E-02    0.20       1.0  T
   6   -130.7857333 -0.287213E-04  0.648E-03    0.22       1.9  T
   7   -130.7857372 -0.385902E-05  0.155E-03    0.21       8.2  T
   8   -130.7857373 -0.991241E-07  0.783E-04    0.21      16.1  T
   9   -130.7857373 -0.112565E-07  0.493E-04    0.21      25.5  T
     SCC iter.                  ...        0 min,  0.078 sec
     gradient                   ...        0 min,  0.012 sec
 * total energy  :  -129.2590881 Eh     change       -0.1669980E-03 Eh
   gradient norm :     0.0088382 Eh/α   predicted    -0.1741750E-03 (   4.30%)
   displ. norm   :     0.4837543 α      lambda       -0.3534269E-03
   maximum displ.:     0.2331850 α      in ANC's #3, #13, #16, ...

........................................................................
.............................. CYCLE   17 ..............................
........................................................................
   1   -130.7798811 -0.130780E+03  0.298E-01    0.20       0.0  T
   2   -130.7798727  0.837930E-05  0.148E-01    0.25       1.0  T
   3   -130.7672211  0.126515E-01  0.282E-01    0.10       1.0  T
   4   -130.7798089 -0.125877E-01  0.418E-02    0.27       1.0  T
   5   -130.7798822 -0.733598E-04  0.350E-02    0.24       1.0  T
   6   -130.7799536 -0.713799E-04  0.195E-02    0.23       1.0  T
   7   -130.7799765 -0.228952E-04  0.945E-03    0.22       1.3  T
   8   -130.7799866 -0.101106E-04  0.490E-03    0.22       2.6  T
   9   -130.7799885 -0.189011E-05  0.235E-03    0.22       5.4  T
  10   -130.7799891 -0.555932E-06  0.722E-04    0.21      17.4  T
     SCC iter.                  ...        0 min,  0.088 sec
     gradient                   ...        0 min,  0.012 sec
 * total energy  :  -129.2592955 Eh     change       -0.2074000E-03 Eh
   gradient norm :     0.0088066 Eh/α   predicted    -0.2180693E-03 (   5.14%)
   displ. norm   :     0.3037428 α      lambda       -0.3230649E-03
   maximum displ.:     0.2101523 α      in ANC's #3, #7, #2, ...

........................................................................
.............................. CYCLE   18 ..............................
........................................................................
   1   -130.7812846 -0.130781E+03  0.176E-01    0.20       0.0  T
   2   -130.7812772  0.740747E-05  0.871E-02    0.23       1.0  T
   3   -130.7783748  0.290241E-02  0.134E-01    0.14       1.0  T
   4   -130.7812825 -0.290775E-02  0.223E-02    0.24       1.0  T
   5   -130.7812994 -0.168934E-04  0.176E-02    0.22       1.0  T
   6   -130.7813211 -0.216714E-04  0.807E-03    0.22       1.6  T
   7   -130.7813262 -0.508385E-05  0.225E-03    0.21       5.6  T
   8   -130.7813263 -0.151609E-06  0.129E-03    0.21       9.8  T
   9   -130.7813264 -0.485886E-07  0.682E-04    0.21      18.5  T
     SCC iter.                  ...        0 min,  0.077 sec
     gradient                   ...        0 min,  0.012 sec
 * total energy  :  -129.2594981 Eh     change       -0.2026890E-03 Eh
   gradient norm :     0.0076531 Eh/α   predicted    -0.1764373E-03 ( -12.95%)
   displ. norm   :     0.3612710 α      lambda       -0.3704957E-03
   maximum displ.:     0.2480312 α      in ANC's #3, #16, #7, ...

........................................................................
.............................. CYCLE   19 ..............................
........................................................................
   1   -130.7812013 -0.130781E+03  0.199E-01    0.21       0.0  T
   2   -130.7812288 -0.274204E-04  0.965E-02    0.22       1.0  T
   3   -130.7811760  0.527366E-04  0.320E-02    0.20       1.0  T
   4   -130.7812152 -0.392220E-04  0.192E-02    0.22       1.0  T
   5   -130.7812179 -0.267917E-05  0.139E-02    0.20       1.0  T
   6   -130.7812363 -0.184077E-04  0.471E-03    0.22       2.7  T
   7   -130.7812394 -0.310399E-05  0.173E-03    0.21       7.3  T
   8   -130.7812396 -0.124882E-06  0.112E-03    0.21      11.3  T
   9   -130.7812396 -0.668275E-07  0.534E-04    0.21      23.6  T
     SCC iter.                  ...        0 min,  0.077 sec
     gradient                   ...        0 min,  0.012 sec
 * total energy  :  -129.2596854 Eh     change       -0.1872688E-03 Eh
   gradient norm :     0.0104909 Eh/α   predicted    -0.2094298E-03 (  11.83%)
   displ. norm   :     0.3403848 α      lambda       -0.4004178E-03
   maximum displ.:     0.2498659 α      in ANC's #3, #7, #16, ...

........................................................................
.............................. CYCLE   20 ..............................
........................................................................
   1   -130.7882678 -0.130788E+03  0.160E-01    0.20       0.0  T
   2   -130.7882421  0.256961E-04  0.809E-02    0.23       1.0  T
   3   -130.7850792  0.316296E-02  0.145E-01    0.14       1.0  T
   4   -130.7882107 -0.313152E-02  0.300E-02    0.24       1.0  T
   5   -130.7882822 -0.715583E-04  0.173E-02    0.22       1.0  T
   6   -130.7882999 -0.176128E-04  0.949E-03    0.22       1.3  T
   7   -130.7883054 -0.559127E-05  0.317E-03    0.21       4.0  T
   8   -130.7883059 -0.456420E-06  0.157E-03    0.21       8.1  T
   9   -130.7883061 -0.238337E-06  0.634E-04    0.21      19.9  T
     SCC iter.                  ...        0 min,  0.078 sec
     gradient                   ...        0 min,  0.012 sec
 * total energy  :  -129.2599358 Eh     change       -0.2503974E-03 Eh
   gradient norm :     0.0100730 Eh/α   predicted    -0.2234112E-03 ( -10.78%)
   displ. norm   :     0.5195437 α      lambda       -0.5403941E-03
   maximum displ.:     0.3409308 α      in ANC's #3, #2, #13, ...
 * RMSD in coord.:     0.7521943 α      energy gain  -0.3131393E-01 Eh

generating ANC from model Hessian ...
Using Lindh-Hessian (1995)
 Shifting diagonal of input Hessian by   5.026232024746482E-003
 Lowest  eigenvalues of input Hessian
    0.005000   -0.000000   -0.000000   -0.000000    0.000000    0.000000
    0.000000    0.005066    0.005097    0.005109    0.005277    0.005383
    0.005497    0.005713    0.006009    0.006207    0.006502    0.006973
 Highest eigenvalues
    2.048774    2.056631    2.066309    2.137351    2.269950    2.681682
 

........................................................................
.............................. CYCLE   21 ..............................
........................................................................
   1   -130.7833820 -0.130783E+03  0.262E-01    0.19       0.0  T
   2   -130.7831788  0.203240E-03  0.139E-01    0.27       1.0  T
   3   -130.7336452  0.495335E-01  0.543E-01    0.07       1.0  T
   4   -130.7825627 -0.489175E-01  0.103E-01    0.33       1.0  T
   5   -130.7832118 -0.649097E-03  0.533E-02    0.30       1.0  T
   6   -130.7832915 -0.797034E-04  0.467E-02    0.27       1.0  T
   7   -130.7834072 -0.115692E-03  0.318E-02    0.26       1.0  T
   8   -130.7834894 -0.821973E-04  0.222E-02    0.24       1.0  T
   9   -130.7835294 -0.399792E-04  0.140E-02    0.23       1.0  T
  10   -130.7835551 -0.257052E-04  0.375E-03    0.21       3.4  T
  11   -130.7835565 -0.146195E-05  0.148E-03    0.21       8.5  T
  12   -130.7835566 -0.519744E-07  0.133E-03    0.21       9.5  T
  13   -130.7835568 -0.233477E-06  0.200E-04    0.21      63.0  T
  14   -130.7835568  0.429452E-09  0.155E-04    0.21      81.3  T
     SCC iter.                  ...        0 min,  0.123 sec
     gradient                   ...        0 min,  0.012 sec
 * total energy  :  -129.2601456 Eh     change       -0.2098272E-03 Eh
   gradient norm :     0.0139034 Eh/α   predicted     0.0000000E+00 (-100.00%)
   displ. norm   :     0.1619749 α      lambda       -0.4670395E-03
   maximum displ.:     0.0975522 α      in ANC's #4, #3, #12, ...

........................................................................
.............................. CYCLE   22 ..............................
........................................................................
   1   -130.7837430 -0.130784E+03  0.138E-01    0.21       0.0  T
   2   -130.7837495 -0.645239E-05  0.659E-02    0.20       1.0  T
   3   -130.7835052  0.244236E-03  0.492E-02    0.25       1.0  T
   4   -130.7837661 -0.260843E-03  0.920E-03    0.21       1.4  T
   5   -130.7837663 -0.253325E-06  0.666E-03    0.21       1.9  T
   6   -130.7837670 -0.639818E-06  0.367E-03    0.21       3.4  T
   7   -130.7837679 -0.936840E-06  0.182E-03    0.21       6.9  T
   8   -130.7837682 -0.324566E-06  0.528E-04    0.21      23.8  T
     SCC iter.                  ...        0 min,  0.069 sec
     gradient                   ...        0 min,  0.012 sec
 * total energy  :  -129.2604927 Eh     change       -0.3470192E-03 Eh
   gradient norm :     0.0051572 Eh/α   predicted    -0.2397492E-03 ( -30.91%)
   displ. norm   :     0.1632643 α      lambda       -0.2500381E-03
   maximum displ.:     0.0845205 α      in ANC's #4, #3, #12, ...

........................................................................
.............................. CYCLE   23 ..............................
........................................................................
   1   -130.7835497 -0.130784E+03  0.155E-01    0.21       0.0  T
   2   -130.7835720 -0.222785E-04  0.742E-02    0.21       1.0  T
   3   -130.7835317  0.402325E-04  0.276E-02    0.21       1.0  T
   4   -130.7835743 -0.425524E-04  0.120E-02    0.21       1.1  T
   5   -130.7835775 -0.323164E-05  0.853E-03    0.21       1.5  T
   6   -130.7835810 -0.349030E-05  0.256E-03    0.21       4.9  T
   7   -130.7835814 -0.372200E-06  0.148E-03    0.21       8.5  T
   8   -130.7835815 -0.173478E-06  0.104E-03    0.21      12.1  T
     SCC iter.                  ...        0 min,  0.070 sec
     gradient                   ...        0 min,  0.012 sec
 * total energy  :  -129.2606743 Eh     change       -0.1816604E-03 Eh
   gradient norm :     0.0042365 Eh/α   predicted    -0.1283519E-03 ( -29.35%)
   displ. norm   :     0.2762745 α      lambda       -0.2727000E-03
   maximum displ.:     0.1432090 α      in ANC's #4, #3, #6, ...

........................................................................
.............................. CYCLE   24 ..............................
........................................................................
   1   -130.7824500 -0.130782E+03  0.255E-01    0.20       0.0  T
   2   -130.7824978 -0.477591E-04  0.123E-01    0.22       1.0  T
   3   -130.7815765  0.921264E-03  0.804E-02    0.16       1.0  T
   4   -130.7824143 -0.837836E-03  0.324E-02    0.24       1.0  T
   5   -130.7825219 -0.107532E-03  0.146E-02    0.22       1.0  T
   6   -130.7825300 -0.812776E-05  0.771E-03    0.21       1.6  T
   7   -130.7825330 -0.303619E-05  0.275E-03    0.21       4.6  T
   8   -130.7825333 -0.297688E-06  0.201E-03    0.21       6.3  T
   9   -130.7825336 -0.227043E-06  0.787E-04    0.21      16.0  T
     SCC iter.                  ...        0 min,  0.079 sec
     gradient                   ...        0 min,  0.012 sec
 * total energy  :  -129.2608556 Eh     change       -0.1812969E-03 Eh
   gradient norm :     0.0105544 Eh/α   predicted    -0.1467574E-03 ( -19.05%)
   displ. norm   :     0.2807531 α      lambda       -0.2672549E-03
   maximum displ.:     0.1518068 α      in ANC's #4, #3, #6, ...

........................................................................
.............................. CYCLE   25 ..............................
........................................................................
   1   -130.7817263 -0.130782E+03  0.207E-01    0.20       0.0  T
   2   -130.7817416 -0.153099E-04  0.102E-01    0.22       1.0  T
   3   -130.7800299  0.171170E-02  0.105E-01    0.15       1.0  T
   4   -130.7816981 -0.166819E-02  0.270E-02    0.23       1.0  T
   5   -130.7817615 -0.633626E-04  0.143E-02    0.22       1.0  T
   6   -130.7817705 -0.905739E-05  0.898E-03    0.21       1.4  T
   7   -130.7817758 -0.525426E-05  0.306E-03    0.21       4.1  T
   8   -130.7817763 -0.533007E-06  0.136E-03    0.21       9.3  T
   9   -130.7817764 -0.800938E-07  0.659E-04    0.21      19.1  T
     SCC iter.                  ...        0 min,  0.077 sec
     gradient                   ...        0 min,  0.012 sec
 * total energy  :  -129.2610803 Eh     change       -0.2247219E-03 Eh
   gradient norm :     0.0119182 Eh/α   predicted    -0.1441714E-03 ( -35.84%)
   displ. norm   :     0.4928462 α      lambda       -0.5912167E-03
   maximum displ.:     0.2725354 α      in ANC's #4, #3, #6, ...

........................................................................
.............................. CYCLE   26 ..............................
........................................................................
   1   -130.7814080 -0.130781E+03  0.291E-01    0.20       0.0  T
   2   -130.7813688  0.392269E-04  0.147E-01    0.24       1.0  T
   3   -130.7560868  0.252820E-01  0.386E-01    0.08       1.0  T
   4   -130.7812017 -0.251149E-01  0.551E-02    0.26       1.0  T
   5   -130.7813409 -0.139123E-03  0.393E-02    0.24       1.0  T
   6   -130.7814289 -0.880588E-04  0.265E-02    0.23       1.0  T
   7   -130.7814822 -0.532460E-04  0.129E-02    0.22       1.0  T
   8   -130.7815016 -0.193879E-04  0.738E-03    0.21       1.7  T
   9   -130.7815057 -0.418569E-05  0.414E-03    0.21       3.0  T
  10   -130.7815081 -0.232520E-05  0.106E-03    0.21      11.9  T
  11   -130.7815082 -0.882957E-07  0.331E-04    0.21      38.0  T
     SCC iter.                  ...        0 min,  0.096 sec
     gradient                   ...        0 min,  0.012 sec
 * total energy  :  -129.2615612 Eh     change       -0.4808800E-03 Eh
   gradient norm :     0.0082761 Eh/α   predicted    -0.3674125E-03 ( -23.60%)
   displ. norm   :     0.6271093 α      lambda       -0.5933414E-03
   maximum displ.:     0.3549446 α      in ANC's #4, #3, #6, ...

........................................................................
.............................. CYCLE   27 ..............................
........................................................................
   1   -130.7807848 -0.130781E+03  0.394E-01    0.19       0.0  T
   2   -130.7807259  0.588727E-04  0.198E-01    0.24       1.0  T
   3   -130.6958323  0.848936E-01  0.702E-01    0.06       1.0  T
   4   -130.7804816 -0.846493E-01  0.701E-02    0.28       1.0  T
   5   -130.7806228 -0.141155E-03  0.552E-02    0.26       1.0  T
   6   -130.7807533 -0.130479E-03  0.417E-02    0.25       1.0  T
   7   -130.7808459 -0.925972E-04  0.277E-02    0.24       1.0  T
   8   -130.7809006 -0.547147E-04  0.214E-02    0.23       1.0  T
   9   -130.7809256 -0.250035E-04  0.161E-02    0.22       1.0  T
  10   -130.7809544 -0.288560E-04  0.816E-03    0.21       1.5  T
  11   -130.7809636 -0.918268E-05  0.195E-03    0.21       6.5  T
  12   -130.7809641 -0.439062E-06  0.626E-04    0.20      20.1  T
  13   -130.7809641 -0.230406E-07  0.295E-04    0.20      42.7  T
     SCC iter.                  ...        0 min,  0.114 sec
     gradient                   ...        0 min,  0.012 sec
 * total energy  :  -129.2620588 Eh     change       -0.4975479E-03 Eh
   gradient norm :     0.0093030 Eh/α   predicted    -0.4133417E-03 ( -16.92%)
   displ. norm   :     0.6108025 α      lambda       -0.6164451E-03
   maximum displ.:     0.3644819 α      in ANC's #4, #3, #6, ...

........................................................................
.............................. CYCLE   28 ..............................
........................................................................
   1   -130.7836029 -0.130784E+03  0.335E-01    0.19       0.0  T
   2   -130.7835696  0.333108E-04  0.169E-01    0.23       1.0  T
   3   -130.7500456  0.335240E-01  0.444E-01    0.08       1.0  T
   4   -130.7833638 -0.333182E-01  0.591E-02    0.26       1.0  T
   5   -130.7835191 -0.155227E-03  0.431E-02    0.24       1.0  T
   6   -130.7836315 -0.112460E-03  0.278E-02    0.22       1.0  T
   7   -130.7836775 -0.459604E-04  0.155E-02    0.22       1.0  T
   8   -130.7837032 -0.256903E-04  0.971E-03    0.21       1.3  T
   9   -130.7837116 -0.838976E-05  0.552E-03    0.21       2.3  T
  10   -130.7837157 -0.412690E-05  0.167E-03    0.20       7.5  T
  11   -130.7837160 -0.333946E-06  0.438E-04    0.20      28.8  T
  12   -130.7837160  0.103108E-08  0.332E-04    0.20      37.9  T
     SCC iter.                  ...        0 min,  0.107 sec
     gradient                   ...        0 min,  0.012 sec
 * total energy  :  -129.2625631 Eh     change       -0.5043386E-03 Eh
   gradient norm :     0.0092077 Eh/α   predicted    -0.4232208E-03 ( -16.08%)
   displ. norm   :     0.6962981 α      lambda       -0.6311987E-03
   maximum displ.:     0.4152870 α      in ANC's #4, #3, #6, ...

........................................................................
.............................. CYCLE   29 ..............................
........................................................................
   1   -130.7818605 -0.130782E+03  0.462E-01    0.19       0.0  T
   2   -130.7818541  0.648461E-05  0.228E-01    0.24       1.0  T
   3   -130.6954173  0.864368E-01  0.709E-01    0.06       1.0  T
   4   -130.7816352 -0.862180E-01  0.653E-02    0.27       1.0  T
   5   -130.7817351 -0.998992E-04  0.558E-02    0.25       1.0  T
   6   -130.7818722 -0.137055E-03  0.421E-02    0.24       1.0  T
   7   -130.7819601 -0.879489E-04  0.279E-02    0.23       1.0  T
   8   -130.7820165 -0.564025E-04  0.211E-02    0.22       1.0  T
   9   -130.7820433 -0.267511E-04  0.155E-02    0.22       1.0  T
  10   -130.7820708 -0.274752E-04  0.780E-03    0.21       1.6  T
  11   -130.7820789 -0.810913E-05  0.194E-03    0.20       6.5  T
  12   -130.7820793 -0.466736E-06  0.620E-04    0.20      20.3  T
  13   -130.7820794 -0.212732E-07  0.426E-04    0.20      29.6  T
     SCC iter.                  ...        0 min,  0.115 sec
     gradient                   ...        0 min,  0.012 sec
 * total energy  :  -129.2629920 Eh     change       -0.4288574E-03 Eh
   gradient norm :     0.0116677 Eh/α   predicted    -0.4686120E-03 (   9.27%)
   displ. norm   :     0.4912119 α      lambda       -0.6783739E-03
   maximum displ.:     0.3149729 α      in ANC's #4, #3, #6, ...

........................................................................
.............................. CYCLE   30 ..............................
........................................................................
   1   -130.7876436 -0.130788E+03  0.237E-01    0.20       0.0  T
   2   -130.7876800 -0.363651E-04  0.117E-01    0.20       1.0  T
   3   -130.7876136  0.664167E-04  0.359E-02    0.19       1.0  T
   4   -130.7876427 -0.291690E-04  0.252E-02    0.21       1.0  T
   5   -130.7876096  0.330798E-04  0.239E-02    0.18       1.0  T
   6   -130.7876763 -0.666274E-04  0.122E-02    0.21       1.0  T
   7   -130.7876933 -0.170184E-04  0.302E-03    0.20       4.2  T
   8   -130.7876939 -0.650504E-06  0.147E-03    0.20       8.6  T
   9   -130.7876940 -0.731265E-07  0.814E-04    0.20      15.5  T
     SCC iter.                  ...        0 min,  0.086 sec
     gradient                   ...        0 min,  0.013 sec
 * total energy  :  -129.2634145 Eh     change       -0.4225175E-03 Eh
   gradient norm :     0.0067894 Eh/α   predicted    -0.4210294E-03 (  -0.35%)
   displ. norm   :     0.6586254 α      lambda       -0.4474216E-03
   maximum displ.:     0.4032747 α      in ANC's #4, #3, #6, ...

........................................................................
.............................. CYCLE   31 ..............................
........................................................................
   1   -130.7827922 -0.130783E+03  0.376E-01    0.19       0.0  T
   2   -130.7828387 -0.465708E-04  0.186E-01    0.21       1.0  T
   3   -130.7744523  0.838646E-02  0.226E-01    0.11       1.0  T
   4   -130.7827349 -0.828257E-02  0.424E-02    0.23       1.0  T
   5   -130.7828392 -0.104309E-03  0.286E-02    0.21       1.0  T
   6   -130.7828851 -0.459728E-04  0.157E-02    0.21       1.0  T
   7   -130.7828992 -0.140791E-04  0.809E-03    0.21       1.6  T
   8   -130.7829067 -0.750060E-05  0.382E-03    0.20       3.3  T
   9   -130.7829083 -0.162251E-05  0.139E-03    0.20       9.1  T
  10   -130.7829085 -0.142600E-06  0.623E-04    0.20      20.2  T
     SCC iter.                  ...        0 min,  0.088 sec
     gradient                   ...        0 min,  0.012 sec
 * total energy  :  -129.2637403 Eh     change       -0.3257714E-03 Eh
   gradient norm :     0.0067886 Eh/α   predicted    -0.3207572E-03 (  -1.54%)
   displ. norm   :     0.4944359 α      lambda       -0.3263284E-03
   maximum displ.:     0.3229739 α      in ANC's #4, #3, #6, ...

........................................................................
.............................. CYCLE   32 ..............................
........................................................................
   1   -130.7838395 -0.130784E+03  0.264E-01    0.19       0.0  T
   2   -130.7838628 -0.233172E-04  0.131E-01    0.21       1.0  T
   3   -130.7817170  0.214581E-02  0.118E-01    0.14       1.0  T
   4   -130.7838238 -0.210680E-02  0.271E-02    0.22       1.0  T
   5   -130.7838657 -0.419573E-04  0.198E-02    0.20       1.0  T
   6   -130.7838872 -0.214582E-04  0.801E-03    0.20       1.6  T
   7   -130.7838925 -0.529969E-05  0.269E-03    0.20       4.7  T
   8   -130.7838929 -0.456893E-06  0.137E-03    0.20       9.2  T
   9   -130.7838931 -0.135249E-06  0.564E-04    0.20      22.3  T
     SCC iter.                  ...        0 min,  0.080 sec
     gradient                   ...        0 min,  0.012 sec
 * total energy  :  -129.2639929 Eh     change       -0.2526587E-03 Eh
   gradient norm :     0.0067341 Eh/α   predicted    -0.2030572E-03 ( -19.63%)
   displ. norm   :     0.5050551 α      lambda       -0.3432800E-03
   maximum displ.:     0.3314844 α      in ANC's #4, #3, #6, ...

........................................................................
.............................. CYCLE   33 ..............................
........................................................................
   1   -130.7854390 -0.130785E+03  0.232E-01    0.19       0.0  T
   2   -130.7854584 -0.194329E-04  0.116E-01    0.21       1.0  T
   3   -130.7840157  0.144275E-02  0.961E-02    0.15       1.0  T
   4   -130.7853920 -0.137630E-02  0.300E-02    0.22       1.0  T
   5   -130.7854639 -0.719130E-04  0.160E-02    0.20       1.0  T
   6   -130.7854775 -0.136526E-04  0.785E-03    0.20       1.6  T
   7   -130.7854810 -0.347634E-05  0.343E-03    0.20       3.7  T
   8   -130.7854821 -0.108381E-05  0.159E-03    0.20       7.9  T
   9   -130.7854822 -0.152229E-06  0.649E-04    0.20      19.4  T
     SCC iter.                  ...        0 min,  0.079 sec
     gradient                   ...        0 min,  0.012 sec
 * total energy  :  -129.2642543 Eh     change       -0.2613607E-03 Eh
   gradient norm :     0.0052386 Eh/α   predicted    -0.2154242E-03 ( -17.58%)
   displ. norm   :     0.5919690 α      lambda       -0.3087340E-03
   maximum displ.:     0.3883705 α      in ANC's #4, #3, #5, ...

........................................................................
.............................. CYCLE   34 ..............................
........................................................................
   1   -130.7862049 -0.130786E+03  0.287E-01    0.19       0.0  T
   2   -130.7862250 -0.200413E-04  0.143E-01    0.21       1.0  T
   3   -130.7817720  0.445291E-02  0.165E-01    0.12       1.0  T
   4   -130.7861711 -0.439902E-02  0.325E-02    0.22       1.0  T
   5   -130.7862205 -0.494603E-04  0.217E-02    0.21       1.0  T
   6   -130.7862583 -0.377263E-04  0.102E-02    0.20       1.2  T
   7   -130.7862643 -0.602006E-05  0.484E-03    0.20       2.6  T
   8   -130.7862667 -0.244184E-05  0.226E-03    0.20       5.6  T
   9   -130.7862673 -0.606724E-06  0.597E-04    0.20      21.1  T
     SCC iter.                  ...        0 min,  0.081 sec
     gradient                   ...        0 min,  0.012 sec
 * total energy  :  -129.2645168 Eh     change       -0.2625568E-03 Eh
   gradient norm :     0.0051962 Eh/α   predicted    -0.2084630E-03 ( -20.60%)
   displ. norm   :     0.5812378 α      lambda       -0.3114574E-03
   maximum displ.:     0.3781177 α      in ANC's #4, #3, #5, ...

........................................................................
.............................. CYCLE   35 ..............................
........................................................................
   1   -130.7874375 -0.130787E+03  0.251E-01    0.19       0.0  T
   2   -130.7874500 -0.124414E-04  0.127E-01    0.21       1.0  T
   3   -130.7843134  0.313655E-02  0.139E-01    0.13       1.0  T
   4   -130.7874092 -0.309583E-02  0.288E-02    0.22       1.0  T
   5   -130.7874399 -0.306816E-04  0.213E-02    0.20       1.0  T
   6   -130.7874753 -0.353852E-04  0.101E-02    0.20       1.2  T
   7   -130.7874814 -0.610620E-05  0.353E-03    0.20       3.6  T
   8   -130.7874830 -0.154963E-05  0.148E-03    0.20       8.5  T
   9   -130.7874831 -0.162741E-06  0.517E-04    0.20      24.4  T
     SCC iter.                  ...        0 min,  0.080 sec
     gradient                   ...        0 min,  0.012 sec
 * total energy  :  -129.2647839 Eh     change       -0.2671174E-03 Eh
   gradient norm :     0.0053223 Eh/α   predicted    -0.2083411E-03 ( -22.00%)
   displ. norm   :     0.6336972 α      lambda       -0.3357116E-03
   maximum displ.:     0.4070698 α      in ANC's #4, #3, #5, ...

........................................................................
.............................. CYCLE   36 ..............................
........................................................................
   1   -130.7867013 -0.130787E+03  0.270E-01    0.19       0.0  T
   2   -130.7867038 -0.249118E-05  0.137E-01    0.21       1.0  T
   3   -130.7792521  0.745177E-02  0.214E-01    0.11       1.0  T
   4   -130.7866257 -0.737368E-02  0.359E-02    0.23       1.0  T
   5   -130.7867190 -0.932775E-04  0.212E-02    0.21       1.0  T
   6   -130.7867442 -0.251293E-04  0.124E-02    0.20       1.0  T
   7   -130.7867546 -0.104862E-04  0.513E-03    0.20       2.5  T
   8   -130.7867580 -0.332442E-05  0.212E-03    0.20       5.9  T
   9   -130.7867583 -0.318040E-06  0.776E-04    0.20      16.2  T
  10   -130.7867583 -0.224083E-07  0.464E-04    0.20      27.2  T
     SCC iter.                  ...        0 min,  0.088 sec
     gradient                   ...        0 min,  0.012 sec
 * total energy  :  -129.2650667 Eh     change       -0.2827735E-03 Eh
   gradient norm :     0.0054988 Eh/α   predicted    -0.2352678E-03 ( -16.80%)
   displ. norm   :     0.6548396 α      lambda       -0.3462640E-03
   maximum displ.:     0.4082390 α      in ANC's #4, #3, #5, ...

........................................................................
.............................. CYCLE   37 ..............................
........................................................................
   1   -130.7881458 -0.130788E+03  0.255E-01    0.20       0.0  T
   2   -130.7881786 -0.327686E-04  0.128E-01    0.20       1.0  T
   3   -130.7879761  0.202533E-03  0.462E-02    0.18       1.0  T
   4   -130.7880757 -0.995886E-04  0.327E-02    0.22       1.0  T
   5   -130.7881104 -0.347205E-04  0.275E-02    0.18       1.0  T
   6   -130.7881865 -0.761480E-04  0.920E-03    0.20       1.4  T
   7   -130.7881931 -0.660120E-05  0.228E-03    0.20       5.5  T
   8   -130.7881937 -0.532818E-06  0.998E-04    0.20      12.6  T
   9   -130.7881937 -0.182704E-07  0.684E-04    0.20      18.4  T
     SCC iter.                  ...        0 min,  0.080 sec
     gradient                   ...        0 min,  0.012 sec
 * total energy  :  -129.2653634 Eh     change       -0.2966843E-03 Eh
   gradient norm :     0.0069387 Eh/α   predicted    -0.2473779E-03 ( -16.62%)
   displ. norm   :     0.7065682 α      lambda       -0.3691787E-03
   maximum displ.:     0.4393803 α      in ANC's #4, #3, #5, ...

........................................................................
.............................. CYCLE   38 ..............................
........................................................................
   1   -130.7860177 -0.130786E+03  0.285E-01    0.20       0.0  T
   2   -130.7860363 -0.185982E-04  0.143E-01    0.21       1.0  T
   3   -130.7823408  0.369553E-02  0.151E-01    0.13       1.0  T
   4   -130.7859470 -0.360620E-02  0.388E-02    0.23       1.0  T
   5   -130.7859993 -0.523735E-04  0.317E-02    0.21       1.0  T
   6   -130.7860724 -0.730195E-04  0.103E-02    0.20       1.2  T
   7   -130.7860779 -0.551086E-05  0.420E-03    0.20       3.0  T
   8   -130.7860800 -0.213032E-05  0.186E-03    0.20       6.8  T
   9   -130.7860803 -0.275649E-06  0.642E-04    0.20      19.6  T
     SCC iter.                  ...        0 min,  0.080 sec
     gradient                   ...        0 min,  0.012 sec
 * total energy  :  -129.2656676 Eh     change       -0.3041802E-03 Eh
   gradient norm :     0.0061827 Eh/α   predicted    -0.2767441E-03 (  -9.02%)
   displ. norm   :     0.6967254 α      lambda       -0.4127987E-03
   maximum displ.:     0.4052519 α      in ANC's #3, #4, #5, ...

........................................................................
.............................. CYCLE   39 ..............................
........................................................................
   1   -130.7888326 -0.130789E+03  0.252E-01    0.20       0.0  T
   2   -130.7888713 -0.387408E-04  0.126E-01    0.20       1.0  T
   3   -130.7887807  0.905989E-04  0.411E-02    0.20       1.0  T
   4   -130.7888485 -0.677941E-04  0.275E-02    0.20       1.0  T
   5   -130.7888690 -0.204467E-04  0.167E-02    0.20       1.0  T
   6   -130.7888860 -0.170294E-04  0.415E-03    0.20       3.0  T
   7   -130.7888859  0.422296E-07  0.361E-03    0.20       3.5  T
   8   -130.7888875 -0.158488E-05  0.174E-03    0.20       7.2  T
   9   -130.7888877 -0.207434E-06  0.825E-04    0.20      15.3  T
     SCC iter.                  ...        0 min,  0.080 sec
     gradient                   ...        0 min,  0.012 sec
 * total energy  :  -129.2659863 Eh     change       -0.3187636E-03 Eh
   gradient norm :     0.0072847 Eh/α   predicted    -0.3065958E-03 (  -3.82%)
   displ. norm   :     0.7322298 α      lambda       -0.3908424E-03
   maximum displ.:     0.4411059 α      in ANC's #4, #3, #5, ...

........................................................................
.............................. CYCLE   40 ..............................
........................................................................
   1   -130.7861007 -0.130786E+03  0.289E-01    0.20       0.0  T
   2   -130.7861180 -0.173460E-04  0.143E-01    0.20       1.0  T
   3   -130.7851145  0.100359E-02  0.114E-01    0.18       1.0  T
   4   -130.7861563 -0.104181E-02  0.241E-02    0.21       1.0  T
   5   -130.7859386  0.217672E-03  0.410E-02    0.18       1.0  T
   6   -130.7861537 -0.215112E-03  0.155E-02    0.21       1.0  T
   7   -130.7861797 -0.260326E-04  0.241E-03    0.20       5.2  T
   8   -130.7861800 -0.283012E-06  0.139E-03    0.20       9.0  T
   9   -130.7861802 -0.177809E-06  0.567E-04    0.20      22.2  T
     SCC iter.                  ...        0 min,  0.080 sec
     gradient                   ...        0 min,  0.012 sec
 * total energy  :  -129.2662967 Eh     change       -0.3103843E-03 Eh
   gradient norm :     0.0073694 Eh/α   predicted    -0.3001997E-03 (  -3.28%)
   displ. norm   :     0.6465902 α      lambda       -0.4005856E-03
   maximum displ.:     0.3660760 α      in ANC's #4, #3, #5, ...

........................................................................
.............................. CYCLE   41 ..............................
........................................................................
   1   -130.7881789 -0.130788E+03  0.258E-01    0.20       0.0  T
   2   -130.7882106 -0.316610E-04  0.127E-01    0.21       1.0  T
   3   -130.7865007  0.170981E-02  0.107E-01    0.15       1.0  T
   4   -130.7880379 -0.153711E-02  0.442E-02    0.24       1.0  T
   5   -130.7882155 -0.177672E-03  0.217E-02    0.21       1.0  T
   6   -130.7882292 -0.136499E-04  0.158E-02    0.20       1.0  T
   7   -130.7882470 -0.178356E-04  0.286E-03    0.20       4.4  T
   8   -130.7882475 -0.441464E-06  0.138E-03    0.20       9.1  T
   9   -130.7882476 -0.113637E-06  0.715E-04    0.20      17.6  T
     SCC iter.                  ...        0 min,  0.077 sec
     gradient                   ...        0 min,  0.012 sec
 * total energy  :  -129.2666102 Eh     change       -0.3134556E-03 Eh
   gradient norm :     0.0065468 Eh/α   predicted    -0.2840351E-03 (  -9.39%)
   displ. norm   :     0.7335232 α      lambda       -0.4186434E-03
   maximum displ.:     0.4366539 α      in ANC's #4, #3, #5, ...

........................................................................
.............................. CYCLE   42 ..............................
........................................................................
   1   -130.7856730 -0.130786E+03  0.291E-01    0.19       0.0  T
   2   -130.7856347  0.382591E-04  0.147E-01    0.23       1.0  T
   3   -130.7553875  0.302472E-01  0.422E-01    0.08       1.0  T
   4   -130.7854597 -0.300722E-01  0.600E-02    0.24       1.0  T
   5   -130.7855819 -0.122171E-03  0.410E-02    0.23       1.0  T
   6   -130.7856906 -0.108749E-03  0.268E-02    0.22       1.0  T
   7   -130.7857433 -0.526379E-04  0.136E-02    0.21       1.0  T
   8   -130.7857595 -0.162639E-04  0.882E-03    0.21       1.4  T
   9   -130.7857678 -0.830752E-05  0.442E-03    0.21       2.8  T
  10   -130.7857705 -0.269614E-05  0.835E-04    0.20      15.1  T
  11   -130.7857705  0.104416E-07  0.700E-04    0.20      18.0  T
     SCC iter.                  ...        0 min,  0.095 sec
     gradient                   ...        0 min,  0.012 sec
 * total energy  :  -129.2669301 Eh     change       -0.3199346E-03 Eh
   gradient norm :     0.0081139 Eh/α   predicted    -0.3219557E-03 (   0.63%)
   displ. norm   :     0.5918899 α      lambda       -0.4639581E-03
   maximum displ.:     0.3142958 α      in ANC's #4, #3, #2, ...
 * RMSD in coord.:     1.3758649 α      energy gain  -0.6994308E-02 Eh

generating ANC from model Hessian ...
Using Lindh-Hessian (1995)
 Shifting diagonal of input Hessian by   4.958409635867111E-003
 Lowest  eigenvalues of input Hessian
   -0.000000   -0.000000    0.000000    0.000000    0.000000    0.000000
    0.005000    0.005019    0.005073    0.005148    0.005237    0.005419
    0.005745    0.005774    0.006224    0.006548    0.006643    0.007270
 Highest eigenvalues
    2.048150    2.056187    2.068663    2.137617    2.276344    2.683708
 

........................................................................
.............................. CYCLE   43 ..............................
........................................................................
   1   -130.7909246 -0.130791E+03  0.276E-01    0.20       0.0  T
   2   -130.7909839 -0.593424E-04  0.132E-01    0.21       1.0  T
   3   -130.7900983  0.885620E-03  0.851E-02    0.16       1.0  T
   4   -130.7908571 -0.758873E-03  0.385E-02    0.23       1.0  T
   5   -130.7910078 -0.150663E-03  0.162E-02    0.20       1.0  T
   6   -130.7910132 -0.537993E-05  0.598E-03    0.21       2.1  T
   7   -130.7910171 -0.390371E-05  0.286E-03    0.20       4.4  T
   8   -130.7910175 -0.381517E-06  0.181E-03    0.20       7.0  T
   9   -130.7910176 -0.118961E-06  0.941E-04    0.20      13.4  T
  10   -130.7910176 -0.173071E-07  0.481E-04    0.20      26.2  T
     SCC iter.                  ...        0 min,  0.087 sec
     gradient                   ...        0 min,  0.012 sec
 * total energy  :  -129.2672230 Eh     change       -0.2929034E-03 Eh
   gradient norm :     0.0093614 Eh/α   predicted     0.0000000E+00 (-100.00%)
   displ. norm   :     0.1340893 α      lambda       -0.2893859E-03
   maximum displ.:     0.0612905 α      in ANC's #2, #3, #13, ...

........................................................................
.............................. CYCLE   44 ..............................
........................................................................
   1   -130.7902992 -0.130790E+03  0.118E-01    0.20       0.0  T
   2   -130.7903023 -0.313315E-05  0.576E-02    0.21       1.0  T
   3   -130.7898419  0.460374E-03  0.546E-02    0.17       1.0  T
   4   -130.7902614 -0.419498E-03  0.214E-02    0.22       1.0  T
   5   -130.7903107 -0.492737E-04  0.939E-03    0.21       1.3  T
   6   -130.7903143 -0.364689E-05  0.573E-03    0.20       2.2  T
   7   -130.7903152 -0.852419E-06  0.250E-03    0.20       5.0  T
   8   -130.7903158 -0.646214E-06  0.940E-04    0.20      13.4  T
     SCC iter.                  ...        0 min,  0.069 sec
     gradient                   ...        0 min,  0.012 sec
 * total energy  :  -129.2674408 Eh     change       -0.2177775E-03 Eh
   gradient norm :     0.0042774 Eh/α   predicted    -0.1473728E-03 ( -32.33%)
   displ. norm   :     0.1661852 α      lambda       -0.2255851E-03
   maximum displ.:     0.0562531 α      in ANC's #2, #3, #13, ...

........................................................................
.............................. CYCLE   45 ..............................
........................................................................
   1   -130.7894814 -0.130789E+03  0.180E-01    0.20       0.0  T
   2   -130.7894945 -0.131091E-04  0.864E-02    0.21       1.0  T
   3   -130.7889544  0.540132E-03  0.590E-02    0.17       1.0  T
   4   -130.7894273 -0.472952E-03  0.268E-02    0.22       1.0  T
   5   -130.7895061 -0.787508E-04  0.108E-02    0.21       1.2  T
   6   -130.7895101 -0.409508E-05  0.762E-03    0.21       1.7  T
   7   -130.7895119 -0.174461E-05  0.340E-03    0.20       3.7  T
   8   -130.7895130 -0.106855E-05  0.125E-03    0.20      10.1  T
   9   -130.7895131 -0.922298E-07  0.593E-04    0.20      21.3  T
     SCC iter.                  ...        0 min,  0.077 sec
     gradient                   ...        0 min,  0.012 sec
 * total energy  :  -129.2675914 Eh     change       -0.1506202E-03 Eh
   gradient norm :     0.0038382 Eh/α   predicted    -0.1159086E-03 ( -23.05%)
   displ. norm   :     0.2151132 α      lambda       -0.1724945E-03
   maximum displ.:     0.0811260 α      in ANC's #3, #2, #13, ...

........................................................................
.............................. CYCLE   46 ..............................
........................................................................
   1   -130.7886030 -0.130789E+03  0.233E-01    0.20       0.0  T
   2   -130.7886215 -0.185383E-04  0.111E-01    0.21       1.0  T
   3   -130.7873675  0.125406E-02  0.893E-02    0.16       1.0  T
   4   -130.7886025 -0.123504E-02  0.218E-02    0.22       1.0  T
   5   -130.7886355 -0.330119E-04  0.125E-02    0.21       1.0  T
   6   -130.7886415 -0.601737E-05  0.911E-03    0.20       1.4  T
   7   -130.7886465 -0.497033E-05  0.241E-03    0.20       5.2  T
   8   -130.7886468 -0.333236E-06  0.119E-03    0.21      10.6  T
   9   -130.7886469 -0.585332E-07  0.585E-04    0.21      21.6  T
  10   -130.7886469 -0.234450E-07  0.297E-04    0.21      42.4  T
     SCC iter.                  ...        0 min,  0.086 sec
     gradient                   ...        0 min,  0.012 sec
 * total energy  :  -129.2677002 Eh     change       -0.1087989E-03 Eh
   gradient norm :     0.0068340 Eh/α   predicted    -0.9023855E-04 ( -17.06%)
   displ. norm   :     0.2151951 α      lambda        0.6430820E-04
   maximum displ.:     0.0811216 α      in ANC's #3, #2, #13, ...

........................................................................
.............................. CYCLE   47 ..............................
........................................................................
   1   -130.7868463 -0.130787E+03  0.232E-01    0.20       0.0  T
   2   -130.7868583 -0.119460E-04  0.111E-01    0.22       1.0  T
   3   -130.7845750  0.228324E-02  0.119E-01    0.15       1.0  T
   4   -130.7868438 -0.226879E-02  0.228E-02    0.22       1.0  T
   5   -130.7868764 -0.325409E-04  0.136E-02    0.21       1.0  T
   6   -130.7868868 -0.104268E-04  0.933E-03    0.21       1.4  T
   7   -130.7868916 -0.483784E-05  0.277E-03    0.20       4.5  T
   8   -130.7868920 -0.389133E-06  0.146E-03    0.21       8.6  T
   9   -130.7868921 -0.100318E-06  0.733E-04    0.21      17.2  T
     SCC iter.                  ...        0 min,  0.077 sec
     gradient                   ...        0 min,  0.012 sec
 * total energy  :  -129.2676501 Eh     change        0.5012030E-04 Eh
   gradient norm :     0.0126160 Eh/α   predicted     0.3364241E-04 ( -32.88%)
   displ. norm   :     0.0575773 α      lambda       -0.2596166E-03
   maximum displ.:     0.0164651 α      in ANC's #19, #22, #29, ...

........................................................................
.............................. CYCLE   48 ..............................
........................................................................
   1   -130.7885168 -0.130789E+03  0.828E-02    0.21       0.0  T
   2   -130.7885176 -0.800166E-06  0.415E-02    0.20       1.0  T
   3   -130.7883909  0.126717E-03  0.305E-02    0.23       1.0  T
   4   -130.7885025 -0.111603E-03  0.142E-02    0.20       1.0  T
   5   -130.7885235 -0.210030E-04  0.653E-03    0.21       1.9  T
   6   -130.7885239 -0.467850E-06  0.522E-03    0.21       2.4  T
   7   -130.7885256 -0.165963E-05  0.164E-03    0.21       7.7  T
   8   -130.7885257 -0.122846E-06  0.746E-04    0.21      16.9  T
     SCC iter.                  ...        0 min,  0.069 sec
     gradient                   ...        0 min,  0.012 sec
 * total energy  :  -129.2678170 Eh     change       -0.1668584E-03 Eh
   gradient norm :     0.0067572 Eh/α   predicted    -0.1302391E-03 ( -21.95%)
   displ. norm   :     0.1380454 α      lambda       -0.1845473E-03
   maximum displ.:     0.0720056 α      in ANC's #3, #2, #1, ...

........................................................................
.............................. CYCLE   49 ..............................
........................................................................
   1   -130.7899408 -0.130790E+03  0.667E-02    0.21       0.0  T
   2   -130.7899443 -0.345781E-05  0.342E-02    0.21       1.0  T
   3   -130.7899136  0.306749E-04  0.218E-02    0.20       1.0  T
   4   -130.7899384 -0.247933E-04  0.110E-02    0.21       1.1  T
   5   -130.7899407 -0.230251E-05  0.848E-03    0.20       1.5  T
   6   -130.7899454 -0.474709E-05  0.470E-03    0.21       2.7  T
   7   -130.7899486 -0.312677E-05  0.170E-03    0.21       7.4  T
   8   -130.7899487 -0.128120E-06  0.103E-03    0.21      12.2  T
   9   -130.7899487 -0.480344E-07  0.514E-04    0.21      24.5  T
     SCC iter.                  ...        0 min,  0.078 sec
     gradient                   ...        0 min,  0.012 sec
 * total energy  :  -129.2679469 Eh     change       -0.1299636E-03 Eh
   gradient norm :     0.0025262 Eh/α   predicted    -0.9403790E-04 ( -27.64%)
   displ. norm   :     0.3351963 α      lambda       -0.2070374E-03
   maximum displ.:     0.1686777 α      in ANC's #3, #2, #10, ...

........................................................................
.............................. CYCLE   50 ..............................
........................................................................
   1   -130.7896672 -0.130790E+03  0.228E-01    0.20       0.0  T
   2   -130.7896864 -0.191956E-04  0.112E-01    0.21       1.0  T
   3   -130.7886051  0.108131E-02  0.874E-02    0.16       1.0  T
   4   -130.7896459 -0.104081E-02  0.253E-02    0.22       1.0  T
   5   -130.7897043 -0.583215E-04  0.128E-02    0.21       1.0  T
   6   -130.7897048 -0.567603E-06  0.870E-03    0.21       1.4  T
   7   -130.7897104 -0.562476E-05  0.229E-03    0.21       5.5  T
   8   -130.7897108 -0.333445E-06  0.101E-03    0.21      12.5  T
   9   -130.7897108 -0.348145E-07  0.503E-04    0.21      25.0  T
  10   -130.7897108 -0.178940E-08  0.316E-04    0.21      39.9  T
     SCC iter.                  ...        0 min,  0.088 sec
     gradient                   ...        0 min,  0.012 sec
 * total energy  :  -129.2681195 Eh     change       -0.1726216E-03 Eh
   gradient norm :     0.0041723 Eh/α   predicted    -0.1151505E-03 ( -33.29%)
   displ. norm   :     0.5413437 α      lambda       -0.2939026E-03
   maximum displ.:     0.2753072 α      in ANC's #3, #2, #1, ...

........................................................................
.............................. CYCLE   51 ..............................
........................................................................
   1   -130.7871486 -0.130787E+03  0.402E-01    0.21       0.0  T
   2   -130.7872168 -0.681906E-04  0.194E-01    0.22       1.0  T
   3   -130.7835649  0.365194E-02  0.154E-01    0.14       1.0  T
   4   -130.7871298 -0.356490E-02  0.406E-02    0.24       1.0  T
   5   -130.7872242 -0.943900E-04  0.284E-02    0.22       1.0  T
   6   -130.7872596 -0.354554E-04  0.165E-02    0.21       1.0  T
   7   -130.7872770 -0.174221E-04  0.396E-03    0.21       3.2  T
   8   -130.7872787 -0.163939E-05  0.178E-03    0.21       7.1  T
   9   -130.7872788 -0.152607E-06  0.719E-04    0.21      17.5  T
     SCC iter.                  ...        0 min,  0.077 sec
     gradient                   ...        0 min,  0.012 sec
 * total energy  :  -129.2683603 Eh     change       -0.2407208E-03 Eh
   gradient norm :     0.0058019 Eh/α   predicted    -0.1900177E-03 ( -21.06%)
   displ. norm   :     0.5338017 α      lambda       -0.2700622E-03
   maximum displ.:     0.2923280 α      in ANC's #3, #2, #1, ...

........................................................................
.............................. CYCLE   52 ..............................
........................................................................
   1   -130.7855724 -0.130786E+03  0.332E-01    0.21       0.0  T
   2   -130.7856325 -0.601780E-04  0.162E-01    0.22       1.0  T
   3   -130.7850262  0.606303E-03  0.695E-02    0.18       1.0  T
   4   -130.7855176 -0.491325E-03  0.372E-02    0.24       1.0  T
   5   -130.7856218 -0.104243E-03  0.259E-02    0.21       1.0  T
   6   -130.7856517 -0.299310E-04  0.124E-02    0.21       1.0  T
   7   -130.7856624 -0.106858E-04  0.265E-03    0.21       4.8  T
   8   -130.7856630 -0.573029E-06  0.121E-03    0.21      10.4  T
   9   -130.7856630 -0.269074E-07  0.701E-04    0.21      18.0  T
     SCC iter.                  ...        0 min,  0.077 sec
     gradient                   ...        0 min,  0.012 sec
 * total energy  :  -129.2685769 Eh     change       -0.2166398E-03 Eh
   gradient norm :     0.0067148 Eh/α   predicted    -0.1735121E-03 ( -19.91%)
   displ. norm   :     0.4366248 α      lambda       -0.2784939E-03
   maximum displ.:     0.2604229 α      in ANC's #3, #2, #1, ...

........................................................................
.............................. CYCLE   53 ..............................
........................................................................
   1   -130.7875416 -0.130788E+03  0.219E-01    0.21       0.0  T
   2   -130.7875698 -0.281157E-04  0.109E-01    0.21       1.0  T
   3   -130.7874863  0.834320E-04  0.385E-02    0.21       1.0  T
   4   -130.7875607 -0.743523E-04  0.211E-02    0.21       1.0  T
   5   -130.7875693 -0.858660E-05  0.123E-02    0.21       1.0  T
   6   -130.7875783 -0.905719E-05  0.518E-03    0.22       2.4  T
   7   -130.7875816 -0.326769E-05  0.268E-03    0.21       4.7  T
   8   -130.7875822 -0.608519E-06  0.121E-03    0.21      10.4  T
   9   -130.7875822 -0.486806E-07  0.608E-04    0.21      20.7  T
     SCC iter.                  ...        0 min,  0.077 sec
     gradient                   ...        0 min,  0.012 sec
 * total energy  :  -129.2688044 Eh     change       -0.2274937E-03 Eh
   gradient norm :     0.0050895 Eh/α   predicted    -0.1657933E-03 ( -27.12%)
   displ. norm   :     0.5563346 α      lambda       -0.3257051E-03
   maximum displ.:     0.3378722 α      in ANC's #3, #2, #1, ...

........................................................................
.............................. CYCLE   54 ..............................
........................................................................
   1   -130.7892396 -0.130789E+03  0.317E-01    0.21       0.0  T
   2   -130.7892964 -0.567366E-04  0.155E-01    0.22       1.0  T
[...]

   *** convergence criteria satisfied after 3 iterations ***

         #    Occupation            Energy/Eh            Energy/eV
      -------------------------------------------------------------
         1        2.0000           -0.7799431             -21.2233
       ...           ...                  ...                  ...
       110        2.0000           -0.3981706             -10.8348
       111        2.0000           -0.3920796             -10.6690
       112        2.0000           -0.3888228             -10.5804
       113        2.0000           -0.3845985             -10.4655
       114        2.0000           -0.3832357             -10.4284
       115        2.0000           -0.3681156             -10.0169
       116        1.9811           -0.3416861              -9.2978 (HOMO)
       117        0.0189           -0.3328455              -9.0572 (LUMO)
       118                         -0.3133073              -8.5255
       119                         -0.3022778              -8.2254
       120                         -0.2804523              -7.6315
       121                         -0.2601667              -7.0795
       ...                                ...                  ...
       246                          0.7112699              19.3546
      -------------------------------------------------------------
                  HL-Gap            0.0088406 Eh            0.2406 eV
             Fermi-level           -0.3372658 Eh           -9.1775 eV

 SCC (total)                   0 d,  0 h,  0 min,  0.057 sec
 SCC setup                      ...        0 min,  0.001 sec (  2.196%)
 Dispersion                     ...        0 min,  0.002 sec (  3.409%)
 integral evaluation            ...        0 min,  0.013 sec ( 22.610%)
 zeroth order Hamiltonian       ...        0 min,  0.001 sec (  1.570%)
 iterations                     ...        0 min,  0.027 sec ( 47.070%)
 molecular gradient             ...        0 min,  0.012 sec ( 21.326%)
 printout                       ...        0 min,  0.001 sec (  1.539%)

         :::::::::::::::::::::::::::::::::::::::::::::::::::::
         ::                     SUMMARY                     ::
         :::::::::::::::::::::::::::::::::::::::::::::::::::::
         :: total energy            -129.279165395472 Eh    ::
         :: gradient norm              0.000718308169 Eh/a0 ::
         :: HOMO-LUMO gap              0.240564504217 eV    ::
         ::.................................................::
         :: SCC energy              -130.802000872165 Eh    ::
         :: -> isotropic ES            0.121490198243 Eh    ::
         :: -> anisotropic ES          0.012299633402 Eh    ::
         :: -> anisotropic XC          0.024915295053 Eh    ::
         :: -> dispersion             -0.103728446950 Eh    ::
         :: repulsion energy           1.524384604813 Eh    ::
         :: add. restraining           0.000000000000 Eh    ::
         :::::::::::::::::::::::::::::::::::::::::::::::::::::

           -------------------------------------------------
          |                Property Printout                |
           -------------------------------------------------

    * Orbital Energies and Occupations

         #    Occupation            Energy/Eh            Energy/eV
      -------------------------------------------------------------
         1        2.0000           -0.7799431             -21.2233
       ...           ...                  ...                  ...
       104        2.0000           -0.4278436             -11.6422
       105        2.0000           -0.4221947             -11.4885
       106        2.0000           -0.4178753             -11.3710
       107        2.0000           -0.4099464             -11.1552
       108        2.0000           -0.4056878             -11.0393
       109        2.0000           -0.4042568             -11.0004
       110        2.0000           -0.3981706             -10.8348
       111        2.0000           -0.3920796             -10.6690
       112        2.0000           -0.3888228             -10.5804
       113        2.0000           -0.3845985             -10.4655
       114        2.0000           -0.3832357             -10.4284
       115        2.0000           -0.3681156             -10.0169
       116        1.9811           -0.3416861              -9.2978 (HOMO)
       117        0.0189           -0.3328455              -9.0572 (LUMO)
       118                         -0.3133073              -8.5255
       119                         -0.3022778              -8.2254
       120                         -0.2804523              -7.6315
       121                         -0.2601667              -7.0795
       122                         -0.2494984              -6.7892
       123                         -0.2444517              -6.6519
       124                         -0.2397474              -6.5239
       125                         -0.2345052              -6.3812
       126                         -0.2305873              -6.2746
       127                         -0.2250715              -6.1245
       ...                                ...                  ...
       246                          0.7112699              19.3546
      -------------------------------------------------------------
                  HL-Gap            0.0088406 Eh            0.2406 eV
             Fermi-level           -0.3372658 Eh           -9.1775 eV

     #   Z        covCN         q      C6AA      α(0)
     1   6 C      2.878    -0.102    30.578     9.065
     2   6 C      2.969     0.052    26.832     8.497
     3   6 C      3.048    -0.042    28.998     8.832
     4   6 C      3.051    -0.034    28.802     8.802
     5   6 C      3.019     0.028    27.352     8.579
     6  16 S      2.295    -0.078   144.299    20.218
     7   6 C      3.024     0.022    27.498     8.602
     8   6 C      3.053    -0.040    28.933     8.821
     9   6 C      3.072    -0.041    28.947     8.822
    10   6 C      2.975     0.039    27.117     8.542
    11  16 S      2.311    -0.034   142.452    20.088
    12   6 C      2.970    -0.045    29.122     8.852
    13   6 C      2.978    -0.000    28.025     8.684
    14  16 S      2.367    -0.009   141.434    20.016
    15   6 C      3.020     0.020    27.547     8.609
    16   6 C      3.143    -0.008    27.973     8.654
    17   6 C      3.034     0.131    25.112     8.220
    18   8 O      1.671    -0.354    19.967     6.033
    19  16 S      2.009    -0.248   151.688    20.729
    20   6 C      3.023    -0.009    28.219     8.714
    21  16 S      2.403    -0.009   141.429    20.016
    22   6 C      3.023     0.014    27.676     8.629
    23   6 C      3.133    -0.008    27.994     8.661
    24   6 C      3.045     0.129    25.131     8.222
    25   8 O      1.664    -0.359    20.071     6.048
    26  16 S      1.996    -0.232   150.979    20.681
    27   6 C      3.026    -0.005    28.130     8.700
    28  16 S      2.386    -0.017   141.777    20.040
    29   6 C      3.018     0.007    27.833     8.654
    30   6 C      3.131    -0.005    27.948     8.655
    31   6 C      3.045     0.128    25.162     8.227
    32   8 O      1.667    -0.360    20.078     6.049
    33  16 S      1.972    -0.242   151.440    20.712
    34   6 C      3.011    -0.007    28.185     8.709
    35  16 S      2.423    -0.009   141.421    20.015
    36   6 C      2.976     0.017    27.621     8.621
    37   6 C      3.263    -0.025    27.390     8.451
    38   6 C      3.363     0.117    22.646     7.462
    39   8 O      1.716    -0.178    16.996     5.566
    40   6 C      3.090     0.120    25.264     8.239
    41   7 N      2.756     0.530    13.697     5.497
    42   8 O      0.933    -0.397    21.577     6.230
    43   8 O      0.931    -0.372    21.087     6.159
    44   6 C      2.981    -0.046    29.147     8.856
    45   6 C      2.930    -0.028    28.702     8.786
    46   6 C      2.841    -0.085    30.118     8.994
    47   1 H      0.926     0.052     2.300     2.372
    48   1 H      0.926     0.053     2.285     2.364
    49   1 H      0.926     0.045     2.384     2.414
    50   1 H      0.926     0.042     2.425     2.435
    51   1 H      0.926     0.042     2.427     2.436
    52   1 H      0.926     0.044     2.400     2.423
    53   1 H      0.925     0.056     2.242     2.342
    54   1 H      0.804     0.326     0.647     1.264
    55   1 H      0.923     0.173     1.249     1.748
    56   1 H      0.804     0.329     0.641     1.258
    57   1 H      0.923     0.176     1.227     1.732
    58   1 H      0.804     0.328     0.644     1.260
    59   1 H      0.923     0.173     1.246     1.745
    60   1 H      0.927     0.081     1.964     2.192
    61   1 H      0.925     0.051     2.307     2.375
    62   1 H      0.926     0.053     2.286     2.364
    63   1 H      0.926     0.054     2.267     2.355

 Mol. C6AA /au·bohr⁶  :     101393.740002
 Mol. C8AA /au·bohr⁸  :    3310936.810336
 Mol. α(0) /au        :        517.333678


Wiberg/Mayer (AO) data.
largest (>0.10) Wiberg bond orders for each atom
          total WBO             WBO to atom ...
     1  C   3.852        C    2 1.715    H   48 0.976    H   47 0.970
     2  C   3.960        C    1 1.715    C    3 1.155    S    6 1.040
     3  C   3.907        C    4 1.651    C    2 1.155    H   49 0.963
     4  C   3.985        C    3 1.651    C    5 1.210    H   50 0.962
     5  C   3.904        C    7 1.417    C    4 1.210    S    6 1.090
     6  S   2.407        C    5 1.090    C    2 1.040
     7  C   3.959        C    5 1.417    C    8 1.228    S   11 1.095
     8  C   3.950        C    9 1.605    C    7 1.228    H   51 0.962
     9  C   3.939        C    8 1.605    C   10 1.215    H   52 0.964
    10  C   3.936        C   12 1.474    C    9 1.215    S   11 1.088
    11  S   2.516        C    7 1.095    C   10 1.088
    12  C   3.897        C   10 1.474    C   13 1.272    H   53 0.953
    13  C   3.916        C   17 1.330    C   12 1.272    S   14 1.094
    14  S   2.564        C   15 1.121    C   13 1.094
    15  C   3.907        C   16 1.378    C   20 1.233    S   14 1.121
    16  C   3.920        C   15 1.378    C   17 1.292    S   19 1.011
    17  C   3.885        C   13 1.330    C   16 1.292    O   18 1.101
    18  O   2.181        C   17 1.101    H   54 0.858
    19  S   2.136        C   16 1.011    H   55 0.940
    20  C   3.917        C   24 1.347    C   15 1.233    S   21 1.102
    21  S   2.615        C   22 1.108    C   20 1.102
    22  C   3.923        C   23 1.387    C   27 1.227    S   21 1.108
    23  C   3.923        C   22 1.387    C   24 1.281    S   26 1.021
    24  C   3.913        C   20 1.347    C   23 1.281    O   25 1.100
    25  O   2.169        C   24 1.100    H   56 0.859
    26  S   2.154        C   23 1.021    H   57 0.938
    27  C   3.904        C   31 1.354    C   22 1.227    S   28 1.102
    28  S   2.582        C   29 1.105    C   27 1.102
    29  C   3.922        C   30 1.393    C   34 1.218    S   28 1.105
    30  C   3.924        C   29 1.393    C   31 1.278    S   33 1.018
    31  C   3.917        C   27 1.354    C   30 1.278    O   32 1.096
    32  O   2.169        C   31 1.096    H   58 0.860
    33  S   2.139        C   30 1.018    H   59 0.941
    34  C   3.938        C   38 1.369    C   29 1.218    S   35 1.110
    35  S   2.572        C   36 1.145    C   34 1.110
    36  C   3.875        C   37 1.338    C   45 1.177    S   35 1.145
    37  C   3.978        C   36 1.338    C   44 1.235    C   38 1.202
    38  C   3.901        C   34 1.369    C   37 1.202    O   39 1.083
    39  O   2.407        C   38 1.083    C   40 1.074
    40  C   3.892        C   44 1.526    O   39 1.074    N   41 1.015
    41  N   3.899        O   43 1.429    O   42 1.404    C   40 1.015
    42  O   1.875        N   41 1.404    O   43 0.350
    43  O   1.907        N   41 1.429    O   42 0.350
    44  C   3.961        C   40 1.526    C   37 1.235    H   60 0.964
    45  C   3.986        C   46 1.805    C   36 1.177    H   61 0.962
    46  C   3.912        C   45 1.805    H   63 0.977    H   62 0.973
    47  H   0.997        C    1 0.970
    48  H   0.997        C    1 0.976
    49  H   0.997        C    3 0.963
    50  H   0.998        C    4 0.962
    51  H   0.997        C    8 0.962
    52  H   0.997        C    9 0.964
    53  H   0.995        C   12 0.953
    54  H   0.893        O   18 0.858
    55  H   0.969        S   19 0.940
    56  H   0.890        O   25 0.859
    57  H   0.968        S   26 0.938
    58  H   0.891        O   32 0.860
    59  H   0.969        S   33 0.941
    60  H   0.993        C   44 0.964
    61  H   0.997        C   45 0.962
    62  H   0.997        C   46 0.973
    63  H   0.997        C   46 0.977

molecular dipole:
                 x           y           z       tot (Debye)
 q only:        1.781       1.925       1.399
   full:        1.090       1.117       1.546       5.584
molecular quadrupole (traceless):
                xx          xy          yy          xz          yz          zz
 q only:       63.232     -47.218    -142.740     -17.096     -55.302      79.509
  q+dip:       51.090     -25.641    -117.852     -29.753     -75.886      66.762
   full:       50.962     -29.431    -115.979     -28.187     -77.824      65.017

           -------------------------------------------------
          |                Geometry Summary                 |
           -------------------------------------------------

      molecular mass/u    :      776.0074000
   center of mass at/Å    :        2.7996703     -10.4671591       2.6821635
  moments of inertia/u·Å² :        0.3813739E+04   0.3670319E+05   0.3963364E+05
rotational constants/cm⁻¹ :        0.4420237E-02   0.4592961E-03   0.4253365E-03

 * 65 selected distances

     #   Z        #   Z                                     value/Å
     1   6 C      2   6 C                                 1.3403612
     2   6 C      3   6 C                                 1.4347636
     3   6 C      4   6 C                                 1.3516166
     4   6 C      5   6 C                                 1.4224763
     5   6 C      6  16 S                                 1.7530179
     5   6 C      7   6 C                                 1.3749635
     7   6 C      8   6 C                                 1.4175926
     8   6 C      9   6 C                                 1.3570213
     9   6 C     10   6 C                                 1.4227906
     7   6 C     11  16 S                                 1.7532179 (max)
    10   6 C     11  16 S                                 1.7520582
    10   6 C     12   6 C                                 1.3707535
    12   6 C     13   6 C                                 1.4066700
    13   6 C     14  16 S                                 1.7528417
    14  16 S     15   6 C                                 1.7384326
    15   6 C     16   6 C                                 1.3866059
    13   6 C     17   6 C                                 1.3939584
    16   6 C     17   6 C                                 1.4040080
    17   6 C     18   8 O                                 1.3438647
    15   6 C     20   6 C                                 1.4089139
    20   6 C     21  16 S                                 1.7456630
    21  16 S     22   6 C                                 1.7397787
    22   6 C     23   6 C                                 1.3854360
    20   6 C     24   6 C                                 1.3900847
    23   6 C     24   6 C                                 1.4047047
    24   6 C     25   8 O                                 1.3441675
    22   6 C     27   6 C                                 1.4098795
    27   6 C     28  16 S                                 1.7454034
    28  16 S     29   6 C                                 1.7427664
    29   6 C     30   6 C                                 1.3837427
    27   6 C     31   6 C                                 1.3893463
    30   6 C     31   6 C                                 1.4051435
    31   6 C     32   8 O                                 1.3456463
    29   6 C     34   6 C                                 1.4106951
    34   6 C     35  16 S                                 1.7521093
    35  16 S     36   6 C                                 1.7446819
    36   6 C     37   6 C                                 1.3915156
    34   6 C     38   6 C                                 1.3806104
    37   6 C     38   6 C                                 1.4242145
    38   6 C     39   8 O                                 1.3470796
    39   8 O     40   6 C                                 1.3616679
    40   6 C     41   7 N                                 1.4118666
    41   7 N     42   8 O                                 1.2190488
    41   7 N     43   8 O                                 1.2134408
    37   6 C     44   6 C                                 1.4197430
    40   6 C     44   6 C                                 1.3708314
    36   6 C     45   6 C                                 1.4264127
    45   6 C     46   6 C                                 1.3352533
     1   6 C     47   1 H                                 1.0756814
     1   6 C     48   1 H                                 1.0743964
     3   6 C     49   1 H                                 1.0756123
     4   6 C     50   1 H                                 1.0757046
     8   6 C     51   1 H                                 1.0752633
     9   6 C     52   1 H                                 1.0760154
    12   6 C     53   1 H                                 1.0831747
    18   8 O     54   1 H                                 0.9713783
    19  16 S     55   1 H                                 1.3321780
    25   8 O     56   1 H                                 0.9702124
    26  16 S     57   1 H                                 1.3312006
    32   8 O     58   1 H                                 0.9698405 (min)
    33  16 S     59   1 H                                 1.3320898
    44   6 C     60   1 H                                 1.0698720
    45   6 C     61   1 H                                 1.0822441
    46   6 C     62   1 H                                 1.0746743
    46   6 C     63   1 H                                 1.0749683

 * 8 distinct bonds (by element types)

   Z      Z             #   av. dist./Å        max./Å        min./Å
   1 H    6 C          11     1.0761461     1.0831747     1.0698720
   6 C    6 C          29     1.3937969     1.4347636     1.3352533
   6 C    7 N           1     1.4118666     1.4118666     1.4118666
   1 H    8 O           3     0.9704770     0.9713783     0.9698405
   6 C    8 O           5     1.3484852     1.3616679     1.3438647
   7 N    8 O           2     1.2162448     1.2190488     1.2134408
   1 H   16 S           3     1.3318228     1.3321780     1.3312006
   6 C   16 S          11     1.7472701     1.7532179     1.7384326


optimized geometry written to: xtbopt.xyz


           -------------------------------------------------
          | TOTAL ENERGY             -129.279165395472 Eh   |
          | GRADIENT NORM               0.000718308169 Eh/α |
          | HOMO-LUMO GAP               0.240564504217 eV   |
           -------------------------------------------------

------------------------------------------------------------------------
 * finished run on 2021/06/11 at 18:48:21.398     
------------------------------------------------------------------------
 total:
 * wall-time:     0 d,  0 h,  0 min, 15.370 sec
 *  cpu-time:     0 d,  0 h,  3 min,  4.093 sec
 * ratio c/w:    11.978 speedup
 SCF:
 * wall-time:     0 d,  0 h,  0 min,  0.197 sec
 *  cpu-time:     0 d,  0 h,  0 min,  2.350 sec
 * ratio c/w:    11.920 speedup
 ANC optimizer:
 * wall-time:     0 d,  0 h,  0 min, 15.063 sec
 *  cpu-time:     0 d,  0 h,  3 min,  0.714 sec
 * ratio c/w:    11.998 speedup

