      -----------------------------------------------------------      
     |                   =====================                   |     
     |                           x T B                           |     
     |                   =====================                   |     
     |                         S. Grimme                         |     
     |          Mulliken Center for Theoretical Chemistry        |     
     |                    University of Bonn                     |     
     |                Version 6.2 RC2 (SAW190805)                |     
      -----------------------------------------------------------      

   This program is distributed in the hope that it will be useful,
   but WITHOUT ANY WARRANTY; without even the implied warranty of
   MERCHANTABILITY or FITNESS FOR A PARTICULAR PURPOSE.
   
   FOR NON-COMMERCIAL, ACADEMIA USE ONLY.
   
   Cite this work as:
   * S. Grimme, C. Bannwarth, P. Shushkov, J. Chem. Theory Comput., 2017,
     13, 1989-2009. DOI: 10.1021/acs.jctc.7b00118
   * C. Bannwarth, S. Ehlert and S. Grimme., J. Chem. Theory Comput., 2019,
     15, 1652-1671. DOI: 10.1021/acs.jctc.8b01176
   * P. Pracht, E. Caldeweyher, S. Ehlert, S. Grimme, ChemRxiv, 2019, preprint.
     DOI: 10.26434/chemrxiv.8326202.v1
   
   for DFT-D4:
   * E. Caldeweyher, C. Bannwarth and S. Grimme, J. Chem. Phys., 2017,
     147, 034112. DOI: 10.1063/1.4993215
   * E. Caldeweyher, S. Ehlert, A. Hansen, H. Neugebauer, S. Spicher,
     C. Bannwarth and S. Grimme, J. Chem. Phys., 2019, 150, 154122.
     DOI: 10.1063/1.5090222
   
   for sTDA-xTB:
   * S. Grimme and C. Bannwarth, J. Chem. Phys., 2016, 145, 054103.
     DOI: 10.1063/1.4959605
   
   in the mass-spec context:
   * V. Asgeirsson, C. Bauer and S. Grimme, Chem. Sci., 2017, 8, 4879.
     DOI: 10.1039/c7sc00601b
   
   for metadynamics refer to:
   * S. Grimme, J. Chem. Theory Comput., 2019, 155, 2847-2862
     DOI: 10.1021/acs.jctc.9b00143
   
   with help from (in alphabetical order)
   C. Bannwarth, F. Bohle, G. Brandenburg, E. Caldeweyher, M. Checinski,
   S. Dohm, S. Ehlert, S. Ehrlich, F. März, H. Neugebauer, J. Pisarek,
   P. Pracht, P. Shushkov, and S. Spicher.
   
 * started run on 2021/06/06 at 14:48:50.756     

           -------------------------------------------------
          |                Calculation Setup                |
           -------------------------------------------------

          program call               : /ihome/ghutchison/geoffh/xtb/xtb /ihome/ghutchison/blp62/GA/running_GA/sequence/generations/50/47_902_649_902_47_02420.xyz -opt
          hostname                   : smp-n73
          coordinate file            : /ihome/ghutchison/blp62/GA/running_GA/sequence/generations/50/47_902_649_902_47_02420.xyz
          omp threads                :                    12
          number of atoms            :                    94
          number of electrons        :                   284
          charge                     :                     0
          spin                       :                   0.0
          first test random number   :      0.78416409932726


########################################################################
# WARNING! Please study the warnings concerning your input carefully
#  - XTBPATH is not set, using XTBHOME instead
#  - the use of '-opt' is discouraged, please use '--opt' next time
########################################################################

           ------------------------------------------------- 
          |                 G F N 2 - x T B                 |
          | Geometry, Frequencies, Noncovalent interactions |
          |            JCTC 2019 parametrisation            |
           ------------------------------------------------- 
             KAB for C  - Si     :                1.0500
             KAB for H  - Pd     :                0.9500
             k(s)              :                1.8500
             k(p)              :                2.2300
             k(d)              :                2.2300
             k(f)              :                2.0000
             kEN (H0ij)        :               -2.0000
             D4 a1             :                0.5200
             D4 a2             :                5.0000
             D4 s6             :                1.0000
             D4 s8             :                2.7000
             D4 s9             :                5.0000
             alphaj            :                2.0000

  Z AO/shell   Hii/eV     exponent
  1     Wed Apr 25 08:07:45 CEST 2018   EN: 2.200 GM2: 0.406  GM3: 0.0800  RAES: 1.40
     1s    -10.707211    1.230000
  6     Wed Apr 25 08:07:45 CEST 2018   EN: 2.550 GM2: 0.538  GM3: 0.1500  RAES: 3.00
     2s    -13.970922    2.096432
     2p    -10.063292    1.800000
  8     Wed Apr 25 08:07:45 CEST 2018   EN: 3.440 GM2: 0.452  GM3:-0.0517  RAES: 1.80
     2s    -20.229985    2.439742
     2p    -15.503117    2.137023
 16     Tue Apr 24 11:44:34 CEST 2018   EN: 2.580 GM2: 0.340  GM3:-0.0502  RAES: 3.10
     3s    -20.029654    1.981333
     3p    -11.377694    2.025643
     3d     -0.420282    1.702555

           ------------------------------------------------- 
          |        Self-Consistent Charge Iterations        |
           ------------------------------------------------- 

          ...................................................
          :                      SETUP                      :
          :.................................................:
          :  # basis functions                 304          :
          :  # atomic orbitals                 298          :
          :  # shells                          158          :
          :  # electrons                       284          :
          :  max. iterations                   250          :
          :  Hamiltonian                  GFN2-xTB          :
          :  restarted?                      false          :
          :  GBSA solvation                  false          :
          :  PC potential                    false          :
          :  electronic temp.          300.0000000     K    :
          :  accuracy                    1.0000000          :
          :  -> integral cutoff          0.2500000E+02      :
          :  -> integral neglect         0.1000000E-07      :
          :  -> SCF convergence          0.1000000E-05 Eh   :
          :  -> wf. convergence          0.1000000E-03 e    :
          :  Broyden damping             0.4000000          :
          ...................................................

 iter      E             dE          RMSdq      gap      omega  full diag
   1   -155.0747144 -0.155075E+03  0.443E+00    1.29       0.0  T
   2   -155.1668232 -0.921087E-01  0.254E+00    1.11       1.0  T
   3   -155.0503535  0.116470E+00  0.135E+00    1.22       1.0  T
   4   -155.1732611 -0.122908E+00  0.576E-01    1.13       1.0  T
   5   -155.1921627 -0.189016E-01  0.229E-01    1.14       1.0  T
   6   -155.1949592 -0.279648E-02  0.108E-01    1.14       1.0  T
   7   -155.1953845 -0.425307E-03  0.615E-02    1.13       1.0  T
   8   -155.1957247 -0.340152E-03  0.228E-02    1.14       1.0  T
   9   -155.1957465 -0.218778E-04  0.138E-02    1.14       1.0  T
  10   -155.1957549 -0.839484E-05  0.735E-03    1.14       1.4  T
  11   -155.1957588 -0.384575E-05  0.254E-03    1.14       4.1  T
  12   -155.1957589 -0.102576E-06  0.162E-03    1.14       6.4  T
  13   -155.1957590 -0.147773E-06  0.102E-03    1.14      10.1  T
  14   -155.1957591 -0.716145E-07  0.463E-04    1.14      22.3  T
  15   -155.1957591 -0.660708E-08  0.263E-04    1.14      39.1  T

   *** convergence criteria satisfied after 15 iterations ***

         #    Occupation            Energy/Eh            Energy/eV
      -------------------------------------------------------------
         1        2.0000           -0.7297361             -19.8571
       ...           ...                  ...                  ...
       136        2.0000           -0.3858169             -10.4986
       137        2.0000           -0.3826171             -10.4115
       138        2.0000           -0.3670212              -9.9872
       139        2.0000           -0.3524927              -9.5918
       140        2.0000           -0.3508104              -9.5460
       141        2.0000           -0.3476668              -9.4605
       142        2.0000           -0.3415807              -9.2949 (HOMO)
       143                         -0.2998243              -8.1586 (LUMO)
       144                         -0.2957628              -8.0481
       145                         -0.2821248              -7.6770
       146                         -0.2721485              -7.4055
       147                         -0.2536928              -6.9033
       ...                                ...                  ...
       298                          0.7450969              20.2751
      -------------------------------------------------------------
                  HL-Gap            0.0417564 Eh            1.1363 eV
             Fermi-level           -0.3207082 Eh           -8.7269 eV

 SCC (total)                   0 d,  0 h,  0 min,  0.445 sec
 SCC setup                      ...        0 min,  0.011 sec (  2.401%)
 Dispersion                     ...        0 min,  0.004 sec (  0.835%)
 integral evaluation            ...        0 min,  0.034 sec (  7.590%)
 zeroth order Hamiltonian       ...        0 min,  0.001 sec (  0.216%)
 iterations                     ...        0 min,  0.368 sec ( 82.847%)
 molecular gradient             ...        0 min,  0.026 sec (  5.806%)
 printout                       ...        0 min,  0.001 sec (  0.279%)

         :::::::::::::::::::::::::::::::::::::::::::::::::::::
         ::                     SUMMARY                     ::
         :::::::::::::::::::::::::::::::::::::::::::::::::::::
         :: total energy            -152.787315613404 Eh    ::
         :: gradient norm              0.159569601816 Eh/a0 ::
         :: HOMO-LUMO gap              1.136250641660 eV    ::
         ::.................................................::
         :: SCC energy              -155.195759101930 Eh    ::
         :: -> isotropic ES            0.038518436635 Eh    ::
         :: -> anisotropic ES          0.015871620319 Eh    ::
         :: -> anisotropic XC          0.078398615289 Eh    ::
         :: -> dispersion             -0.126657481329 Eh    ::
         :: repulsion energy           2.409713529186 Eh    ::
         :: add. restraining           0.000000000000 Eh    ::
         :::::::::::::::::::::::::::::::::::::::::::::::::::::

      ----------------------------------------------------------- 
     |                   =====================                   |
     |                        A N C O P T                        |
     |                   =====================                   |
     |               Approximate Normal Coordinate               |
     |                Rational Function Optimizer                |
      ----------------------------------------------------------- 

          ...................................................
          :                      SETUP                      :
          :.................................................:
          :   optimization level            normal          :
          :   max. optcycles                   282          :
          :   ANC micro-cycles                  20          :
          :   degrees of freedom               276          :
          :.................................................:
          :   RF solver                   davidson          :
          :   input Hessian                  false          :
          :   write xtbopt.log                true          :
          :   linear?                        false          :
          :   energy convergence         0.5000000E-05 Eh   :
          :   grad. convergence          0.1000000E-02 Eh/α :
          :   maximium RF displ.         2.0000000          :
          :   Hlow (freq-cutoff)         0.5000000E-02      :
          :   Hmax (freq-cutoff)         5.0000000          :
          :   S6 in model hess.         20.0000000          :
          ...................................................

generating ANC from model Hessian ...
Using Lindh-Hessian (1995)
 Shifting diagonal of input Hessian by   4.980136381449224E-003
 Lowest  eigenvalues of input Hessian
   -0.000000   -0.000000   -0.000000   -0.000000   -0.000000    0.000000
    0.005000    0.005022    0.005043    0.005054    0.005101    0.005132
    0.005267    0.005312    0.005407    0.005449    0.005653    0.005786
 Highest eigenvalues
    2.043425    2.046809    2.057218    2.064436    2.073304    2.091136
 

........................................................................
.............................. CYCLE    1 ..............................
........................................................................
   1   -155.1957591 -0.155196E+03  0.141E-04    1.14       0.0  T
   2   -155.1957591  0.628347E-09  0.141E-04    1.14      73.0  T
   3   -155.1957591 -0.171249E-08  0.667E-05    1.14     154.6  T
     SCC iter.                  ...        0 min,  0.090 sec
     gradient                   ...        0 min,  0.044 sec
 * total energy  :  -152.7873157 Eh     change       -0.7876022E-07 Eh
   gradient norm :     0.1595697 Eh/α   predicted     0.0000000E+00 (-100.00%)
   displ. norm   :     0.4006843 α      lambda       -0.3691199E-01
   maximum displ.:     0.0998383 α      in ANC's #131, #89, #87, ...

........................................................................
.............................. CYCLE    2 ..............................
........................................................................
   1   -155.2667905 -0.155267E+03  0.277E-01    1.05       0.0  T
   2   -155.2669489 -0.158403E-03  0.149E-01    1.06       1.0  T
   3   -155.2659166  0.103231E-02  0.110E-01    1.06       1.0  T
   4   -155.2669592 -0.104257E-02  0.473E-02    1.06       1.0  T
   5   -155.2671582 -0.198975E-03  0.199E-02    1.06       1.0  T
   6   -155.2671733 -0.151381E-04  0.943E-03    1.06       1.1  T
   7   -155.2671791 -0.575128E-05  0.343E-03    1.06       3.0  T
   8   -155.2671800 -0.959385E-06  0.118E-03    1.06       8.7  T
     SCC iter.                  ...        0 min,  1.043 sec
     gradient                   ...        0 min,  0.096 sec
 * total energy  :  -152.8137439 Eh     change       -0.2642817E-01 Eh
   gradient norm :     0.0757765 Eh/α   predicted    -0.2141907E-01 ( -18.95%)
   displ. norm   :     0.3900465 α      lambda       -0.1356357E-01
   maximum displ.:     0.1142153 α      in ANC's #22, #28, #89, ...

........................................................................
.............................. CYCLE    3 ..............................
........................................................................
   1   -155.3022882 -0.155302E+03  0.229E-01    0.98       0.0  T
   2   -155.3023614 -0.731943E-04  0.123E-01    0.99       1.0  T
   3   -155.3014256  0.935780E-03  0.103E-01    0.98       1.0  T
   4   -155.3023275 -0.901886E-03  0.425E-02    0.99       1.0  T
   5   -155.3025032 -0.175739E-03  0.155E-02    0.99       1.0  T
   6   -155.3025071 -0.388000E-05  0.962E-03    0.99       1.1  T
   7   -155.3025140 -0.694066E-05  0.434E-03    0.99       2.4  T
   8   -155.3025159 -0.182853E-05  0.178E-03    0.99       5.8  T
   9   -155.3025162 -0.311456E-06  0.752E-04    0.99      13.7  T
     SCC iter.                  ...        0 min,  1.285 sec
     gradient                   ...        0 min,  0.077 sec
 * total energy  :  -152.8218351 Eh     change       -0.8091260E-02 Eh
   gradient norm :     0.0188978 Eh/α   predicted    -0.7813539E-02 (  -3.43%)
   displ. norm   :     0.4175899 α      lambda       -0.2881843E-02
   maximum displ.:     0.1990184 α      in ANC's #22, #17, #28, ...

........................................................................
.............................. CYCLE    4 ..............................
........................................................................
   1   -155.3013492 -0.155301E+03  0.228E-01    0.96       0.0  T
   2   -155.3013912 -0.420268E-04  0.114E-01    0.96       1.0  T
   3   -155.3010575  0.333721E-03  0.588E-02    0.96       1.0  T
   4   -155.3013870 -0.329524E-03  0.230E-02    0.96       1.0  T
   5   -155.3014053 -0.183462E-04  0.157E-02    0.96       1.0  T
   6   -155.3014224 -0.170503E-04  0.646E-03    0.96       1.6  T
   7   -155.3014265 -0.414542E-05  0.232E-03    0.96       4.4  T
   8   -155.3014271 -0.585540E-06  0.808E-04    0.96      12.8  T
   9   -155.3014272 -0.500268E-07  0.386E-04    0.96      26.7  T
     SCC iter.                  ...        0 min,  0.465 sec
     gradient                   ...        0 min,  0.064 sec
 * total energy  :  -152.8241365 Eh     change       -0.2301352E-02 Eh
   gradient norm :     0.0113527 Eh/α   predicted    -0.1692523E-02 ( -26.46%)
   displ. norm   :     0.6123398 α      lambda       -0.2825687E-02
   maximum displ.:     0.2824346 α      in ANC's #22, #17, #16, ...

........................................................................
.............................. CYCLE    5 ..............................
........................................................................
   1   -155.2981112 -0.155298E+03  0.306E-01    0.93       0.0  T
   2   -155.2981847 -0.735051E-04  0.156E-01    0.94       1.0  T
   3   -155.2979625  0.222244E-03  0.532E-02    0.93       1.0  T
   4   -155.2981502 -0.187725E-03  0.303E-02    0.94       1.0  T
   5   -155.2981589 -0.867319E-05  0.235E-02    0.94       1.0  T
   6   -155.2982161 -0.571841E-04  0.619E-03    0.94       1.7  T
   7   -155.2982197 -0.369069E-05  0.241E-03    0.94       4.3  T
   8   -155.2982204 -0.604595E-06  0.984E-04    0.94      10.5  T
   9   -155.2982204 -0.710570E-07  0.477E-04    0.94      21.6  T
     SCC iter.                  ...        0 min,  0.534 sec
     gradient                   ...        0 min,  0.081 sec
 * total energy  :  -152.8263973 Eh     change       -0.2260850E-02 Eh
   gradient norm :     0.0136249 Eh/α   predicted    -0.1942674E-02 ( -14.07%)
   displ. norm   :     0.6429334 α      lambda       -0.2280261E-02
   maximum displ.:     0.2867852 α      in ANC's #22, #17, #16, ...

........................................................................
.............................. CYCLE    6 ..............................
........................................................................
   1   -155.2975600 -0.155298E+03  0.322E-01    0.92       0.0  T
   2   -155.2976433 -0.833269E-04  0.164E-01    0.92       1.0  T
   3   -155.2975824  0.609552E-04  0.380E-02    0.92       1.0  T
   4   -155.2975713  0.110845E-04  0.327E-02    0.92       1.0  T
   5   -155.2976133 -0.420485E-04  0.218E-02    0.92       1.0  T
   6   -155.2976676 -0.542843E-04  0.450E-03    0.92       2.3  T
   7   -155.2976696 -0.196014E-05  0.180E-03    0.92       5.7  T
   8   -155.2976698 -0.258157E-06  0.979E-04    0.92      10.5  T
     SCC iter.                  ...        0 min,  0.623 sec
     gradient                   ...        0 min,  0.080 sec
 * total energy  :  -152.8283004 Eh     change       -0.1903045E-02 Eh
   gradient norm :     0.0184867 Eh/α   predicted    -0.1611422E-02 ( -15.32%)
   displ. norm   :     0.6636962 α      lambda       -0.2311421E-02
   maximum displ.:     0.2809590 α      in ANC's #17, #22, #16, ...

........................................................................
.............................. CYCLE    7 ..............................
........................................................................
   1   -155.3025242 -0.155303E+03  0.327E-01    0.91       0.0  T
   2   -155.3026083 -0.840863E-04  0.167E-01    0.91       1.0  T
   3   -155.3025973  0.110328E-04  0.325E-02    0.91       1.0  T
   4   -155.3025278  0.694693E-04  0.325E-02    0.91       1.0  T
   5   -155.3025889 -0.611199E-04  0.184E-02    0.91       1.0  T
   6   -155.3026302 -0.412325E-04  0.334E-03    0.91       3.1  T
   7   -155.3026310 -0.839920E-06  0.169E-03    0.91       6.1  T
   8   -155.3026312 -0.201424E-06  0.980E-04    0.91      10.5  T
     SCC iter.                  ...        0 min,  0.429 sec
     gradient                   ...        0 min,  0.082 sec
 * total energy  :  -152.8302896 Eh     change       -0.1989248E-02 Eh
   gradient norm :     0.0185645 Eh/α   predicted    -0.1664793E-02 ( -16.31%)
   displ. norm   :     0.6820176 α      lambda       -0.2528434E-02
   maximum displ.:     0.2968892 α      in ANC's #17, #22, #21, ...

........................................................................
.............................. CYCLE    8 ..............................
........................................................................
   1   -155.3131761 -0.155313E+03  0.335E-01    0.91       0.0  T
   2   -155.3132610 -0.848754E-04  0.171E-01    0.91       1.0  T
   3   -155.3130783  0.182715E-03  0.525E-02    0.91       1.0  T
   4   -155.3131878 -0.109461E-03  0.358E-02    0.91       1.0  T
   5   -155.3132396 -0.518585E-04  0.214E-02    0.91       1.0  T
   6   -155.3132919 -0.523327E-04  0.444E-03    0.91       2.3  T
   7   -155.3132936 -0.168802E-05  0.211E-03    0.91       4.9  T
   8   -155.3132939 -0.300530E-06  0.133E-03    0.91       7.7  T
     SCC iter.                  ...        0 min,  0.438 sec
     gradient                   ...        0 min,  0.086 sec
 * total energy  :  -152.8324635 Eh     change       -0.2173919E-02 Eh
   gradient norm :     0.0146807 Eh/α   predicted    -0.1852266E-02 ( -14.80%)
   displ. norm   :     0.7460722 α      lambda       -0.2450608E-02
   maximum displ.:     0.3192421 α      in ANC's #17, #21, #22, ...

........................................................................
.............................. CYCLE    9 ..............................
........................................................................
   1   -155.3178021 -0.155318E+03  0.374E-01    0.91       0.0  T
   2   -155.3179003 -0.981929E-04  0.190E-01    0.91       1.0  T
   3   -155.3172455  0.654784E-03  0.855E-02    0.91       1.0  T
   4   -155.3178586 -0.613091E-03  0.372E-02    0.91       1.0  T
   5   -155.3178912 -0.326860E-04  0.261E-02    0.91       1.0  T
   6   -155.3179611 -0.698686E-04  0.491E-03    0.91       2.1  T
   7   -155.3179630 -0.183981E-05  0.236E-03    0.91       4.4  T
   8   -155.3179633 -0.343664E-06  0.151E-03    0.91       6.9  T
     SCC iter.                  ...        0 min,  0.628 sec
     gradient                   ...        0 min,  0.081 sec
 * total energy  :  -152.8346325 Eh     change       -0.2168937E-02 Eh
   gradient norm :     0.0136923 Eh/α   predicted    -0.1907344E-02 ( -12.06%)
   displ. norm   :     0.7515229 α      lambda       -0.2560435E-02
   maximum displ.:     0.3079449 α      in ANC's #17, #21, #7, ...

........................................................................
.............................. CYCLE   10 ..............................
........................................................................
   1   -155.3283144 -0.155328E+03  0.372E-01    0.91       0.0  T
   2   -155.3283850 -0.705829E-04  0.189E-01    0.91       1.0  T
   3   -155.3269123  0.147270E-02  0.120E-01    0.91       1.0  T
   4   -155.3283925 -0.148019E-02  0.366E-02    0.91       1.0  T
   5   -155.3284158 -0.232865E-04  0.270E-02    0.91       1.0  T
   6   -155.3284845 -0.687180E-04  0.599E-03    0.91       1.7  T
   7   -155.3284875 -0.302569E-05  0.277E-03    0.91       3.7  T
   8   -155.3284880 -0.539718E-06  0.167E-03    0.91       6.2  T
   9   -155.3284883 -0.218218E-06  0.851E-04    0.91      12.1  T
     SCC iter.                  ...        0 min,  0.478 sec
     gradient                   ...        0 min,  0.083 sec
 * total energy  :  -152.8367247 Eh     change       -0.2092194E-02 Eh
   gradient norm :     0.0135232 Eh/α   predicted    -0.2003299E-02 (  -4.25%)
   displ. norm   :     0.8705768 α      lambda       -0.2652650E-02
   maximum displ.:     0.3512198 α      in ANC's #21, #17, #7, ...

........................................................................
.............................. CYCLE   11 ..............................
........................................................................
   1   -155.3119006 -0.155312E+03  0.433E-01    0.90       0.0  T
   2   -155.3119339 -0.333816E-04  0.222E-01    0.90       1.0  T
   3   -155.3082793  0.365467E-02  0.182E-01    0.90       1.0  T
   4   -155.3120310 -0.375172E-02  0.441E-02    0.90       1.0  T
   5   -155.3120944 -0.634418E-04  0.315E-02    0.90       1.0  T
   6   -155.3121737 -0.793259E-04  0.716E-03    0.90       1.4  T
   7   -155.3121780 -0.421442E-05  0.244E-03    0.90       4.2  T
   8   -155.3121781 -0.104576E-06  0.194E-03    0.90       5.3  T
   9   -155.3121783 -0.234058E-06  0.123E-03    0.90       8.4  T
     SCC iter.                  ...        0 min,  0.477 sec
     gradient                   ...        0 min,  0.083 sec
 * total energy  :  -152.8385700 Eh     change       -0.1845327E-02 Eh
   gradient norm :     0.0200124 Eh/α   predicted    -0.2331556E-02 (  26.35%)
   displ. norm   :     0.6014149 α      lambda       -0.1999624E-02
   maximum displ.:     0.2723427 α      in ANC's #21, #17, #7, ...

........................................................................
.............................. CYCLE   12 ..............................
........................................................................
   1   -155.3115302 -0.155312E+03  0.283E-01    0.89       0.0  T
   2   -155.3115771 -0.469124E-04  0.143E-01    0.89       1.0  T
   3   -155.3109286  0.648505E-03  0.796E-02    0.89       1.0  T
   4   -155.3115602 -0.631623E-03  0.295E-02    0.89       1.0  T
   5   -155.3115873 -0.270428E-04  0.209E-02    0.89       1.0  T
   6   -155.3116282 -0.408830E-04  0.505E-03    0.89       2.0  T
   7   -155.3116301 -0.194996E-05  0.247E-03    0.89       4.2  T
   8   -155.3116307 -0.594975E-06  0.109E-03    0.89       9.5  T
     SCC iter.                  ...        0 min,  0.618 sec
     gradient                   ...        0 min,  0.083 sec
 * total energy  :  -152.8402479 Eh     change       -0.1677930E-02 Eh
   gradient norm :     0.0157242 Eh/α   predicted    -0.1361449E-02 ( -18.86%)
   displ. norm   :     0.6776024 α      lambda       -0.3052726E-02
   maximum displ.:     0.2784516 α      in ANC's #21, #10, #7, ...

........................................................................
.............................. CYCLE   13 ..............................
........................................................................
   1   -155.3413721 -0.155341E+03  0.244E-01    0.88       0.0  T
   2   -155.3411503  0.221799E-03  0.134E-01    0.88       1.0  T
   3   -155.3364259  0.472435E-02  0.198E-01    0.88       1.0  T
   4   -155.3414998 -0.507388E-02  0.233E-02    0.88       1.0  T
   5   -155.3415106 -0.107735E-04  0.145E-02    0.88       1.0  T
   6   -155.3415143 -0.368773E-05  0.756E-03    0.88       1.4  T
   7   -155.3415207 -0.640839E-05  0.342E-03    0.88       3.0  T
   8   -155.3415217 -0.105123E-05  0.194E-03    0.88       5.3  T
   9   -155.3415220 -0.317291E-06  0.853E-04    0.88      12.1  T
     SCC iter.                  ...        0 min,  0.487 sec
     gradient                   ...        0 min,  0.082 sec
 * total energy  :  -152.8415455 Eh     change       -0.1297600E-02 Eh
   gradient norm :     0.0264325 Eh/α   predicted    -0.2227197E-02 (  71.64%)
   displ. norm   :     0.6588604 α      lambda       -0.2838015E-02
   maximum displ.:     0.2910971 α      in ANC's #21, #17, #7, ...

........................................................................
.............................. CYCLE   14 ..............................
........................................................................
   1   -155.3238162 -0.155324E+03  0.300E-01    0.86       0.0  T
   2   -155.3238829 -0.667322E-04  0.154E-01    0.86       1.0  T
   3   -155.3235839  0.299040E-03  0.615E-02    0.86       1.0  T
   4   -155.3238700 -0.286166E-03  0.290E-02    0.86       1.0  T
   5   -155.3238379  0.321121E-04  0.268E-02    0.86       1.0  T
   6   -155.3239228 -0.848571E-04  0.666E-03    0.86       1.5  T
   7   -155.3239273 -0.448945E-05  0.173E-03    0.86       6.0  T
   8   -155.3239274 -0.110275E-06  0.126E-03    0.86       8.2  T
     SCC iter.                  ...        0 min,  0.325 sec
     gradient                   ...        0 min,  0.076 sec
 * total energy  :  -152.8433361 Eh     change       -0.1790613E-02 Eh
   gradient norm :     0.0208589 Eh/α   predicted    -0.2034994E-02 (  13.65%)
   displ. norm   :     0.6242835 α      lambda       -0.2515114E-02
   maximum displ.:     0.2461359 α      in ANC's #21, #10, #7, ...

........................................................................
.............................. CYCLE   15 ..............................
........................................................................
   1   -155.3076905 -0.155308E+03  0.297E-01    0.85       0.0  T
   2   -155.3077364 -0.458771E-04  0.153E-01    0.84       1.0  T
   3   -155.3066455  0.109086E-02  0.105E-01    0.84       1.0  T
   4   -155.3077335 -0.108802E-02  0.361E-02    0.84       1.0  T
   5   -155.3077785 -0.449879E-04  0.274E-02    0.84       1.0  T
   6   -155.3078468 -0.682524E-04  0.853E-03    0.84       1.2  T
   7   -155.3078544 -0.759447E-05  0.195E-03    0.84       5.3  T
   8   -155.3078544 -0.425765E-07  0.162E-03    0.84       6.4  T
   9   -155.3078545 -0.146862E-06  0.927E-04    0.84      11.1  T
     SCC iter.                  ...        0 min,  0.675 sec
     gradient                   ...        0 min,  0.079 sec
 * total energy  :  -152.8441131 Eh     change       -0.7769612E-03 Eh
   gradient norm :     0.0291269 Eh/α   predicted    -0.1747664E-02 ( 124.94%)
   displ. norm   :     0.4401149 α      lambda       -0.2526184E-02
   maximum displ.:     0.1733030 α      in ANC's #10, #16, #7, ...

........................................................................
.............................. CYCLE   16 ..............................
........................................................................
   1   -155.3131430 -0.155313E+03  0.153E-01    0.84       0.0  T
   2   -155.3130934  0.496440E-04  0.824E-02    0.83       1.0  T
   3   -155.3115842  0.150920E-02  0.113E-01    0.83       1.0  T
   4   -155.3131833 -0.159919E-02  0.140E-02    0.83       1.0  T
   5   -155.3131814  0.190888E-05  0.103E-02    0.83       1.0  T
   6   -155.3131864 -0.492122E-05  0.570E-03    0.83       1.8  T
   7   -155.3131899 -0.350282E-05  0.232E-03    0.83       4.5  T
     SCC iter.                  ...        0 min,  0.295 sec
     gradient                   ...        0 min,  0.070 sec
 * total energy  :  -152.8455719 Eh     change       -0.1458781E-02 Eh
   gradient norm :     0.0203535 Eh/α   predicted    -0.1507754E-02 (   3.36%)
   displ. norm   :     0.5221348 α      lambda       -0.3093242E-02
   maximum displ.:     0.2097749 α      in ANC's #10, #16, #7, ...

........................................................................
.............................. CYCLE   17 ..............................
........................................................................
   1   -155.3421987 -0.155342E+03  0.188E-01    0.80       0.0  T
   2   -155.3421853  0.133484E-04  0.103E-01    0.81       1.0  T
   3   -155.3407165  0.146879E-02  0.115E-01    0.81       1.0  T
   4   -155.3421816 -0.146502E-02  0.342E-02    0.82       1.0  T
   5   -155.3422797 -0.981921E-04  0.172E-02    0.82       1.0  T
   6   -155.3422955 -0.157761E-04  0.876E-03    0.82       1.2  T
   7   -155.3423020 -0.648170E-05  0.269E-03    0.82       3.8  T
   8   -155.3423019  0.991918E-07  0.257E-03    0.82       4.0  T
   9   -155.3423024 -0.512210E-06  0.136E-03    0.82       7.6  T
     SCC iter.                  ...        0 min,  0.415 sec
     gradient                   ...        0 min,  0.065 sec
 * total energy  :  -152.8457856 Eh     change       -0.2137425E-03 Eh
   gradient norm :     0.0347776 Eh/α   predicted    -0.1968269E-02 ( 820.86%)
   displ. norm   :     0.4386523 α      lambda       -0.3282175E-02
   maximum displ.:     0.1610434 α      in ANC's #21, #10, #7, ...

........................................................................
.............................. CYCLE   18 ..............................
........................................................................
   1   -155.3307043 -0.155331E+03  0.211E-01    0.81       0.0  T
   2   -155.3306662  0.380981E-04  0.110E-01    0.80       1.0  T
   3   -155.3287859  0.188026E-02  0.131E-01    0.81       1.0  T
   4   -155.3307378 -0.195185E-02  0.263E-02    0.80       1.0  T
   5   -155.3307805 -0.427013E-04  0.170E-02    0.80       1.0  T
   6   -155.3307958 -0.153339E-04  0.839E-03    0.80       1.2  T
   7   -155.3308018 -0.599694E-05  0.401E-03    0.80       2.6  T
   8   -155.3308035 -0.166860E-05  0.168E-03    0.80       6.1  T
     SCC iter.                  ...        0 min,  0.363 sec
     gradient                   ...        0 min,  0.075 sec
 * total energy  :  -152.8476080 Eh     change       -0.1822395E-02 Eh
   gradient norm :     0.0211526 Eh/α   predicted    -0.1956861E-02 (   7.38%)
   displ. norm   :     0.4729464 α      lambda       -0.2746970E-02
   maximum displ.:     0.2192941 α      in ANC's #10, #16, #7, ...

........................................................................
.............................. CYCLE   19 ..............................
........................................................................
   1   -155.3216107 -0.155322E+03  0.197E-01    0.82       0.0  T
   2   -155.3215383  0.723597E-04  0.109E-01    0.81       1.0  T
   3   -155.3188312  0.270713E-02  0.149E-01    0.81       1.0  T
   4   -155.3216800 -0.284880E-02  0.258E-02    0.80       1.0  T
   5   -155.3217051 -0.250955E-04  0.164E-02    0.80       1.0  T
   6   -155.3217121 -0.701329E-05  0.107E-02    0.80       1.0  T
   7   -155.3217232 -0.111425E-04  0.434E-03    0.80       2.4  T
   8   -155.3217251 -0.190060E-05  0.191E-03    0.80       5.4  T
   9   -155.3217254 -0.226942E-06  0.103E-03    0.80      10.0  T
     SCC iter.                  ...        0 min,  0.587 sec
     gradient                   ...        0 min,  0.079 sec
 * total energy  :  -152.8474117 Eh     change        0.1963435E-03 Eh
   gradient norm :     0.0360632 Eh/α   predicted    -0.1680705E-02 (-956.00%)
   displ. norm   :     0.3987241 α      lambda       -0.3415726E-02
   maximum displ.:     0.1521809 α      in ANC's #21, #10, #7, ...

........................................................................
.............................. CYCLE   20 ..............................
........................................................................
   1   -155.3212719 -0.155321E+03  0.161E-01    0.78       0.0  T
   2   -155.3212173  0.546171E-04  0.866E-02    0.79       1.0  T
   3   -155.3192697  0.194754E-02  0.122E-01    0.79       1.0  T
   4   -155.3213217 -0.205194E-02  0.156E-02    0.79       1.0  T
   5   -155.3213184  0.323801E-05  0.113E-02    0.79       1.0  T
   6   -155.3213231 -0.465851E-05  0.750E-03    0.79       1.4  T
   7   -155.3213295 -0.638120E-05  0.300E-03    0.79       3.4  T
   8   -155.3213303 -0.798722E-06  0.123E-03    0.79       8.4  T
   9   -155.3213303 -0.671345E-07  0.701E-04    0.79      14.7  T
     SCC iter.                  ...        0 min,  0.420 sec
     gradient                   ...        0 min,  0.075 sec
 * total energy  :  -152.8493079 Eh     change       -0.1896256E-02 Eh
   gradient norm :     0.0166932 Eh/α   predicted    -0.1979379E-02 (   4.38%)
   displ. norm   :     0.4706854 α      lambda       -0.2167181E-02
   maximum displ.:     0.2262940 α      in ANC's #10, #7, #6, ...
 * RMSD in coord.:     0.9351626 α      energy gain  -0.6199231E-01 Eh

generating ANC from model Hessian ...
Using Lindh-Hessian (1995)
 Shifting diagonal of input Hessian by   4.980626820853178E-003
 Lowest  eigenvalues of input Hessian
   -0.000000   -0.000000   -0.000000   -0.000000    0.000000    0.000000
    0.005000    0.005022    0.005055    0.005072    0.005111    0.005144
    0.005262    0.005358    0.005396    0.005499    0.005820    0.005831
 Highest eigenvalues
    2.061353    2.074327    2.095483    2.110045    2.124624    2.136905
 

........................................................................
.............................. CYCLE   21 ..............................
........................................................................
   1   -155.3315516 -0.155332E+03  0.170E-01    0.78       0.0  T
   2   -155.3315643 -0.127063E-04  0.901E-02    0.78       1.0  T
   3   -155.3307128  0.851524E-03  0.873E-02    0.78       1.0  T
   4   -155.3315672 -0.854374E-03  0.235E-02    0.78       1.0  T
   5   -155.3316006 -0.334115E-04  0.135E-02    0.78       1.0  T
   6   -155.3316128 -0.122728E-04  0.660E-03    0.78       1.6  T
   7   -155.3316169 -0.409941E-05  0.235E-03    0.78       4.4  T
   8   -155.3316171 -0.178470E-06  0.184E-03    0.78       5.6  T
   9   -155.3316174 -0.319595E-06  0.877E-04    0.78      11.8  T
  10   -155.3316175 -0.345909E-07  0.477E-04    0.78      21.6  T
     SCC iter.                  ...        0 min,  0.487 sec
     gradient                   ...        0 min,  0.091 sec
 * total energy  :  -152.8491238 Eh     change        0.1841723E-03 Eh
   gradient norm :     0.0402650 Eh/α   predicted     0.0000000E+00 (-100.00%)
   displ. norm   :     0.2703901 α      lambda       -0.2898338E-02
   maximum displ.:     0.1093245 α      in ANC's #7, #18, #9, ...

........................................................................
.............................. CYCLE   22 ..............................
........................................................................
   1   -155.3307049 -0.155331E+03  0.170E-01    0.79       0.0  T
   2   -155.3307237 -0.188643E-04  0.846E-02    0.79       1.0  T
   3   -155.3302305  0.493262E-03  0.664E-02    0.79       1.0  T
   4   -155.3307383 -0.507784E-03  0.163E-02    0.79       1.0  T
   5   -155.3307411 -0.280588E-05  0.109E-02    0.79       1.0  T
   6   -155.3307518 -0.107140E-04  0.423E-03    0.79       2.4  T
   7   -155.3307535 -0.173225E-05  0.181E-03    0.79       5.7  T
   8   -155.3307538 -0.274356E-06  0.965E-04    0.79      10.7  T
     SCC iter.                  ...        0 min,  0.573 sec
     gradient                   ...        0 min,  0.077 sec
 * total energy  :  -152.8509454 Eh     change       -0.1821642E-02 Eh
   gradient norm :     0.0111147 Eh/α   predicted    -0.1555119E-02 ( -14.63%)
   displ. norm   :     0.2693473 α      lambda       -0.9598240E-03
   maximum displ.:     0.1049573 α      in ANC's #7, #18, #37, ...

........................................................................
.............................. CYCLE   23 ..............................
........................................................................
   1   -155.3310588 -0.155331E+03  0.116E-01    0.79       0.0  T
   2   -155.3310706 -0.118702E-04  0.599E-02    0.79       1.0  T
   3   -155.3310613  0.930519E-05  0.150E-02    0.79       1.0  T
   4   -155.3310601  0.124970E-05  0.124E-02    0.79       1.0  T
   5   -155.3310635 -0.343497E-05  0.908E-03    0.79       1.1  T
   6   -155.3310740 -0.104419E-04  0.220E-03    0.79       4.7  T
   7   -155.3310745 -0.508794E-06  0.672E-04    0.79      15.4  T
   8   -155.3310745 -0.503894E-08  0.564E-04    0.79      18.3  T
     SCC iter.                  ...        0 min,  0.359 sec
     gradient                   ...        0 min,  0.082 sec
 * total energy  :  -152.8516088 Eh     change       -0.6633992E-03 Eh
   gradient norm :     0.0073021 Eh/α   predicted    -0.5147294E-03 ( -22.41%)
   displ. norm   :     0.4092779 α      lambda       -0.8501885E-03
   maximum displ.:     0.1746369 α      in ANC's #7, #18, #9, ...

........................................................................
.............................. CYCLE   24 ..............................
........................................................................
   1   -155.3302703 -0.155330E+03  0.152E-01    0.79       0.0  T
   2   -155.3302868 -0.165454E-04  0.800E-02    0.79       1.0  T
   3   -155.3302670  0.197768E-04  0.197E-02    0.79       1.0  T
   4   -155.3302551  0.119194E-04  0.193E-02    0.79       1.0  T
   5   -155.3302821 -0.269657E-04  0.919E-03    0.79       1.1  T
   6   -155.3302918 -0.970648E-05  0.251E-03    0.79       4.1  T
   7   -155.3302925 -0.745737E-06  0.896E-04    0.79      11.5  T
   8   -155.3302925 -0.539035E-08  0.691E-04    0.79      14.9  T
     SCC iter.                  ...        0 min,  0.364 sec
     gradient                   ...        0 min,  0.079 sec
 * total energy  :  -152.8523360 Eh     change       -0.7272066E-03 Eh
   gradient norm :     0.0142411 Eh/α   predicted    -0.4963929E-03 ( -31.74%)
   displ. norm   :     0.6387452 α      lambda       -0.1269802E-02
   maximum displ.:     0.2842084 α      in ANC's #7, #18, #9, ...

........................................................................
.............................. CYCLE   25 ..............................
........................................................................
   1   -155.3284384 -0.155328E+03  0.235E-01    0.79       0.0  T
   2   -155.3284784 -0.400235E-04  0.123E-01    0.79       1.0  T
   3   -155.3284346  0.438167E-04  0.298E-02    0.79       1.0  T
   4   -155.3284023  0.323434E-04  0.298E-02    0.79       1.0  T
   5   -155.3284688 -0.665659E-04  0.139E-02    0.79       1.0  T
   6   -155.3284904 -0.215583E-04  0.364E-03    0.79       2.8  T
   7   -155.3284920 -0.160899E-05  0.126E-03    0.79       8.2  T
   8   -155.3284921 -0.662440E-07  0.677E-04    0.79      15.2  T
     SCC iter.                  ...        0 min,  0.561 sec
     gradient                   ...        0 min,  0.056 sec
 * total energy  :  -152.8534374 Eh     change       -0.1101395E-02 Eh
   gradient norm :     0.0151462 Eh/α   predicted    -0.8939388E-03 ( -18.84%)
   displ. norm   :     0.6983193 α      lambda       -0.1370000E-02
   maximum displ.:     0.3324246 α      in ANC's #7, #18, #9, ...

........................................................................
.............................. CYCLE   26 ..............................
........................................................................
   1   -155.3281276 -0.155328E+03  0.242E-01    0.78       0.0  T
   2   -155.3281683 -0.407151E-04  0.127E-01    0.78       1.0  T
   3   -155.3280391  0.129251E-03  0.403E-02    0.78       1.0  T
   4   -155.3281081 -0.690436E-04  0.291E-02    0.78       1.0  T
   5   -155.3281592 -0.510829E-04  0.146E-02    0.78       1.0  T
   6   -155.3281843 -0.250718E-04  0.365E-03    0.78       2.8  T
   7   -155.3281858 -0.154979E-05  0.128E-03    0.78       8.1  T
   8   -155.3281859 -0.531749E-07  0.719E-04    0.78      14.3  T
     SCC iter.                  ...        0 min,  0.364 sec
     gradient                   ...        0 min,  0.077 sec
 * total energy  :  -152.8546095 Eh     change       -0.1172098E-02 Eh
   gradient norm :     0.0111458 Eh/α   predicted    -0.1019058E-02 ( -13.06%)
   displ. norm   :     0.7015095 α      lambda       -0.1257312E-02
   maximum displ.:     0.3540559 α      in ANC's #7, #9, #18, ...

........................................................................
.............................. CYCLE   27 ..............................
........................................................................
   1   -155.3298273 -0.155330E+03  0.227E-01    0.78       0.0  T
   2   -155.3298637 -0.363964E-04  0.118E-01    0.78       1.0  T
   3   -155.3297645  0.991858E-04  0.369E-02    0.78       1.0  T
   4   -155.3298201 -0.555861E-04  0.258E-02    0.78       1.0  T
   5   -155.3298447 -0.245553E-04  0.161E-02    0.78       1.0  T
   6   -155.3298779 -0.331949E-04  0.336E-03    0.78       3.1  T
   7   -155.3298791 -0.128127E-05  0.116E-03    0.78       8.9  T
   8   -155.3298792 -0.199942E-07  0.774E-04    0.78      13.3  T
     SCC iter.                  ...        0 min,  0.389 sec
     gradient                   ...        0 min,  0.078 sec
 * total energy  :  -152.8556786 Eh     change       -0.1069085E-02 Eh
   gradient norm :     0.0073045 Eh/α   predicted    -0.9380303E-03 ( -12.26%)
   displ. norm   :     0.7444916 α      lambda       -0.1076163E-02
   maximum displ.:     0.3857763 α      in ANC's #7, #9, #10, ...

........................................................................
.............................. CYCLE   28 ..............................
........................................................................
   1   -155.3290156 -0.155329E+03  0.226E-01    0.77       0.0  T
   2   -155.3290483 -0.326548E-04  0.118E-01    0.78       1.0  T
   3   -155.3289454  0.102914E-03  0.372E-02    0.77       1.0  T
   4   -155.3290048 -0.594176E-04  0.255E-02    0.78       1.0  T
   5   -155.3290200 -0.152147E-04  0.175E-02    0.78       1.0  T
   6   -155.3290617 -0.417371E-04  0.332E-03    0.78       3.1  T
   7   -155.3290629 -0.121204E-05  0.117E-03    0.77       8.8  T
   8   -155.3290629  0.195187E-07  0.975E-04    0.77      10.6  T
     SCC iter.                  ...        0 min,  0.379 sec
     gradient                   ...        0 min,  0.077 sec
 * total energy  :  -152.8566145 Eh     change       -0.9359556E-03 Eh
   gradient norm :     0.0075460 Eh/α   predicted    -0.8363286E-03 ( -10.64%)
   displ. norm   :     0.7308688 α      lambda       -0.9978618E-03
   maximum displ.:     0.4039218 α      in ANC's #7, #9, #10, ...

........................................................................
.............................. CYCLE   29 ..............................
........................................................................
   1   -155.3324120 -0.155332E+03  0.202E-01    0.77       0.0  T
   2   -155.3324378 -0.257502E-04  0.107E-01    0.77       1.0  T
   3   -155.3323743  0.634973E-04  0.298E-02    0.77       1.0  T
   4   -155.3324143 -0.400137E-04  0.202E-02    0.77       1.0  T
   5   -155.3324157 -0.138842E-05  0.161E-02    0.77       1.0  T
   6   -155.3324476 -0.318870E-04  0.379E-03    0.77       2.7  T
   7   -155.3324492 -0.164802E-05  0.103E-03    0.77      10.0  T
   8   -155.3324492 -0.253074E-07  0.721E-04    0.77      14.3  T
     SCC iter.                  ...        0 min,  0.551 sec
     gradient                   ...        0 min,  0.076 sec
 * total energy  :  -152.8574465 Eh     change       -0.8319526E-03 Eh
   gradient norm :     0.0083349 Eh/α   predicted    -0.7654446E-03 (  -7.99%)
   displ. norm   :     0.8154622 α      lambda       -0.9762864E-03
   maximum displ.:     0.4356774 α      in ANC's #7, #9, #10, ...

........................................................................
.............................. CYCLE   30 ..............................
........................................................................
   1   -155.3248698 -0.155325E+03  0.235E-01    0.77       0.0  T
   2   -155.3249051 -0.353062E-04  0.124E-01    0.77       1.0  T
   3   -155.3248550  0.500609E-04  0.305E-02    0.77       1.0  T
   4   -155.3248315  0.235547E-04  0.289E-02    0.77       1.0  T
   5   -155.3248813 -0.498669E-04  0.156E-02    0.77       1.0  T
   6   -155.3249162 -0.348871E-04  0.283E-03    0.77       3.6  T
   7   -155.3249172 -0.924596E-06  0.102E-03    0.77      10.1  T
   8   -155.3249171  0.725782E-08  0.779E-04    0.77      13.2  T
     SCC iter.                  ...        0 min,  0.372 sec
     gradient                   ...        0 min,  0.076 sec
 * total energy  :  -152.8582047 Eh     change       -0.7582257E-03 Eh
   gradient norm :     0.0107016 Eh/α   predicted    -0.8127487E-03 (   7.19%)
   displ. norm   :     0.6735599 α      lambda       -0.9080501E-03
   maximum displ.:     0.3887470 α      in ANC's #7, #9, #8, ...

........................................................................
.............................. CYCLE   31 ..............................
........................................................................
   1   -155.3277055 -0.155328E+03  0.181E-01    0.77       0.0  T
   2   -155.3277243 -0.188345E-04  0.955E-02    0.77       1.0  T
   3   -155.3276485  0.758588E-04  0.291E-02    0.77       1.0  T
   4   -155.3276786 -0.301332E-04  0.228E-02    0.76       1.0  T
   5   -155.3277113 -0.327114E-04  0.136E-02    0.77       1.0  T
   6   -155.3277322 -0.209099E-04  0.320E-03    0.77       3.2  T
   7   -155.3277334 -0.114196E-05  0.846E-04    0.77      12.2  T
   8   -155.3277334 -0.116606E-07  0.569E-04    0.77      18.1  T
     SCC iter.                  ...        0 min,  0.360 sec
     gradient                   ...        0 min,  0.078 sec
 * total energy  :  -152.8589870 Eh     change       -0.7822551E-03 Eh
   gradient norm :     0.0085322 Eh/α   predicted    -0.6600085E-03 ( -15.63%)
   displ. norm   :     0.7365325 α      lambda       -0.1018897E-02
   maximum displ.:     0.4303128 α      in ANC's #7, #9, #8, ...

........................................................................
.............................. CYCLE   32 ..............................
........................................................................
   1   -155.3325571 -0.155333E+03  0.192E-01    0.76       0.0  T
   2   -155.3325797 -0.225598E-04  0.102E-01    0.76       1.0  T
   3   -155.3325528  0.268879E-04  0.224E-02    0.76       1.0  T
   4   -155.3325207  0.320500E-04  0.232E-02    0.76       1.0  T
   5   -155.3325624 -0.417348E-04  0.145E-02    0.76       1.0  T
   6   -155.3325865 -0.240354E-04  0.312E-03    0.76       3.3  T
   7   -155.3325875 -0.104807E-05  0.973E-04    0.76      10.6  T
   8   -155.3325875 -0.125319E-07  0.697E-04    0.76      14.8  T
     SCC iter.                  ...        0 min,  0.362 sec
     gradient                   ...        0 min,  0.256 sec
 * total energy  :  -152.8598269 Eh     change       -0.8398998E-03 Eh
   gradient norm :     0.0079691 Eh/α   predicted    -0.7858174E-03 (  -6.44%)
   displ. norm   :     0.8251304 α      lambda       -0.9573147E-03
   maximum displ.:     0.4823061 α      in ANC's #7, #9, #8, ...

........................................................................
.............................. CYCLE   33 ..............................
........................................................................
   1   -155.3308788 -0.155331E+03  0.227E-01    0.76       0.0  T
   2   -155.3309116 -0.328143E-04  0.120E-01    0.76       1.0  T
   3   -155.3308903  0.212427E-04  0.245E-02    0.76       1.0  T
   4   -155.3308262  0.641728E-04  0.280E-02    0.76       1.0  T
   5   -155.3309010 -0.747970E-04  0.129E-02    0.76       1.0  T
   6   -155.3309205 -0.195045E-04  0.304E-03    0.76       3.4  T
   7   -155.3309216 -0.109704E-05  0.944E-04    0.76      10.9  T
   8   -155.3309215  0.481007E-07  0.917E-04    0.76      11.3  T
     SCC iter.                  ...        0 min,  0.366 sec
     gradient                   ...        0 min,  0.078 sec
 * total energy  :  -152.8606279 Eh     change       -0.8010402E-03 Eh
   gradient norm :     0.0090222 Eh/α   predicted    -0.8045467E-03 (   0.44%)
   displ. norm   :     0.8070460 α      lambda       -0.9458946E-03
   maximum displ.:     0.4768299 α      in ANC's #7, #9, #8, ...

........................................................................
.............................. CYCLE   34 ..............................
........................................................................
   1   -155.3284051 -0.155328E+03  0.230E-01    0.76       0.0  T
   2   -155.3284375 -0.324812E-04  0.120E-01    0.76       1.0  T
   3   -155.3283459  0.916528E-04  0.348E-02    0.76       1.0  T
   4   -155.3283342  0.117007E-04  0.321E-02    0.76       1.0  T
   5   -155.3284320 -0.977755E-04  0.109E-02    0.76       1.0  T
   6   -155.3284494 -0.174422E-04  0.194E-03    0.76       5.3  T
   7   -155.3284496 -0.199362E-06  0.144E-03    0.76       7.1  T
   8   -155.3284497 -0.121648E-06  0.936E-04    0.76      11.0  T
     SCC iter.                  ...        0 min,  0.358 sec
     gradient                   ...        0 min,  0.080 sec
 * total energy  :  -152.8613748 Eh     change       -0.7469217E-03 Eh
   gradient norm :     0.0091232 Eh/α   predicted    -0.7809979E-03 (   4.56%)
   displ. norm   :     0.7004149 α      lambda       -0.8639470E-03
   maximum displ.:     0.4205985 α      in ANC's #7, #8, #9, ...

........................................................................
.............................. CYCLE   35 ..............................
........................................................................
   1   -155.3375378 -0.155338E+03  0.208E-01    0.76       0.0  T
   2   -155.3375506 -0.128173E-04  0.109E-01    0.76       1.0  T
   3   -155.3368917  0.658855E-03  0.699E-02    0.76       1.0  T
   4   -155.3375557 -0.664014E-03  0.210E-02    0.76       1.0  T
   5   -155.3375633 -0.752689E-05  0.130E-02    0.76       1.0  T
   6   -155.3375804 -0.170767E-04  0.299E-03    0.76       3.5  T
   7   -155.3375812 -0.801366E-06  0.171E-03    0.76       6.0  T
   8   -155.3375813 -0.170259E-06  0.116E-03    0.76       8.9  T
     SCC iter.                  ...        0 min,  0.364 sec
     gradient                   ...        0 min,  0.078 sec
 * total energy  :  -152.8620038 Eh     change       -0.6289195E-03 Eh
   gradient norm :     0.0092027 Eh/α   predicted    -0.6438962E-03 (   2.38%)
   displ. norm   :     0.8188096 α      lambda       -0.8296587E-03
   maximum displ.:     0.4942061 α      in ANC's #7, #9, #8, ...

........................................................................
.............................. CYCLE   36 ..............................
........................................................................
   1   -155.3264299 -0.155326E+03  0.229E-01    0.76       0.0  T
   2   -155.3264624 -0.325392E-04  0.121E-01    0.76       1.0  T
   3   -155.3263877  0.746760E-04  0.335E-02    0.76       1.0  T
   4   -155.3263884 -0.619872E-06  0.288E-02    0.76       1.0  T
   5   -155.3264379 -0.495081E-04  0.157E-02    0.76       1.0  T
   6   -155.3264737 -0.358425E-04  0.263E-03    0.76       3.9  T
   7   -155.3264746 -0.875695E-06  0.111E-03    0.76       9.3  T
   8   -155.3264746 -0.214154E-07  0.944E-04    0.76      10.9  T
     SCC iter.                  ...        0 min,  0.549 sec
     gradient                   ...        0 min,  0.074 sec
 * total energy  :  -152.8625584 Eh     change       -0.5546769E-03 Eh
   gradient norm :     0.0115138 Eh/α   predicted    -0.6929523E-03 (  24.93%)
   displ. norm   :     0.5777220 α      lambda       -0.6795423E-03
   maximum displ.:     0.3581887 α      in ANC's #7, #8, #9, ...

........................................................................
.............................. CYCLE   37 ..............................
........................................................................
   1   -155.3300126 -0.155330E+03  0.170E-01    0.75       0.0  T
   2   -155.3300204 -0.783727E-05  0.885E-02    0.75       1.0  T
   3   -155.3295275  0.492927E-03  0.617E-02    0.76       1.0  T
   4   -155.3300263 -0.498791E-03  0.161E-02    0.75       1.0  T
   5   -155.3300337 -0.742084E-05  0.954E-03    0.75       1.1  T
   6   -155.3300410 -0.733629E-05  0.268E-03    0.75       3.8  T
   7   -155.3300418 -0.755570E-06  0.957E-04    0.75      10.8  T
   8   -155.3300418 -0.314690E-07  0.685E-04    0.75      15.1  T
     SCC iter.                  ...        0 min,  0.366 sec
     gradient                   ...        0 min,  0.077 sec
 * total energy  :  -152.8630290 Eh     change       -0.4705810E-03 Eh
   gradient norm :     0.0110749 Eh/α   predicted    -0.4531751E-03 (  -3.70%)
   displ. norm   :     0.5420750 α      lambda       -0.6893835E-03
   maximum displ.:     0.3398963 α      in ANC's #7, #8, #9, ...

........................................................................
.............................. CYCLE   38 ..............................
........................................................................
   1   -155.3385908 -0.155339E+03  0.172E-01    0.76       0.0  T
   2   -155.3386002 -0.940381E-05  0.900E-02    0.75       1.0  T
   3   -155.3380710  0.529156E-03  0.648E-02    0.75       1.0  T
   4   -155.3386003 -0.529308E-03  0.183E-02    0.75       1.0  T
   5   -155.3386089 -0.854228E-05  0.118E-02    0.75       1.0  T
   6   -155.3386230 -0.141169E-04  0.407E-03    0.75       2.5  T
   7   -155.3386246 -0.159260E-05  0.198E-03    0.75       5.2  T
   8   -155.3386250 -0.403420E-06  0.929E-04    0.75      11.1  T
     SCC iter.                  ...        0 min,  0.368 sec
     gradient                   ...        0 min,  0.080 sec
 * total energy  :  -152.8634562 Eh     change       -0.4272263E-03 Eh
   gradient norm :     0.0101711 Eh/α   predicted    -0.4459850E-03 (   4.39%)
   displ. norm   :     0.6522109 α      lambda       -0.6307315E-03
   maximum displ.:     0.4067547 α      in ANC's #7, #8, #9, ...

........................................................................
.............................. CYCLE   39 ..............................
........................................................................
   1   -155.3351177 -0.155335E+03  0.192E-01    0.75       0.0  T
   2   -155.3351422 -0.245391E-04  0.992E-02    0.75       1.0  T
   3   -155.3350759  0.662796E-04  0.290E-02    0.75       1.0  T
   4   -155.3350934 -0.174954E-04  0.231E-02    0.75       1.0  T
   5   -155.3351196 -0.261387E-04  0.174E-02    0.75       1.0  T
   6   -155.3351518 -0.321810E-04  0.378E-03    0.75       2.7  T
   7   -155.3351536 -0.181123E-05  0.106E-03    0.75       9.7  T
   8   -155.3351536 -0.297192E-07  0.764E-04    0.75      13.5  T
     SCC iter.                  ...        0 min,  0.363 sec
     gradient                   ...        0 min,  0.078 sec
 * total energy  :  -152.8638266 Eh     change       -0.3703832E-03 Eh
   gradient norm :     0.0106187 Eh/α   predicted    -0.4495181E-03 (  21.37%)
   displ. norm   :     0.6269852 α      lambda       -0.5170036E-03
   maximum displ.:     0.3912237 α      in ANC's #7, #8, #9, ...

........................................................................
.............................. CYCLE   40 ..............................
........................................................................
   1   -155.3275309 -0.155328E+03  0.194E-01    0.75       0.0  T
   2   -155.3275581 -0.272239E-04  0.101E-01    0.75       1.0  T
   3   -155.3275182  0.399312E-04  0.252E-02    0.75       1.0  T
   4   -155.3274829  0.352908E-04  0.272E-02    0.75       1.0  T
   5   -155.3275483 -0.654160E-04  0.123E-02    0.75       1.0  T
   6   -155.3275655 -0.171636E-04  0.343E-03    0.75       3.0  T
   7   -155.3275671 -0.159871E-05  0.116E-03    0.75       8.9  T
   8   -155.3275672 -0.748415E-07  0.835E-04    0.75      12.4  T
     SCC iter.                  ...        0 min,  0.379 sec
     gradient                   ...        0 min,  0.075 sec
 * total energy  :  -152.8640855 Eh     change       -0.2588383E-03 Eh
   gradient norm :     0.0094477 Eh/α   predicted    -0.3601225E-03 (  39.13%)
   displ. norm   :     0.3600347 α      lambda       -0.4180571E-03
   maximum displ.:     0.2153181 α      in ANC's #7, #8, #12, ...

........................................................................
.............................. CYCLE   41 ..............................
........................................................................
   1   -155.3347419 -0.155335E+03  0.114E-01    0.75       0.0  T
   2   -155.3347402  0.173267E-05  0.604E-02    0.75       1.0  T
   3   -155.3342790  0.461190E-03  0.585E-02    0.75       1.0  T
   4   -155.3347416 -0.462612E-03  0.146E-02    0.75       1.0  T
   5   -155.3347574 -0.158146E-04  0.759E-03    0.75       1.4  T
   6   -155.3347599 -0.248865E-05  0.309E-03    0.75       3.3  T
   7   -155.3347607 -0.803514E-06  0.136E-03    0.75       7.6  T
   8   -155.3347609 -0.158809E-06  0.692E-04    0.75      14.9  T
     SCC iter.                  ...        0 min,  0.370 sec
     gradient                   ...        0 min,  0.087 sec
 * total energy  :  -152.8643067 Eh     change       -0.2212310E-03 Eh
   gradient norm :     0.0083229 Eh/α   predicted    -0.2361273E-03 (   6.73%)
   displ. norm   :     0.4596865 α      lambda       -0.3689554E-03
   maximum displ.:     0.2863880 α      in ANC's #7, #8, #12, ...

........................................................................
.............................. CYCLE   42 ..............................
........................................................................
   1   -155.3361548 -0.155336E+03  0.139E-01    0.75       0.0  T
   2   -155.3361681 -0.132793E-04  0.733E-02    0.75       1.0  T
   3   -155.3361027  0.653761E-04  0.267E-02    0.75       1.0  T
   4   -155.3361458 -0.430283E-04  0.170E-02    0.75       1.0  T
   5   -155.3361572 -0.114281E-04  0.122E-02    0.75       1.0  T
   6   -155.3361739 -0.167502E-04  0.353E-03    0.75       2.9  T
   7   -155.3361754 -0.147914E-05  0.111E-03    0.75       9.3  T
   8   -155.3361755 -0.808289E-07  0.748E-04    0.75      13.8  T
     SCC iter.                  ...        0 min,  0.357 sec
     gradient                   ...        0 min,  0.076 sec
 * total energy  :  -152.8644696 Eh     change       -0.1628766E-03 Eh
   gradient norm :     0.0102159 Eh/α   predicted    -0.2234613E-03 (  37.20%)
   displ. norm   :     0.3968851 α      lambda       -0.2883112E-03
   maximum displ.:     0.2509775 α      in ANC's #7, #8, #12, ...
 * RMSD in coord.:     1.2730413 α      energy gain  -0.1516164E-01 Eh

generating ANC from model Hessian ...
Using Lindh-Hessian (1995)
 Shifting diagonal of input Hessian by   4.984794929327011E-003
 Lowest  eigenvalues of input Hessian
   -0.000000   -0.000000    0.000000    0.000000    0.000000    0.000000
    0.005000    0.005026    0.005056    0.005076    0.005129    0.005182
    0.005247    0.005353    0.005492    0.005533    0.005678    0.005875
 Highest eigenvalues
    2.054935    2.077002    2.095374    2.110432    2.121486    2.133797
 

........................................................................
.............................. CYCLE   43 ..............................
........................................................................
   1   -155.3355505 -0.155336E+03  0.127E-01    0.75       0.0  T
   2   -155.3355583 -0.779453E-05  0.656E-02    0.75       1.0  T
   3   -155.3353738  0.184494E-03  0.391E-02    0.75       1.0  T
   4   -155.3355467 -0.172899E-03  0.161E-02    0.75       1.0  T
   5   -155.3355560 -0.933165E-05  0.114E-02    0.75       1.0  T
   6   -155.3355690 -0.129331E-04  0.361E-03    0.75       2.9  T
   7   -155.3355707 -0.167677E-05  0.110E-03    0.75       9.4  T
   8   -155.3355707 -0.388934E-07  0.898E-04    0.75      11.5  T
   9   -155.3355708 -0.729186E-07  0.408E-04    0.75      25.3  T
     SCC iter.                  ...        0 min,  0.576 sec
     gradient                   ...        0 min,  0.081 sec
 * total energy  :  -152.8646169 Eh     change       -0.1473798E-03 Eh
   gradient norm :     0.0083253 Eh/α   predicted     0.0000000E+00 (-100.00%)
   displ. norm   :     0.1169384 α      lambda       -0.2262412E-03
   maximum displ.:     0.0478374 α      in ANC's #7, #33, #11, ...

........................................................................
.............................. CYCLE   44 ..............................
........................................................................
   1   -155.3375580 -0.155338E+03  0.392E-02    0.75       0.0  T
   2   -155.3375588 -0.819482E-06  0.213E-02    0.75       1.0  T
   3   -155.3375508  0.802356E-05  0.879E-03    0.75       1.2  T
   4   -155.3375574 -0.656678E-05  0.467E-03    0.75       2.2  T
   5   -155.3375578 -0.415091E-06  0.376E-03    0.75       2.7  T
   6   -155.3375593 -0.157438E-05  0.122E-03    0.75       8.5  T
   7   -155.3375595 -0.194301E-06  0.258E-04    0.75      40.0  T
     SCC iter.                  ...        0 min,  0.319 sec
     gradient                   ...        0 min,  0.076 sec
 * total energy  :  -152.8647903 Eh     change       -0.1733075E-03 Eh
   gradient norm :     0.0031575 Eh/α   predicted    -0.1147037E-03 ( -33.81%)
   displ. norm   :     0.1663504 α      lambda       -0.1853467E-03
   maximum displ.:     0.0750860 α      in ANC's #33, #7, #11, ...

........................................................................
.............................. CYCLE   45 ..............................
........................................................................
   1   -155.3388724 -0.155339E+03  0.566E-02    0.75       0.0  T
   2   -155.3388740 -0.157100E-05  0.308E-02    0.75       1.0  T
   3   -155.3388592  0.147389E-04  0.119E-02    0.75       1.0  T
   4   -155.3388703 -0.110347E-04  0.689E-03    0.75       1.5  T
   5   -155.3388725 -0.218796E-05  0.471E-03    0.75       2.2  T
   6   -155.3388749 -0.245571E-05  0.146E-03    0.75       7.1  T
   7   -155.3388752 -0.258255E-06  0.432E-04    0.75      23.9  T
   8   -155.3388752 -0.404077E-08  0.366E-04    0.75      28.2  T
     SCC iter.                  ...        0 min,  0.377 sec
     gradient                   ...        0 min,  0.080 sec
 * total energy  :  -152.8649316 Eh     change       -0.1413650E-03 Eh
   gradient norm :     0.0035241 Eh/α   predicted    -0.9523776E-04 ( -32.63%)
   displ. norm   :     0.3076247 α      lambda       -0.2371412E-03
   maximum displ.:     0.1286972 α      in ANC's #33, #7, #27, ...

........................................................................
.............................. CYCLE   46 ..............................
........................................................................
   1   -155.3386429 -0.155339E+03  0.982E-02    0.76       0.0  T
   2   -155.3386469 -0.395607E-05  0.543E-02    0.76       1.0  T
   3   -155.3386203  0.265779E-04  0.166E-02    0.76       1.0  T
   4   -155.3386316 -0.112388E-04  0.124E-02    0.76       1.0  T
   5   -155.3386441 -0.124949E-04  0.665E-03    0.76       1.6  T
   6   -155.3386488 -0.479191E-05  0.190E-03    0.76       5.4  T
   7   -155.3386493 -0.427997E-06  0.532E-04    0.76      19.4  T
   8   -155.3386493  0.403281E-08  0.482E-04    0.76      21.4  T
     SCC iter.                  ...        0 min,  0.363 sec
     gradient                   ...        0 min,  0.084 sec
 * total energy  :  -152.8651016 Eh     change       -0.1699350E-03 Eh
   gradient norm :     0.0077675 Eh/α   predicted    -0.1298146E-03 ( -23.61%)
   displ. norm   :     0.3225260 α      lambda       -0.2199616E-03
   maximum displ.:     0.1190149 α      in ANC's #7, #33, #27, ...

........................................................................
.............................. CYCLE   47 ..............................
........................................................................
   1   -155.3374165 -0.155337E+03  0.104E-01    0.76       0.0  T
   2   -155.3374222 -0.561109E-05  0.572E-02    0.76       1.0  T
   3   -155.3374123  0.981454E-05  0.133E-02    0.76       1.0  T
   4   -155.3374117  0.601217E-06  0.110E-02    0.76       1.0  T
   5   -155.3374137 -0.199811E-05  0.917E-03    0.76       1.1  T
   6   -155.3374244 -0.106640E-04  0.154E-03    0.76       6.7  T
   7   -155.3374246 -0.207120E-06  0.612E-04    0.76      16.9  T
   8   -155.3374246  0.300508E-08  0.558E-04    0.76      18.5  T
     SCC iter.                  ...        0 min,  0.473 sec
     gradient                   ...        0 min,  0.075 sec
 * total energy  :  -152.8652733 Eh     change       -0.1717812E-03 Eh
   gradient norm :     0.0092939 Eh/α   predicted    -0.1214224E-03 ( -29.32%)
   displ. norm   :     0.3835717 α      lambda       -0.3239052E-03
   maximum displ.:     0.1581992 α      in ANC's #7, #11, #27, ...

........................................................................
.............................. CYCLE   48 ..............................
........................................................................
   1   -155.3362058 -0.155336E+03  0.126E-01    0.76       0.0  T
   2   -155.3362149 -0.911325E-05  0.688E-02    0.76       1.0  T
   3   -155.3361816  0.332774E-04  0.217E-02    0.76       1.0  T
   4   -155.3362061 -0.244476E-04  0.129E-02    0.76       1.0  T
   5   -155.3361997  0.643025E-05  0.126E-02    0.76       1.0  T
   6   -155.3362195 -0.198047E-04  0.303E-03    0.76       3.4  T
   7   -155.3362206 -0.116460E-05  0.831E-04    0.76      12.4  T
   8   -155.3362206 -0.136368E-07  0.628E-04    0.76      16.4  T
     SCC iter.                  ...        0 min,  0.369 sec
     gradient                   ...        0 min,  0.076 sec
 * total energy  :  -152.8655110 Eh     change       -0.2376412E-03 Eh
   gradient norm :     0.0078207 Eh/α   predicted    -0.1857836E-03 ( -21.82%)
   displ. norm   :     0.3025601 α      lambda       -0.2788151E-03
   maximum displ.:     0.1441551 α      in ANC's #7, #10, #11, ...

........................................................................
.............................. CYCLE   49 ..............................
........................................................................
   1   -155.3371579 -0.155337E+03  0.104E-01    0.76       0.0  T
   2   -155.3371647 -0.681535E-05  0.564E-02    0.77       1.0  T
   3   -155.3370708  0.938478E-04  0.303E-02    0.76       1.0  T
   4   -155.3371455 -0.747127E-04  0.156E-02    0.77       1.0  T
   5   -155.3371640 -0.185030E-04  0.892E-03    0.77       1.2  T
   6   -155.3371712 -0.715661E-05  0.317E-03    0.77       3.3  T
   7   -155.3371724 -0.124258E-05  0.817E-04    0.77      12.6  T
   8   -155.3371725 -0.235693E-07  0.568E-04    0.77      18.1  T
     SCC iter.                  ...        0 min,  0.368 sec
     gradient                   ...        0 min,  0.076 sec
 * total energy  :  -152.8657006 Eh     change       -0.1896702E-03 Eh
   gradient norm :     0.0049319 Eh/α   predicted    -0.1521705E-03 ( -19.77%)
   displ. norm   :     0.4354729 α      lambda       -0.2127021E-03
   maximum displ.:     0.1991387 α      in ANC's #7, #10, #27, ...

........................................................................
.............................. CYCLE   50 ..............................
........................................................................
   1   -155.3338592 -0.155334E+03  0.136E-01    0.77       0.0  T
   2   -155.3338701 -0.108894E-04  0.740E-02    0.77       1.0  T
   3   -155.3338173  0.527952E-04  0.253E-02    0.77       1.0  T
   4   -155.3338447 -0.273537E-04  0.174E-02    0.77       1.0  T
   5   -155.3338594 -0.147692E-04  0.118E-02    0.77       1.0  T
   6   -155.3338756 -0.161877E-04  0.296E-03    0.77       3.5  T
   7   -155.3338767 -0.113337E-05  0.785E-04    0.77      13.1  T
   8   -155.3338768 -0.177261E-07  0.545E-04    0.77      18.9  T
     SCC iter.                  ...        0 min,  0.571 sec
     gradient                   ...        0 min,  0.075 sec
 * total energy  :  -152.8658238 Eh     change       -0.1231366E-03 Eh
   gradient norm :     0.0078500 Eh/α   predicted    -0.1265343E-03 (   2.76%)
   displ. norm   :     0.2337005 α      lambda       -0.2349692E-03
   maximum displ.:     0.1241617 α      in ANC's #7, #10, #4, ...

........................................................................
.............................. CYCLE   51 ..............................
........................................................................
   1   -155.3376258 -0.155338E+03  0.821E-02    0.77       0.0  T
   2   -155.3376304 -0.455173E-05  0.428E-02    0.77       1.0  T
   3   -155.3375872  0.432006E-04  0.202E-02    0.77       1.0  T
   4   -155.3376215 -0.343655E-04  0.108E-02    0.77       1.0  T
   5   -155.3376296 -0.806267E-05  0.601E-03    0.77       1.7  T
   6   -155.3376334 -0.382073E-05  0.141E-03    0.77       7.3  T
   7   -155.3376337 -0.240259E-06  0.458E-04    0.77      22.5  T
   8   -155.3376337 -0.117473E-07  0.272E-04    0.77      38.0  T
     SCC iter.                  ...        0 min,  0.381 sec
     gradient                   ...        0 min,  0.081 sec
 * total energy  :  -152.8659770 Eh     change       -0.1532474E-03 Eh
   gradient norm :     0.0051528 Eh/α   predicted    -0.1239034E-03 ( -19.15%)
   displ. norm   :     0.3389138 α      lambda       -0.1650409E-03
   maximum displ.:     0.1798982 α      in ANC's #7, #10, #27, ...

........................................................................
.............................. CYCLE   52 ..............................
........................................................................
   1   -155.3381138 -0.155338E+03  0.107E-01    0.77       0.0  T
   2   -155.3381209 -0.710463E-05  0.569E-02    0.77       1.0  T
   3   -155.3381004  0.205576E-04  0.166E-02    0.77       1.0  T
   4   -155.3381031 -0.275530E-05  0.139E-02    0.77       1.0  T
   5   -155.3381158 -0.127056E-04  0.802E-03    0.77       1.3  T
   6   -155.3381238 -0.795483E-05  0.144E-03    0.77       7.1  T
   7   -155.3381240 -0.177216E-06  0.891E-04    0.77      11.6  T
   8   -155.3381240 -0.855205E-07  0.376E-04    0.77      27.4  T
     SCC iter.                  ...        0 min,  0.380 sec
     gradient                   ...        0 min,  0.081 sec
 * total energy  :  -152.8661095 Eh     change       -0.1325005E-03 Eh
   gradient norm :     0.0055457 Eh/α   predicted    -0.9200031E-04 ( -30.57%)
   displ. norm   :     0.4147769 α      lambda       -0.2327933E-03
   maximum displ.:     0.2279298 α      in ANC's #7, #10, #4, ...

........................................................................
.............................. CYCLE   53 ..............................
........................................................................
   1   -155.3386248 -0.155339E+03  0.130E-01    0.77       0.0  T
   2   -155.3386344 -0.952636E-05  0.689E-02    0.77       1.0  T
   3   -155.3386111  0.232933E-04  0.181E-02    0.77       1.0  T
   4   -155.3386077  0.333748E-05  0.166E-02    0.77       1.0  T
   5   -155.3386288 -0.210250E-04  0.876E-03    0.77       1.2  T
   6   -155.3386379 -0.917663E-05  0.172E-03    0.77       6.0  T
   7   -155.3386382 -0.308313E-06  0.555E-04    0.77      18.6  T
   8   -155.3386382  0.835104E-08  0.519E-04    0.77      19.9  T
     SCC iter.                  ...        0 min,  0.395 sec
     gradient                   ...        0 min,  0.080 sec
 * total energy  :  -152.8662907 Eh     change       -0.1811946E-03 Eh
   gradient norm :     0.0049045 Eh/α   predicted    -0.1364244E-03 ( -24.71%)
   displ. norm   :     0.4334592 α      lambda       -0.2149565E-03
   maximum displ.:     0.2412663 α      in ANC's #7, #10, #4, ...

........................................................................
.............................. CYCLE   54 ..............................
........................................................................
   1   -155.3387878 -0.155339E+03  0.136E-01    0.77       0.0  T
   2   -155.3387977 -0.987038E-05  0.720E-02    0.77       1.0  T
   3   -155.3387491  0.486119E-04  0.229E-02    0.77       1.0  T
   4   -155.3387658 -0.167500E-04  0.180E-02    0.77       1.0  T
   5   -155.3387939 -0.280647E-04  0.824E-03    0.77       1.3  T
   6   -155.3388020 -0.810620E-05  0.194E-03    0.77       5.3  T
   7   -155.3388024 -0.376887E-06  0.746E-04    0.77      13.8  T
   8   -155.3388024 -0.226210E-07  0.556E-04    0.77      18.6  T
     SCC iter.                  ...        0 min,  0.392 sec
     gradient                   ...        0 min,  0.085 sec
 * total energy  :  -152.8664539 Eh     change       -0.1632158E-03 Eh
   gradient norm :     0.0062581 Eh/α   predicted    -0.1276733E-03 ( -21.78%)
   displ. norm   :     0.4088971 α      lambda       -0.2065992E-03
   maximum displ.:     0.2327621 α      in ANC's #7, #10, #4, ...

........................................................................
.............................. CYCLE   55 ..............................
........................................................................
   1   -155.3393025 -0.155339E+03  0.130E-01    0.77       0.0  T
   2   -155.3393120 -0.953432E-05  0.687E-02    0.77       1.0  T
   3   -155.3392815  0.305081E-04  0.195E-02    0.77       1.0  T
   4   -155.3392785  0.298506E-05  0.178E-02    0.77       1.0  T
   5   -155.3393075 -0.289436E-04  0.849E-03    0.77       1.2  T
   6   -155.3393157 -0.826826E-05  0.166E-03    0.77       6.2  T
   7   -155.3393160 -0.276275E-06  0.650E-04    0.77      15.9  T
   8   -155.3393160 -0.465519E-09  0.573E-04    0.77      18.0  T
     SCC iter.                  ...        0 min,  0.400 sec
     gradient                   ...        0 min,  0.081 sec
 * total energy  :  -152.8665927 Eh     change       -0.1387719E-03 Eh
   gradient norm :     0.0059386 Eh/α   predicted    -0.1205759E-03 ( -13.11%)
   displ. norm   :     0.4814991 α      lambda       -0.1739735E-03
   maximum displ.:     0.2823589 α      in ANC's #7, #10, #4, ...

........................................................................
.............................. CYCLE   56 ..............................
........................................................................
   1   -155.3355228 -0.155336E+03  0.147E-01    0.77       0.0  T
   2   -155.3355361 -0.132897E-04  0.777E-02    0.78       1.0  T
   3   -155.3355201  0.159648E-04  0.179E-02    0.78       1.0  T
   4   -155.3354915  0.285773E-04  0.199E-02    0.78       1.0  T
   5   -155.3355271 -0.355740E-04  0.105E-02    0.78       1.0  T
   6   -155.3355402 -0.131419E-04  0.213E-03    0.78       4.9  T
   7   -155.3355407 -0.487436E-06  0.678E-04    0.78      15.2  T
   8   -155.3355407 -0.139090E-07  0.419E-04    0.78      24.6  T
     SCC iter.                  ...        0 min,  0.384 sec
     gradient                   ...        0 min,  0.081 sec
 * total energy  :  -152.8666559 Eh     change       -0.6323244E-04 Eh
   gradient norm :     0.0073832 Eh/α   predicted    -0.1071626E-03 (  69.47%)
   displ. norm   :     0.1789906 α      lambda       -0.1977683E-03
   maximum displ.:     0.0746240 α      in ANC's #33, #7, #4, ...

........................................................................
.............................. CYCLE   57 ..............................
........................................................................
   1   -155.3415747 -0.155342E+03  0.599E-02    0.78       0.0  T
   2   -155.3415774 -0.264516E-05  0.321E-02    0.78       1.0  T
   3   -155.3415755  0.185322E-05  0.698E-03    0.78       1.5  T
   4   -155.3415722  0.333528E-05  0.715E-03    0.78       1.4  T
   5   -155.3415754 -0.321603E-05  0.462E-03    0.78       2.2  T
   6   -155.3415781 -0.263449E-05  0.119E-03    0.78       8.7  T
   7   -155.3415782 -0.143251E-06  0.386E-04    0.78      26.7  T
     SCC iter.                  ...        0 min,  0.546 sec
     gradient                   ...        0 min,  0.081 sec
 * total energy  :  -152.8667394 Eh     change       -0.8343248E-04 Eh
   gradient norm :     0.0046717 Eh/α   predicted    -0.1020514E-03 (  22.32%)
   displ. norm   :     0.1371298 α      lambda       -0.7628265E-04
[...]
      -------------------------------------------------------------
                  HL-Gap            0.0283769 Eh            0.7722 eV
             Fermi-level           -0.3214770 Eh           -8.7478 eV

     #   Z        covCN         q      C6AA      α(0)
     1   6 C      2.879    -0.104    30.621     9.072
     2   6 C      2.969     0.052    26.828     8.496
     3   6 C      3.048    -0.043    29.021     8.835
     4   6 C      3.050    -0.035    28.818     8.804
     5   6 C      3.020     0.027    27.380     8.583
     6  16 S      2.295    -0.087   144.687    20.245
     7   6 C      3.021     0.026    27.395     8.586
     8   6 C      3.056    -0.042    28.986     8.829
     9   6 C      3.068    -0.042    28.971     8.826
    10   6 C      2.977     0.034    27.236     8.560
    11  16 S      2.475    -0.070   143.965    20.194
    12   6 C      2.959    -0.054    29.337     8.884
    13   6 C      2.971     0.017    27.626     8.621
    14   6 C      3.155    -0.006    27.874     8.633
    15   6 C      2.910    -0.034    28.843     8.806
    16   6 C      2.915    -0.032    28.791     8.799
    17   6 C      2.921    -0.036    28.897     8.815
    18   6 C      2.964     0.010    27.789     8.647
    19   6 C      3.153    -0.002    27.774     8.619
    20   6 C      2.929    -0.031    28.777     8.797
    21  16 S      2.459     0.003   140.946    19.982
    22   6 C      2.900    -0.041    29.008     8.831
    23   6 C      2.903    -0.034    28.835     8.805
    24   6 C      2.966    -0.005    28.143     8.702
    25   6 C      2.890     0.116    25.437     8.269
    26   8 O      1.702    -0.304    19.056     5.894
    27   6 C      3.655     0.047    20.080     6.433
    28   6 C      2.965    -0.003    28.106     8.696
    29   6 C      2.925    -0.065    29.626     8.926
    30   6 C      2.859     0.138    24.985     8.193
    31   6 C      2.921    -0.078    29.944     8.974
    32   8 O      1.706    -0.270    18.481     5.804
    33   6 C      3.644     0.038    20.269     6.472
    34   6 C      2.906    -0.038    28.940     8.821
    35   6 C      2.927    -0.041    29.021     8.835
    36   6 C      2.976     0.012    27.731     8.638
    37   6 C      3.167    -0.005    27.796     8.615
    38   6 C      2.910    -0.033    28.823     8.803
    39   6 C      2.914    -0.031    28.766     8.795
    40   6 C      2.921    -0.035    28.868     8.811
    41   6 C      2.960     0.010    27.787     8.646
    42   6 C      3.156    -0.004    27.813     8.624
    43   6 C      2.930    -0.031    28.781     8.798
    44  16 S      2.308    -0.009   141.425    20.015
    45   6 C      2.906    -0.040    29.002     8.830
    46   6 C      2.899    -0.031    28.766     8.794
    47   6 C      2.935    -0.046    29.140     8.853
    48   6 C      2.981     0.038    27.149     8.547
    49   6 C      3.063    -0.042    28.970     8.826
    50   6 C      3.058    -0.040    28.928     8.820
    51   6 C      3.019     0.026    27.399     8.586
    52  16 S      2.308    -0.076   144.218    20.212
    53   6 C      3.019     0.027    27.384     8.584
    54   6 C      3.050    -0.035    28.817     8.804
    55   6 C      3.048    -0.043    29.008     8.833
    56   6 C      2.969     0.052    26.829     8.496
    57  16 S      2.292    -0.086   144.650    20.242
    58   6 C      2.879    -0.103    30.604     9.069
    59   1 H      0.926     0.049     2.334     2.389
    60   1 H      0.926     0.051     2.312     2.378
    61   1 H      0.926     0.042     2.416     2.431
    62   1 H      0.926     0.039     2.459     2.452
    63   1 H      0.926     0.038     2.474     2.460
    64   1 H      0.926     0.039     2.466     2.456
    65   1 H      0.925     0.048     2.340     2.392
    66   1 H      0.926     0.028     2.621     2.532
    67   1 H      0.926     0.031     2.578     2.511
    68   1 H      0.926     0.035     2.522     2.483
    69   1 H      0.927     0.045     2.384     2.415
    70   1 H      0.926     0.035     2.520     2.483
    71   1 H      0.926     0.054     2.269     2.355
    72   1 H      0.924     0.028     2.613     2.528
    73   1 H      0.924     0.033     2.550     2.497
    74   1 H      0.925     0.057     2.238     2.340
    75   1 H      0.926     0.054     2.266     2.354
    76   1 H      0.926     0.043     2.412     2.429
    77   1 H      0.925     0.062     2.174     2.306
    78   1 H      0.924     0.040     2.454     2.450
    79   1 H      0.924     0.040     2.454     2.450
    80   1 H      0.925     0.056     2.247     2.344
    81   1 H      0.926     0.045     2.385     2.415
    82   1 H      0.926     0.030     2.588     2.516
    83   1 H      0.926     0.031     2.565     2.505
    84   1 H      0.926     0.037     2.486     2.466
    85   1 H      0.927     0.042     2.425     2.435
    86   1 H      0.925     0.034     2.526     2.485
    87   1 H      0.925     0.047     2.356     2.400
    88   1 H      0.925     0.041     2.440     2.442
    89   1 H      0.926     0.040     2.454     2.450
    90   1 H      0.926     0.038     2.482     2.464
    91   1 H      0.926     0.039     2.458     2.452
    92   1 H      0.926     0.043     2.411     2.428
    93   1 H      0.926     0.049     2.327     2.385
    94   1 H      0.926     0.051     2.305     2.374

 Mol. C6AA /au·bohr⁶  :     160594.264121
 Mol. C8AA /au·bohr⁸  :    4654439.938886
 Mol. α(0) /au        :        652.182182


Wiberg/Mayer (AO) data.
largest (>0.10) Wiberg bond orders for each atom
          total WBO             WBO to atom ...
     1  C   3.857        C    2 1.715    H   60 0.977    H   59 0.970
     2  C   3.960        C    1 1.715    C    3 1.155    S    6 1.039
     3  C   3.906        C    4 1.650    C    2 1.155    H   61 0.964
     4  C   3.985        C    3 1.650    C    5 1.210    H   62 0.962
     5  C   3.898        C    7 1.420    C    4 1.210    S    6 1.086
     6  S   2.403        C    5 1.086    C    2 1.039
     7  C   3.955        C    5 1.420    C    8 1.234    S   11 1.076
     8  C   3.949        C    9 1.593    C    7 1.234    H   63 0.962
     9  C   3.941        C    8 1.593    C   10 1.228    H   64 0.964
    10  C   3.938        C   12 1.459    C    9 1.228    S   11 1.080
    11  S   2.496        C   10 1.080    C    7 1.076
    12  C   3.918        C   10 1.459    C   13 1.309    H   65 0.947
    13  C   3.940        C   12 1.309    C   14 1.272    S   21 1.138
    14  C   3.944        C   15 1.295    C   13 1.272    C   19 1.186
    15  C   3.973        C   16 1.520    C   14 1.295    H   66 0.966
    16  C   3.949        C   15 1.520    C   17 1.336    H   67 0.971
    17  C   3.975        C   18 1.474    C   16 1.336    H   68 0.966
    18  C   3.961        C   17 1.474    C   19 1.179    C   22 1.124
    19  C   3.979        C   20 1.437    C   14 1.186    C   18 1.179
    20  C   3.849        C   19 1.437    S   21 1.229    H   69 0.966
    21  S   2.685        C   20 1.229    C   13 1.138
    22  C   3.990        C   23 1.743    C   18 1.124    H   70 0.955
    23  C   3.968        C   22 1.743    C   24 1.118    H   71 0.957
    24  C   3.987        C   31 1.346    C   25 1.346    C   23 1.118
    25  C   3.910        C   24 1.346    C   28 1.310    O   26 1.003
    26  O   2.108        C   25 1.003    C   27 0.973
    27  C   3.947        H   74 0.980    H   72 0.979    H   73 0.977    O   26 0.973
    28  C   3.986        C   29 1.377    C   25 1.310    C   34 1.128
    29  C   3.945        C   28 1.377    C   30 1.354    H   75 0.962
    30  C   3.936        C   31 1.388    C   29 1.354    O   32 1.057
    31  C   3.949        C   30 1.388    C   24 1.346    H   76 0.959
    32  O   2.223        C   30 1.057    C   33 0.987
    33  C   3.947        O   32 0.987    H   77 0.979    H   79 0.977    H   78 0.977
    34  C   3.952        C   35 1.680    C   28 1.128    H   80 0.954
    35  C   3.990        C   34 1.680    C   36 1.207    H   81 0.949
    36  C   3.924        C   37 1.335    C   35 1.207    S   44 1.157    C   43 0.112
    37  C   3.971        C   36 1.335    C   38 1.268    C   42 1.170
    38  C   3.940        C   39 1.526    C   37 1.268    H   82 0.966
    39  C   3.966        C   38 1.526    C   40 1.342    H   83 0.970
    40  C   3.925        C   41 1.440    C   39 1.342    H   84 0.964
    41  C   3.974        C   40 1.440    C   45 1.192    C   42 1.155
    42  C   3.977        C   43 1.479    C   37 1.170    C   41 1.155
    43  C   3.917        C   42 1.479    S   44 1.225    H   85 0.966    C   36 0.112
    44  S   2.674        C   43 1.225    C   36 1.157
    45  C   3.887        C   46 1.582    C   41 1.192    H   86 0.961
    46  C   3.975        C   45 1.582    C   47 1.285    H   87 0.952
    47  C   3.910        C   48 1.478    C   46 1.285    H   88 0.956
    48  C   3.917        C   47 1.478    C   49 1.225    S   52 1.070
    49  C   3.940        C   50 1.598    C   48 1.225    H   89 0.964
    50  C   3.941        C   49 1.598    C   51 1.231    H   90 0.962
    51  C   3.959        C   53 1.424    C   50 1.231    S   52 1.084
    52  S   2.456        C   51 1.084    C   48 1.070
    53  C   3.906        C   51 1.424    C   54 1.207    S   57 1.087
    54  C   3.986        C   55 1.653    C   53 1.207    H   91 0.962
    55  C   3.910        C   54 1.653    C   56 1.154    H   92 0.963
    56  C   3.961        C   58 1.717    C   55 1.154    S   57 1.039
    57  S   2.404        C   53 1.087    C   56 1.039
    58  C   3.860        C   56 1.717    H   94 0.977    H   93 0.970
    59  H   0.997        C    1 0.970
    60  H   0.997        C    1 0.977
    61  H   0.997        C    3 0.964
    62  H   0.998        C    4 0.962
    63  H   0.998        C    8 0.962
    64  H   0.998        C    9 0.964
    65  H   0.997        C   12 0.947
    66  H   0.998        C   15 0.966
    67  H   0.998        C   16 0.971
    68  H   0.998        C   17 0.966
    69  H   0.997        C   20 0.966
    70  H   0.998        C   22 0.955
    71  H   0.997        C   23 0.957
    72  H   0.999        C   27 0.979
    73  H   0.999        C   27 0.977
    74  H   0.996        C   27 0.980
    75  H   0.997        C   29 0.962
    76  H   0.998        C   31 0.959
    77  H   0.996        C   33 0.979
    78  H   0.998        C   33 0.977
    79  H   0.998        C   33 0.977
    80  H   0.996        C   34 0.954
    81  H   0.998        C   35 0.949
    82  H   0.998        C   38 0.966
    83  H   0.997        C   39 0.970
    84  H   0.997        C   40 0.964
    85  H   0.997        C   43 0.966
    86  H   0.998        C   45 0.961
    87  H   0.998        C   46 0.952
    88  H   0.998        C   47 0.956
    89  H   0.998        C   49 0.964
    90  H   0.998        C   50 0.962
    91  H   0.998        C   54 0.962
    92  H   0.997        C   55 0.963
    93  H   0.997        C   58 0.970
    94  H   0.997        C   58 0.977

molecular dipole:
                 x           y           z       tot (Debye)
 q only:       -0.153       0.391      -0.490
   full:        0.084       0.409      -1.051       2.873
molecular quadrupole (traceless):
                xx          xy          yy          xz          yz          zz
 q only:       -9.496      15.602      -2.086       0.734      31.441      11.582
  q+dip:      -28.704      34.598      26.760      -0.779      71.802       1.944
   full:      -24.493      26.089      24.842       3.435      70.607      -0.349

           -------------------------------------------------
          |                Geometry Summary                 |
           -------------------------------------------------

      molecular mass/u    :      861.1932000
   center of mass at/Å    :        0.8682002     -12.7731190      -1.3739136
  moments of inertia/u·Å² :        0.5217986E+04   0.9413711E+05   0.9585529E+05
rotational constants/cm⁻¹ :        0.3230678E-02   0.1790753E-03   0.1758654E-03

 * 96 selected distances

     #   Z        #   Z                                     value/Å
     1   6 C      2   6 C                                 1.3401906
     2   6 C      3   6 C                                 1.4347289
     3   6 C      4   6 C                                 1.3516363
     4   6 C      5   6 C                                 1.4220958
     5   6 C      6  16 S                                 1.7542982
     5   6 C      7   6 C                                 1.3741065
     7   6 C      8   6 C                                 1.4164952
     8   6 C      9   6 C                                 1.3587975
     9   6 C     10   6 C                                 1.4187411
     7   6 C     11  16 S                                 1.7557854 (max)
    10   6 C     11  16 S                                 1.7552334
    10   6 C     12   6 C                                 1.3721851
    12   6 C     13   6 C                                 1.3990170
    13   6 C     14   6 C                                 1.4111028
    14   6 C     15   6 C                                 1.4024211
    15   6 C     16   6 C                                 1.3709150
    16   6 C     17   6 C                                 1.4008470
    17   6 C     18   6 C                                 1.3790653
    14   6 C     19   6 C                                 1.4332972
    18   6 C     19   6 C                                 1.4298934
    19   6 C     20   6 C                                 1.3798800
    13   6 C     21  16 S                                 1.7382095
    20   6 C     21  16 S                                 1.7063280
    22   6 C     23   6 C                                 1.3417513
    24   6 C     25   6 C                                 1.4009284
    25   6 C     26   8 O                                 1.3858256
    26   8 O     27   6 C                                 1.4127510
    25   6 C     28   6 C                                 1.4076201
    28   6 C     29   6 C                                 1.3916819
    29   6 C     30   6 C                                 1.3916003
    24   6 C     31   6 C                                 1.3989433
    30   6 C     31   6 C                                 1.3854195
    30   6 C     32   8 O                                 1.3641709
    32   8 O     33   6 C                                 1.4062446
    34   6 C     35   6 C                                 1.3474416
    35   6 C     36   6 C                                 1.4202432
    36   6 C     37   6 C                                 1.3991390
    37   6 C     38   6 C                                 1.4069622
    38   6 C     39   6 C                                 1.3691585
    39   6 C     40   6 C                                 1.3993191
    40   6 C     41   6 C                                 1.3850187
    37   6 C     42   6 C                                 1.4383394
    41   6 C     42   6 C                                 1.4376410
    42   6 C     43   6 C                                 1.3748813
    36   6 C     44  16 S                                 1.7325590
    43   6 C     44  16 S                                 1.7078153
    41   6 C     45   6 C                                 1.4306109
    45   6 C     46   6 C                                 1.3607254
    46   6 C     47   6 C                                 1.4063685
    47   6 C     48   6 C                                 1.3697324
    48   6 C     49   6 C                                 1.4188490
    49   6 C     50   6 C                                 1.3583516
    50   6 C     51   6 C                                 1.4177737
    51   6 C     52  16 S                                 1.7533192
    51   6 C     53   6 C                                 1.3737222
    53   6 C     54   6 C                                 1.4227219
    54   6 C     55   6 C                                 1.3512577
    55   6 C     56   6 C                                 1.4349080
    53   6 C     57  16 S                                 1.7544094
    56   6 C     58   6 C                                 1.3399653
     1   6 C     59   1 H                                 1.0756775
     1   6 C     60   1 H                                 1.0744473
     3   6 C     61   1 H                                 1.0756866
     4   6 C     62   1 H                                 1.0757712
     8   6 C     63   1 H                                 1.0752519
     9   6 C     64   1 H                                 1.0763222
    12   6 C     65   1 H                                 1.0823438
    15   6 C     66   1 H                                 1.0792150
    16   6 C     67   1 H                                 1.0800801
    17   6 C     68   1 H                                 1.0793253
    20   6 C     69   1 H                                 1.0713340 (min)
    22   6 C     70   1 H                                 1.0805263
    23   6 C     71   1 H                                 1.0807462
    27   6 C     72   1 H                                 1.0966669
    27   6 C     73   1 H                                 1.0952413
    27   6 C     74   1 H                                 1.0889230
    29   6 C     75   1 H                                 1.0773296
    31   6 C     76   1 H                                 1.0768797
    33   6 C     77   1 H                                 1.0889337
    33   6 C     78   1 H                                 1.0950791
    33   6 C     79   1 H                                 1.0950286
    34   6 C     80   1 H                                 1.0829907
    35   6 C     81   1 H                                 1.0806836
    38   6 C     82   1 H                                 1.0788356
    39   6 C     83   1 H                                 1.0801532
    40   6 C     84   1 H                                 1.0785077
    43   6 C     85   1 H                                 1.0713784
    45   6 C     86   1 H                                 1.0815104
    46   6 C     87   1 H                                 1.0813522
    47   6 C     88   1 H                                 1.0826242
    49   6 C     89   1 H                                 1.0761688
    50   6 C     90   1 H                                 1.0753422
    54   6 C     91   1 H                                 1.0757728
    55   6 C     92   1 H                                 1.0756999
    58   6 C     93   1 H                                 1.0756573
    58   6 C     94   1 H                                 1.0744291

 * 4 distinct bonds (by element types)

   Z      Z             #   av. dist./Å        max./Å        min./Å
   1 H    6 C          36     1.0803310     1.0966669     1.0713340
   6 C    6 C          47     1.3931168     1.4383394     1.3399653
   6 C    8 O           4     1.3922480     1.4127510     1.3641709
   6 C   16 S           9     1.7397730     1.7557854     1.7063280


optimized geometry written to: xtbopt.xyz


           -------------------------------------------------
          | TOTAL ENERGY             -152.867437706834 Eh   |
          | GRADIENT NORM               0.000326835717 Eh/α |
          | HOMO-LUMO GAP               0.772174651327 eV   |
           -------------------------------------------------

------------------------------------------------------------------------
 * finished run on 2021/06/06 at 14:49:48.873     
------------------------------------------------------------------------
 total:
 * wall-time:     0 d,  0 h,  0 min, 58.117 sec
 *  cpu-time:     0 d,  0 h,  6 min, 48.240 sec
 * ratio c/w:     7.024 speedup
 SCF:
 * wall-time:     0 d,  0 h,  0 min,  0.446 sec
 *  cpu-time:     0 d,  0 h,  0 min,  3.130 sec
 * ratio c/w:     7.021 speedup
 ANC optimizer:
 * wall-time:     0 d,  0 h,  0 min, 57.567 sec
 *  cpu-time:     0 d,  0 h,  6 min, 44.450 sec
 * ratio c/w:     7.026 speedup

