      -----------------------------------------------------------      
     |                   =====================                   |     
     |                           x T B                           |     
     |                   =====================                   |     
     |                         S. Grimme                         |     
     |          Mulliken Center for Theoretical Chemistry        |     
     |                    University of Bonn                     |     
     |                Version 6.2 RC2 (SAW190805)                |     
      -----------------------------------------------------------      

   This program is distributed in the hope that it will be useful,
   but WITHOUT ANY WARRANTY; without even the implied warranty of
   MERCHANTABILITY or FITNESS FOR A PARTICULAR PURPOSE.
   
   FOR NON-COMMERCIAL, ACADEMIA USE ONLY.
   
   Cite this work as:
   * S. Grimme, C. Bannwarth, P. Shushkov, J. Chem. Theory Comput., 2017,
     13, 1989-2009. DOI: 10.1021/acs.jctc.7b00118
   * C. Bannwarth, S. Ehlert and S. Grimme., J. Chem. Theory Comput., 2019,
     15, 1652-1671. DOI: 10.1021/acs.jctc.8b01176
   * P. Pracht, E. Caldeweyher, S. Ehlert, S. Grimme, ChemRxiv, 2019, preprint.
     DOI: 10.26434/chemrxiv.8326202.v1
   
   for DFT-D4:
   * E. Caldeweyher, C. Bannwarth and S. Grimme, J. Chem. Phys., 2017,
     147, 034112. DOI: 10.1063/1.4993215
   * E. Caldeweyher, S. Ehlert, A. Hansen, H. Neugebauer, S. Spicher,
     C. Bannwarth and S. Grimme, J. Chem. Phys., 2019, 150, 154122.
     DOI: 10.1063/1.5090222
   
   for sTDA-xTB:
   * S. Grimme and C. Bannwarth, J. Chem. Phys., 2016, 145, 054103.
     DOI: 10.1063/1.4959605
   
   in the mass-spec context:
   * V. Asgeirsson, C. Bauer and S. Grimme, Chem. Sci., 2017, 8, 4879.
     DOI: 10.1039/c7sc00601b
   
   for metadynamics refer to:
   * S. Grimme, J. Chem. Theory Comput., 2019, 155, 2847-2862
     DOI: 10.1021/acs.jctc.9b00143
   
   with help from (in alphabetical order)
   C. Bannwarth, F. Bohle, G. Brandenburg, E. Caldeweyher, M. Checinski,
   S. Dohm, S. Ehlert, S. Ehrlich, F. März, H. Neugebauer, J. Pisarek,
   P. Pracht, P. Shushkov, and S. Spicher.
   
 * started run on 2021/06/01 at 23:21:59.555     

           -------------------------------------------------
          |                Calculation Setup                |
           -------------------------------------------------

          program call               : /ihome/ghutchison/geoffh/xtb/xtb /ihome/ghutchison/blp62/GA/running_GA/sequence/generations/2/823_117_121_193_121_01353.xyz -opt
          hostname                   : smp-n27
          coordinate file            : /ihome/ghutchison/blp62/GA/running_GA/sequence/generations/2/823_117_121_193_121_01353.xyz
          omp threads                :                    12
          number of atoms            :                    99
          number of electrons        :                   318
          charge                     :                     0
          spin                       :                   0.0
          first test random number   :      0.85978702180176


########################################################################
# WARNING! Please study the warnings concerning your input carefully
#  - XTBPATH is not set, using XTBHOME instead
#  - the use of '-opt' is discouraged, please use '--opt' next time
########################################################################

           ------------------------------------------------- 
          |                 G F N 2 - x T B                 |
          | Geometry, Frequencies, Noncovalent interactions |
          |            JCTC 2019 parametrisation            |
           ------------------------------------------------- 
             KAB for C  - Si     :                1.0500
             KAB for H  - Pd     :                0.9500
             k(s)              :                1.8500
             k(p)              :                2.2300
             k(d)              :                2.2300
             k(f)              :                2.0000
             kEN (H0ij)        :               -2.0000
             D4 a1             :                0.5200
             D4 a2             :                5.0000
             D4 s6             :                1.0000
             D4 s8             :                2.7000
             D4 s9             :                5.0000
             alphaj            :                2.0000

  Z AO/shell   Hii/eV     exponent
  1     Wed Apr 25 08:07:45 CEST 2018   EN: 2.200 GM2: 0.406  GM3: 0.0800  RAES: 1.40
     1s    -10.707211    1.230000
  6     Wed Apr 25 08:07:45 CEST 2018   EN: 2.550 GM2: 0.538  GM3: 0.1500  RAES: 3.00
     2s    -13.970922    2.096432
     2p    -10.063292    1.800000
  7     Wed Apr 25 08:07:45 CEST 2018   EN: 3.040 GM2: 0.461  GM3:-0.0640  RAES: 1.90
     2s    -16.686243    2.339881
     2p    -12.523956    2.014332
  8     Wed Apr 25 08:07:45 CEST 2018   EN: 3.440 GM2: 0.452  GM3:-0.0517  RAES: 1.80
     2s    -20.229985    2.439742
     2p    -15.503117    2.137023
  9     Mon Apr 23 13:58:50 CEST 2018   EN: 3.980 GM2: 0.532  GM3: 0.1426  RAES: 2.40
     2s    -23.458179    2.416361
     2p    -15.746583    2.308399
 16     Tue Apr 24 11:44:34 CEST 2018   EN: 2.580 GM2: 0.340  GM3:-0.0502  RAES: 3.10
     3s    -20.029654    1.981333
     3p    -11.377694    2.025643
     3d     -0.420282    1.702555

           ------------------------------------------------- 
          |        Self-Consistent Charge Iterations        |
           ------------------------------------------------- 

          ...................................................
          :                      SETUP                      :
          :.................................................:
          :  # basis functions                 306          :
          :  # atomic orbitals                 302          :
          :  # shells                          164          :
          :  # electrons                       318          :
          :  max. iterations                   250          :
          :  Hamiltonian                  GFN2-xTB          :
          :  restarted?                      false          :
          :  GBSA solvation                  false          :
          :  PC potential                    false          :
          :  electronic temp.          300.0000000     K    :
          :  accuracy                    1.0000000          :
          :  -> integral cutoff          0.2500000E+02      :
          :  -> integral neglect         0.1000000E-07      :
          :  -> SCF convergence          0.1000000E-05 Eh   :
          :  -> wf. convergence          0.1000000E-03 e    :
          :  Broyden damping             0.4000000          :
          ...................................................

 iter      E             dE          RMSdq      gap      omega  full diag
   1   -181.0263637 -0.181026E+03  0.423E+00    1.65       0.0  T
   2   -181.3207897 -0.294426E+00  0.241E+00    1.72       1.0  T
   3   -181.3065939  0.141959E-01  0.134E+00    1.52       1.0  T
   4   -181.3364036 -0.298097E-01  0.613E-01    1.43       1.0  T
   5   -181.3642237 -0.278201E-01  0.177E-01    1.39       1.0  T
   6   -181.3653907 -0.116694E-02  0.934E-02    1.39       1.0  T
   7   -181.3658172 -0.426501E-03  0.338E-02    1.42       1.0  T
   8   -181.3658716 -0.543863E-04  0.147E-02    1.42       1.0  T
   9   -181.3658759 -0.428835E-05  0.786E-03    1.42       1.3  T
  10   -181.3658778 -0.194872E-05  0.298E-03    1.42       3.4  T
  11   -181.3658781 -0.292199E-06  0.115E-03    1.42       8.7  T
  12   -181.3658781 -0.346112E-07  0.655E-04    1.42      15.3  T
  13   -181.3658781 -0.141985E-07  0.267E-04    1.42      37.7  T

   *** convergence criteria satisfied after 13 iterations ***

         #    Occupation            Energy/Eh            Energy/eV
      -------------------------------------------------------------
         1        2.0000           -0.8765161             -23.8512
       ...           ...                  ...                  ...
       153        2.0000           -0.3984375             -10.8420
       154        2.0000           -0.3937191             -10.7136
       155        2.0000           -0.3870904             -10.5333
       156        2.0000           -0.3855175             -10.4905
       157        2.0000           -0.3793989             -10.3240
       158        2.0000           -0.3661103              -9.9624
       159        2.0000           -0.3549758              -9.6594 (HOMO)
       160                         -0.3028478              -8.2409 (LUMO)
       161                         -0.2822590              -7.6807
       162                         -0.2800616              -7.6209
       163                         -0.2517186              -6.8496
       164                         -0.2507097              -6.8222
       ...                                ...                  ...
       302                          0.7688896              20.9226
      -------------------------------------------------------------
                  HL-Gap            0.0521281 Eh            1.4185 eV
             Fermi-level           -0.3289118 Eh           -8.9501 eV

 SCC (total)                   0 d,  0 h,  0 min,  0.235 sec
 SCC setup                      ...        0 min,  0.002 sec (  0.872%)
 Dispersion                     ...        0 min,  0.004 sec (  1.761%)
 integral evaluation            ...        0 min,  0.019 sec (  8.063%)
 zeroth order Hamiltonian       ...        0 min,  0.001 sec (  0.443%)
 iterations                     ...        0 min,  0.186 sec ( 79.422%)
 molecular gradient             ...        0 min,  0.021 sec (  8.856%)
 printout                       ...        0 min,  0.001 sec (  0.531%)

         :::::::::::::::::::::::::::::::::::::::::::::::::::::
         ::                     SUMMARY                     ::
         :::::::::::::::::::::::::::::::::::::::::::::::::::::
         :: total energy            -179.212125156749 Eh    ::
         :: gradient norm              0.159810799525 Eh/a0 ::
         :: HOMO-LUMO gap              1.418476731887 eV    ::
         ::.................................................::
         :: SCC energy              -181.365878147265 Eh    ::
         :: -> isotropic ES            0.185804208927 Eh    ::
         :: -> anisotropic ES          0.008545427944 Eh    ::
         :: -> anisotropic XC          0.014937006361 Eh    ::
         :: -> dispersion             -0.128858891040 Eh    ::
         :: repulsion energy           2.154004806322 Eh    ::
         :: add. restraining           0.000000000000 Eh    ::
         :::::::::::::::::::::::::::::::::::::::::::::::::::::

      ----------------------------------------------------------- 
     |                   =====================                   |
     |                        A N C O P T                        |
     |                   =====================                   |
     |               Approximate Normal Coordinate               |
     |                Rational Function Optimizer                |
      ----------------------------------------------------------- 

          ...................................................
          :                      SETUP                      :
          :.................................................:
          :   optimization level            normal          :
          :   max. optcycles                   297          :
          :   ANC micro-cycles                  20          :
          :   degrees of freedom               291          :
          :.................................................:
          :   RF solver                   davidson          :
          :   input Hessian                  false          :
          :   write xtbopt.log                true          :
          :   linear?                        false          :
          :   energy convergence         0.5000000E-05 Eh   :
          :   grad. convergence          0.1000000E-02 Eh/α :
          :   maximium RF displ.         2.0000000          :
          :   Hlow (freq-cutoff)         0.5000000E-02      :
          :   Hmax (freq-cutoff)         5.0000000          :
          :   S6 in model hess.         20.0000000          :
          ...................................................

generating ANC from model Hessian ...
Using Lindh-Hessian (1995)
 Shifting diagonal of input Hessian by   5.441225847454270E-003
 Lowest  eigenvalues of input Hessian
    0.005000    0.005419   -0.000000   -0.000000   -0.000000   -0.000000
    0.000000    0.000000    0.005475    0.005479    0.005543    0.005605
    0.005619    0.005655    0.005888    0.005967    0.006128    0.006187
 Highest eigenvalues
    2.088851    2.171009    2.217682    2.253475    2.437349    2.545173
 

........................................................................
.............................. CYCLE    1 ..............................
........................................................................
   1   -181.3658781 -0.181366E+03  0.133E-04    1.42       0.0  T
   2   -181.3658781 -0.158309E-10  0.110E-04    1.42      91.0  T
   3   -181.3658781 -0.866834E-09  0.538E-05    1.42     186.9  T
     SCC iter.                  ...        0 min,  0.049 sec
     gradient                   ...        0 min,  0.025 sec
 * total energy  :  -179.2121252 Eh     change       -0.8566099E-07 Eh
   gradient norm :     0.1598107 Eh/α   predicted     0.0000000E+00 (-100.00%)
   displ. norm   :     0.4370667 α      lambda       -0.3444596E-01
   maximum displ.:     0.1108219 α      in ANC's #60, #55, #57, ...

........................................................................
.............................. CYCLE    2 ..............................
........................................................................
   1   -181.4069848 -0.181407E+03  0.252E-01    1.47       0.0  T
   2   -181.4073861 -0.401323E-03  0.141E-01    1.48       1.0  T
   3   -181.4071297  0.256416E-03  0.885E-02    1.45       1.0  T
   4   -181.4077269 -0.597262E-03  0.290E-02    1.45       1.0  T
   5   -181.4077499 -0.229817E-04  0.158E-02    1.46       1.0  T
   6   -181.4077623 -0.124378E-04  0.593E-03    1.46       1.7  T
   7   -181.4077642 -0.185041E-05  0.188E-03    1.46       5.4  T
   8   -181.4077644 -0.161592E-06  0.961E-04    1.46      10.5  T
     SCC iter.                  ...        0 min,  0.132 sec
     gradient                   ...        0 min,  0.032 sec
 * total energy  :  -179.2371110 Eh     change       -0.2498576E-01 Eh
   gradient norm :     0.0686596 Eh/α   predicted    -0.2051398E-01 ( -17.90%)
   displ. norm   :     0.5382146 α      lambda       -0.1548999E-01
   maximum displ.:     0.1434773 α      in ANC's #28, #60, #27, ...

........................................................................
.............................. CYCLE    3 ..............................
........................................................................
   1   -181.4294328 -0.181429E+03  0.220E-01    1.49       0.0  T
   2   -181.4297108 -0.278011E-03  0.121E-01    1.50       1.0  T
   3   -181.4294893  0.221448E-03  0.732E-02    1.47       1.0  T
   4   -181.4298728 -0.383472E-03  0.237E-02    1.47       1.0  T
   5   -181.4298886 -0.157773E-04  0.123E-02    1.48       1.0  T
   6   -181.4298960 -0.736505E-05  0.484E-03    1.48       2.1  T
   7   -181.4298974 -0.148594E-05  0.148E-03    1.48       6.8  T
   8   -181.4298975 -0.792893E-07  0.858E-04    1.48      11.7  T
     SCC iter.                  ...        0 min,  0.141 sec
     gradient                   ...        0 min,  0.031 sec
 * total energy  :  -179.2476960 Eh     change       -0.1058505E-01 Eh
   gradient norm :     0.0187636 Eh/α   predicted    -0.9988526E-02 (  -5.64%)
   displ. norm   :     0.5826571 α      lambda       -0.6445033E-02
   maximum displ.:     0.1898061 α      in ANC's #28, #2, #27, ...

........................................................................
.............................. CYCLE    4 ..............................
........................................................................
   1   -181.4273011 -0.181427E+03  0.166E-01    1.47       0.0  T
   2   -181.4273474 -0.462977E-04  0.921E-02    1.48       1.0  T
   3   -181.4272748  0.725695E-04  0.347E-02    1.46       1.0  T
   4   -181.4273602 -0.853626E-04  0.122E-02    1.47       1.0  T
   5   -181.4273652 -0.499135E-05  0.532E-03    1.47       1.9  T
   6   -181.4273663 -0.108476E-05  0.245E-03    1.47       4.1  T
   7   -181.4273667 -0.465222E-06  0.844E-04    1.47      11.9  T
     SCC iter.                  ...        0 min,  0.120 sec
     gradient                   ...        0 min,  0.030 sec
 * total energy  :  -179.2528148 Eh     change       -0.5118719E-02 Eh
   gradient norm :     0.0208564 Eh/α   predicted    -0.4316593E-02 ( -15.67%)
   displ. norm   :     0.6636674 α      lambda       -0.5130798E-02
   maximum displ.:     0.2049014 α      in ANC's #28, #2, #1, ...

........................................................................
.............................. CYCLE    5 ..............................
........................................................................
   1   -181.4219380 -0.181422E+03  0.185E-01    1.46       0.0  T
   2   -181.4219684 -0.303981E-04  0.103E-01    1.46       1.0  T
   3   -181.4219388  0.295742E-04  0.251E-02    1.45       1.0  T
   4   -181.4219760 -0.372350E-04  0.115E-02    1.46       1.0  T
   5   -181.4219802 -0.415331E-05  0.386E-03    1.46       2.6  T
   6   -181.4219810 -0.817391E-06  0.166E-03    1.46       6.1  T
     SCC iter.                  ...        0 min,  0.102 sec
     gradient                   ...        0 min,  0.019 sec
 * total energy  :  -179.2569676 Eh     change       -0.4152817E-02 Eh
   gradient norm :     0.0204248 Eh/α   predicted    -0.3695415E-02 ( -11.01%)
   displ. norm   :     0.6755438 α      lambda       -0.4050374E-02
   maximum displ.:     0.1949178 α      in ANC's #2, #28, #37, ...

........................................................................
.............................. CYCLE    6 ..............................
........................................................................
   1   -181.4201338 -0.181420E+03  0.194E-01    1.44       0.0  T
   2   -181.4201686 -0.347593E-04  0.108E-01    1.44       1.0  T
   3   -181.4201008  0.677839E-04  0.326E-02    1.45       1.0  T
   4   -181.4201833 -0.824895E-04  0.123E-02    1.45       1.0  T
   5   -181.4201856 -0.238792E-05  0.524E-03    1.45       1.9  T
   6   -181.4201880 -0.231609E-05  0.180E-03    1.45       5.6  T
     SCC iter.                  ...        0 min,  0.086 sec
     gradient                   ...        0 min,  0.019 sec
 * total energy  :  -179.2602913 Eh     change       -0.3323680E-02 Eh
   gradient norm :     0.0173846 Eh/α   predicted    -0.2949405E-02 ( -11.26%)
   displ. norm   :     0.6800898 α      lambda       -0.3353651E-02
   maximum displ.:     0.1885729 α      in ANC's #37, #2, #28, ...

........................................................................
.............................. CYCLE    7 ..............................
........................................................................
   1   -181.4231709 -0.181423E+03  0.200E-01    1.43       0.0  T
   2   -181.4232106 -0.397279E-04  0.112E-01    1.43       1.0  T
   3   -181.4231434  0.672111E-04  0.327E-02    1.44       1.0  T
   4   -181.4232255 -0.821146E-04  0.131E-02    1.44       1.0  T
   5   -181.4232290 -0.350025E-05  0.545E-03    1.44       1.8  T
   6   -181.4232314 -0.240811E-05  0.192E-03    1.44       5.2  T
   7   -181.4232316 -0.225177E-06  0.870E-04    1.44      11.6  T
     SCC iter.                  ...        0 min,  0.098 sec
     gradient                   ...        0 min,  0.019 sec
 * total energy  :  -179.2630475 Eh     change       -0.2756196E-02 Eh
   gradient norm :     0.0164826 Eh/α   predicted    -0.2452398E-02 ( -11.02%)
   displ. norm   :     0.6727256 α      lambda       -0.2847022E-02
   maximum displ.:     0.2106932 α      in ANC's #37, #21, #28, ...

........................................................................
.............................. CYCLE    8 ..............................
........................................................................
   1   -181.4283932 -0.181428E+03  0.202E-01    1.42       0.0  T
   2   -181.4284338 -0.406546E-04  0.113E-01    1.43       1.0  T
   3   -181.4283721  0.617305E-04  0.320E-02    1.45       1.0  T
   4   -181.4284458 -0.737004E-04  0.139E-02    1.44       1.0  T
   5   -181.4284511 -0.523935E-05  0.572E-03    1.44       1.8  T
   6   -181.4284536 -0.256657E-05  0.203E-03    1.44       5.0  T
   7   -181.4284539 -0.243506E-06  0.950E-04    1.44      10.6  T
     SCC iter.                  ...        0 min,  0.120 sec
     gradient                   ...        0 min,  0.028 sec
 * total energy  :  -179.2653702 Eh     change       -0.2322789E-02 Eh
   gradient norm :     0.0171095 Eh/α   predicted    -0.2067735E-02 ( -10.98%)
   displ. norm   :     0.6685873 α      lambda       -0.2557197E-02
   maximum displ.:     0.2030237 α      in ANC's #37, #16, #28, ...

........................................................................
.............................. CYCLE    9 ..............................
........................................................................
   1   -181.4345868 -0.181435E+03  0.201E-01    1.43       0.0  T
   2   -181.4346262 -0.393927E-04  0.113E-01    1.45       1.0  T
   3   -181.4345761  0.500669E-04  0.301E-02    1.46       1.0  T
   4   -181.4346355 -0.593954E-04  0.141E-02    1.46       1.0  T
   5   -181.4346421 -0.662982E-05  0.497E-03    1.46       2.0  T
   6   -181.4346438 -0.165429E-05  0.196E-03    1.45       5.1  T
   7   -181.4346440 -0.240770E-06  0.879E-04    1.45      11.4  T
     SCC iter.                  ...        0 min,  0.123 sec
     gradient                   ...        0 min,  0.028 sec
 * total energy  :  -179.2674481 Eh     change       -0.2077837E-02 Eh
   gradient norm :     0.0165974 Eh/α   predicted    -0.1850149E-02 ( -10.96%)
   displ. norm   :     0.6704348 α      lambda       -0.2423197E-02
   maximum displ.:     0.2101205 α      in ANC's #37, #16, #21, ...

........................................................................
.............................. CYCLE   10 ..............................
........................................................................
   1   -181.4402658 -0.181440E+03  0.200E-01    1.44       0.0  T
   2   -181.4403062 -0.404074E-04  0.113E-01    1.46       1.0  T
   3   -181.4401856  0.120607E-03  0.412E-02    1.47       1.0  T
   4   -181.4403264 -0.140723E-03  0.131E-02    1.47       1.0  T
   5   -181.4403293 -0.297020E-05  0.592E-03    1.47       1.7  T
   6   -181.4403316 -0.230678E-05  0.218E-03    1.47       4.6  T
   7   -181.4403319 -0.269973E-06  0.939E-04    1.47      10.7  T
     SCC iter.                  ...        0 min,  0.243 sec
     gradient                   ...        0 min,  0.028 sec
 * total energy  :  -179.2694462 Eh     change       -0.1998116E-02 Eh
   gradient norm :     0.0167273 Eh/α   predicted    -0.1756192E-02 ( -12.11%)
   displ. norm   :     0.6815297 α      lambda       -0.2538604E-02
   maximum displ.:     0.2025533 α      in ANC's #16, #21, #37, ...

........................................................................
.............................. CYCLE   11 ..............................
........................................................................
   1   -181.4449537 -0.181445E+03  0.208E-01    1.46       0.0  T
   2   -181.4450032 -0.495035E-04  0.118E-01    1.49       1.0  T
   3   -181.4448816  0.121598E-03  0.443E-02    1.48       1.0  T
   4   -181.4450297 -0.148137E-03  0.133E-02    1.49       1.0  T
   5   -181.4450326 -0.286691E-05  0.499E-03    1.49       2.0  T
   6   -181.4450337 -0.113981E-05  0.188E-03    1.49       5.3  T
   7   -181.4450339 -0.186869E-06  0.853E-04    1.49      11.8  T
     SCC iter.                  ...        0 min,  0.122 sec
     gradient                   ...        0 min,  0.019 sec
 * total energy  :  -179.2714757 Eh     change       -0.2029544E-02 Eh
   gradient norm :     0.0171033 Eh/α   predicted    -0.1858917E-02 (  -8.41%)
   displ. norm   :     0.7559615 α      lambda       -0.2936897E-02
   maximum displ.:     0.2426571 α      in ANC's #37, #12, #30, ...

........................................................................
.............................. CYCLE   12 ..............................
........................................................................
   1   -181.4377592 -0.181438E+03  0.222E-01    1.47       0.0  T
   2   -181.4378077 -0.485021E-04  0.129E-01    1.49       1.0  T
   3   -181.4374525  0.355204E-03  0.669E-02    1.48       1.0  T
   4   -181.4378645 -0.411989E-03  0.115E-02    1.49       1.0  T
   5   -181.4378652 -0.637683E-06  0.640E-03    1.49       1.6  T
   6   -181.4378671 -0.196064E-05  0.249E-03    1.49       4.0  T
   7   -181.4378675 -0.385094E-06  0.101E-03    1.49      10.0  T
     SCC iter.                  ...        0 min,  0.118 sec
     gradient                   ...        0 min,  0.029 sec
 * total energy  :  -179.2733214 Eh     change       -0.1845644E-02 Eh
   gradient norm :     0.0271035 Eh/α   predicted    -0.2307643E-02 (  25.03%)
   displ. norm   :     0.5569252 α      lambda       -0.3400649E-02
   maximum displ.:     0.2373617 α      in ANC's #12, #24, #21, ...

........................................................................
.............................. CYCLE   13 ..............................
........................................................................
   1   -181.4527838 -0.181453E+03  0.184E-01    1.48       0.0  T
   2   -181.4528364 -0.526924E-04  0.104E-01    1.50       1.0  T
   3   -181.4527534  0.830620E-04  0.387E-02    1.49       1.0  T
   4   -181.4528585 -0.105075E-03  0.121E-02    1.50       1.0  T
   5   -181.4528610 -0.253449E-05  0.553E-03    1.50       1.8  T
   6   -181.4528621 -0.112600E-05  0.205E-03    1.50       4.9  T
     SCC iter.                  ...        0 min,  0.089 sec
     gradient                   ...        0 min,  0.019 sec
 * total energy  :  -179.2747436 Eh     change       -0.1422221E-02 Eh
   gradient norm :     0.0358277 Eh/α   predicted    -0.2227725E-02 (  56.64%)
   displ. norm   :     0.5649055 α      lambda       -0.3618483E-02
   maximum displ.:     0.2103134 α      in ANC's #12, #30, #24, ...

........................................................................
.............................. CYCLE   14 ..............................
........................................................................
   1   -181.4359580 -0.181436E+03  0.189E-01    1.45       0.0  T
   2   -181.4360472 -0.891543E-04  0.109E-01    1.47       1.0  T
   3   -181.4359364  0.110773E-03  0.439E-02    1.46       1.0  T
   4   -181.4360743 -0.137880E-03  0.141E-02    1.47       1.0  T
   5   -181.4360817 -0.738790E-05  0.605E-03    1.47       1.7  T
   6   -181.4360825 -0.827351E-06  0.257E-03    1.47       3.9  T
   7   -181.4360830 -0.485473E-06  0.887E-04    1.47      11.3  T
     SCC iter.                  ...        0 min,  0.097 sec
     gradient                   ...        0 min,  0.019 sec
 * total energy  :  -179.2764353 Eh     change       -0.1691712E-02 Eh
   gradient norm :     0.0355792 Eh/α   predicted    -0.2386603E-02 (  41.08%)
   displ. norm   :     0.4174952 α      lambda       -0.4284005E-02
   maximum displ.:     0.2007784 α      in ANC's #12, #37, #14, ...

........................................................................
.............................. CYCLE   15 ..............................
........................................................................
   1   -181.4396508 -0.181440E+03  0.160E-01    1.44       0.0  T
   2   -181.4397410 -0.901509E-04  0.887E-02    1.45       1.0  T
   3   -181.4396382  0.102802E-03  0.463E-02    1.45       1.0  T
   4   -181.4397696 -0.131489E-03  0.128E-02    1.46       1.0  T
   5   -181.4397753 -0.561528E-05  0.608E-03    1.46       1.7  T
   6   -181.4397759 -0.598582E-06  0.258E-03    1.46       3.9  T
   7   -181.4397763 -0.399457E-06  0.968E-04    1.46      10.4  T
     SCC iter.                  ...        0 min,  0.098 sec
     gradient                   ...        0 min,  0.019 sec
 * total energy  :  -179.2769863 Eh     change       -0.5509424E-03 Eh
   gradient norm :     0.0348055 Eh/α   predicted    -0.2515357E-02 ( 356.56%)
   displ. norm   :     0.4065637 α      lambda       -0.3609366E-02
   maximum displ.:     0.1717744 α      in ANC's #12, #30, #24, ...

........................................................................
.............................. CYCLE   16 ..............................
........................................................................
   1   -181.4394330 -0.181439E+03  0.134E-01    1.45       0.0  T
   2   -181.4394853 -0.522801E-04  0.770E-02    1.45       1.0  T
   3   -181.4394319  0.533875E-04  0.314E-02    1.45       1.0  T
   4   -181.4394987 -0.668770E-04  0.110E-02    1.45       1.0  T
   5   -181.4395041 -0.539149E-05  0.485E-03    1.45       2.1  T
   6   -181.4395047 -0.525918E-06  0.191E-03    1.45       5.3  T
     SCC iter.                  ...        0 min,  0.084 sec
     gradient                   ...        0 min,  0.019 sec
 * total energy  :  -179.2791137 Eh     change       -0.2127460E-02 Eh
   gradient norm :     0.0235243 Eh/α   predicted    -0.2102992E-02 (  -1.15%)
   displ. norm   :     0.4329817 α      lambda       -0.3497174E-02
   maximum displ.:     0.2185781 α      in ANC's #12, #11, #24, ...

........................................................................
.............................. CYCLE   17 ..............................
........................................................................
   1   -181.4441790 -0.181444E+03  0.153E-01    1.43       0.0  T
   2   -181.4442816 -0.102618E-03  0.840E-02    1.44       1.0  T
   3   -181.4442299  0.517932E-04  0.372E-02    1.44       1.0  T
   4   -181.4443031 -0.732680E-04  0.126E-02    1.44       1.0  T
   5   -181.4443087 -0.560514E-05  0.671E-03    1.44       1.5  T
   6   -181.4443097 -0.991972E-06  0.286E-03    1.44       3.5  T
   7   -181.4443103 -0.602663E-06  0.126E-03    1.44       8.0  T
     SCC iter.                  ...        0 min,  0.127 sec
     gradient                   ...        0 min,  0.020 sec
 * total energy  :  -179.2777120 Eh     change        0.1401728E-02 Eh
   gradient norm :     0.0573259 Eh/α   predicted    -0.2076400E-02 (-248.13%)
   displ. norm   :     0.2653213 α      lambda       -0.5968948E-02
   maximum displ.:     0.1054420 α      in ANC's #12, #30, #32, ...

........................................................................
.............................. CYCLE   18 ..............................
........................................................................
   1   -181.4457523 -0.181446E+03  0.101E-01    1.42       0.0  T
   2   -181.4458041 -0.517954E-04  0.578E-02    1.43       1.0  T
   3   -181.4457517  0.523434E-04  0.348E-02    1.43       1.0  T
   4   -181.4458230 -0.712188E-04  0.928E-03    1.43       1.1  T
   5   -181.4458264 -0.343823E-05  0.442E-03    1.43       2.3  T
   6   -181.4458266 -0.251390E-06  0.223E-03    1.43       4.5  T
     SCC iter.                  ...        0 min,  0.084 sec
     gradient                   ...        0 min,  0.023 sec
 * total energy  :  -179.2810744 Eh     change       -0.3362393E-02 Eh
   gradient norm :     0.0167544 Eh/α   predicted    -0.3194570E-02 (  -4.99%)
   displ. norm   :     0.5708614 α      lambda       -0.2048753E-02
   maximum displ.:     0.2906203 α      in ANC's #12, #30, #14, ...

........................................................................
.............................. CYCLE   19 ..............................
........................................................................
   1   -181.4419414 -0.181442E+03  0.185E-01    1.42       0.0  T
   2   -181.4419957 -0.543282E-04  0.104E-01    1.42       1.0  T
   3   -181.4418856  0.110088E-03  0.379E-02    1.43       1.0  T
   4   -181.4420184 -0.132761E-03  0.127E-02    1.43       1.0  T
   5   -181.4420232 -0.485602E-05  0.539E-03    1.43       1.9  T
   6   -181.4420242 -0.948831E-06  0.208E-03    1.43       4.8  T
   7   -181.4420245 -0.347240E-06  0.787E-04    1.43      12.8  T
     SCC iter.                  ...        0 min,  0.096 sec
     gradient                   ...        0 min,  0.029 sec
 * total energy  :  -179.2816711 Eh     change       -0.5966666E-03 Eh
   gradient norm :     0.0358303 Eh/α   predicted    -0.1358204E-02 ( 127.63%)
   displ. norm   :     0.4438194 α      lambda       -0.2538890E-02
   maximum displ.:     0.2623051 α      in ANC's #12, #11, #24, ...

........................................................................
.............................. CYCLE   20 ..............................
........................................................................
   1   -181.4386737 -0.181439E+03  0.141E-01    1.39       0.0  T
   2   -181.4387191 -0.454820E-04  0.787E-02    1.41       1.0  T
   3   -181.4385948  0.124368E-03  0.420E-02    1.40       1.0  T
   4   -181.4387437 -0.148956E-03  0.103E-02    1.40       1.0  T
   5   -181.4387460 -0.223616E-05  0.535E-03    1.40       1.9  T
   6   -181.4387471 -0.110743E-05  0.192E-03    1.40       5.2  T
     SCC iter.                  ...        0 min,  0.084 sec
     gradient                   ...        0 min,  0.023 sec
 * total energy  :  -179.2832032 Eh     change       -0.1532161E-02 Eh
   gradient norm :     0.0237119 Eh/α   predicted    -0.1519497E-02 (  -0.83%)
   displ. norm   :     0.4850274 α      lambda       -0.3670960E-02
   maximum displ.:     0.2477051 α      in ANC's #12, #7, #28, ...
 * RMSD in coord.:     0.7889975 α      energy gain  -0.7107806E-01 Eh

generating ANC from model Hessian ...
Using Lindh-Hessian (1995)
 Shifting diagonal of input Hessian by   4.982909081661052E-003
 Lowest  eigenvalues of input Hessian
   -0.000000   -0.000000   -0.000000   -0.000000   -0.000000    0.000000
    0.005000    0.005006    0.005050    0.005067    0.005154    0.005186
    0.005278    0.005381    0.005502    0.005569    0.005818    0.006071
 Highest eigenvalues
    2.089752    2.098169    2.157059    2.278526    2.407974    2.493920
 

........................................................................
.............................. CYCLE   21 ..............................
........................................................................
   1   -181.4691573 -0.181469E+03  0.166E-01    1.38       0.0  T
   2   -181.4692298 -0.724836E-04  0.920E-02    1.39       1.0  T
   3   -181.4689900  0.239811E-03  0.560E-02    1.38       1.0  T
   4   -181.4692871 -0.297112E-03  0.139E-02    1.39       1.0  T
   5   -181.4692910 -0.397550E-05  0.724E-03    1.39       1.4  T
   6   -181.4692931 -0.204171E-05  0.291E-03    1.39       3.5  T
   7   -181.4692938 -0.757463E-06  0.810E-04    1.39      12.4  T
   8   -181.4692939 -0.139381E-07  0.491E-04    1.39      20.5  T
     SCC iter.                  ...        0 min,  0.111 sec
     gradient                   ...        0 min,  0.177 sec
 * total energy  :  -179.2815347 Eh     change        0.1668526E-02 Eh
   gradient norm :     0.0666260 Eh/α   predicted     0.0000000E+00 (-100.00%)
   displ. norm   :     0.2605216 α      lambda       -0.5777212E-02
   maximum displ.:     0.0958327 α      in ANC's #11, #10, #23, ...

........................................................................
.............................. CYCLE   22 ..............................
........................................................................
   1   -181.4573521 -0.181457E+03  0.902E-02    1.40       0.0  T
   2   -181.4573746 -0.224779E-04  0.523E-02    1.40       1.0  T
   3   -181.4572899  0.847286E-04  0.329E-02    1.40       1.0  T
   4   -181.4573951 -0.105253E-03  0.691E-03    1.40       1.5  T
   5   -181.4573969 -0.173275E-05  0.343E-03    1.40       2.9  T
   6   -181.4573972 -0.362064E-06  0.153E-03    1.40       6.6  T
     SCC iter.                  ...        0 min,  0.083 sec
     gradient                   ...        0 min,  0.027 sec
 * total energy  :  -179.2853154 Eh     change       -0.3780692E-02 Eh
   gradient norm :     0.0179358 Eh/α   predicted    -0.3084662E-02 ( -18.41%)
   displ. norm   :     0.3426462 α      lambda       -0.1716665E-02
   maximum displ.:     0.1245901 α      in ANC's #11, #20, #23, ...

........................................................................
.............................. CYCLE   23 ..............................
........................................................................
   1   -181.4526657 -0.181453E+03  0.107E-01    1.41       0.0  T
   2   -181.4526799 -0.142316E-04  0.617E-02    1.41       1.0  T
   3   -181.4526215  0.584832E-04  0.249E-02    1.41       1.0  T
   4   -181.4526893 -0.678498E-04  0.569E-03    1.41       1.8  T
   5   -181.4526904 -0.108569E-05  0.292E-03    1.41       3.4  T
   6   -181.4526908 -0.357790E-06  0.116E-03    1.41       8.7  T
     SCC iter.                  ...        0 min,  0.083 sec
     gradient                   ...        0 min,  0.019 sec
 * total energy  :  -179.2866098 Eh     change       -0.1294441E-02 Eh
   gradient norm :     0.0088821 Eh/α   predicted    -0.9591073E-03 ( -25.91%)
   displ. norm   :     0.5261587 α      lambda       -0.1665407E-02
   maximum displ.:     0.2082240 α      in ANC's #11, #20, #10, ...

........................................................................
.............................. CYCLE   24 ..............................
........................................................................
   1   -181.4475042 -0.181448E+03  0.166E-01    1.41       0.0  T
   2   -181.4475328 -0.286451E-04  0.955E-02    1.42       1.0  T
   3   -181.4474599  0.729106E-04  0.299E-02    1.42       1.0  T
   4   -181.4475474 -0.874673E-04  0.800E-03    1.42       1.3  T
   5   -181.4475488 -0.144085E-05  0.414E-03    1.42       2.4  T
   6   -181.4475497 -0.901391E-06  0.156E-03    1.42       6.4  T
   7   -181.4475499 -0.163193E-06  0.594E-04    1.42      16.9  T
     SCC iter.                  ...        0 min,  0.096 sec
     gradient                   ...        0 min,  0.019 sec
 * total energy  :  -179.2879095 Eh     change       -0.1299660E-02 Eh
   gradient norm :     0.0227919 Eh/α   predicted    -0.1063240E-02 ( -18.19%)
   displ. norm   :     0.5920398 α      lambda       -0.1804538E-02
   maximum displ.:     0.2460127 α      in ANC's #11, #20, #10, ...

........................................................................
.............................. CYCLE   25 ..............................
........................................................................
   1   -181.4446952 -0.181445E+03  0.188E-01    1.42       0.0  T
   2   -181.4447312 -0.360046E-04  0.106E-01    1.42       1.0  T
   3   -181.4446641  0.670469E-04  0.320E-02    1.42       1.0  T
   4   -181.4447478 -0.836355E-04  0.101E-02    1.42       1.0  T
   5   -181.4447494 -0.159619E-05  0.446E-03    1.42       2.3  T
   6   -181.4447504 -0.106530E-05  0.168E-03    1.42       6.0  T
     SCC iter.                  ...        0 min,  0.083 sec
     gradient                   ...        0 min,  0.023 sec
 * total energy  :  -179.2894498 Eh     change       -0.1540361E-02 Eh
   gradient norm :     0.0285249 Eh/α   predicted    -0.1218525E-02 ( -20.89%)
   displ. norm   :     0.6410835 α      lambda       -0.2687728E-02
   maximum displ.:     0.2858462 α      in ANC's #11, #20, #10, ...

........................................................................
.............................. CYCLE   26 ..............................
........................................................................
   1   -181.4498263 -0.181450E+03  0.209E-01    1.41       0.0  T
   2   -181.4498701 -0.437813E-04  0.116E-01    1.42       1.0  T
   3   -181.4497989  0.712022E-04  0.347E-02    1.42       1.0  T
   4   -181.4498882 -0.893149E-04  0.122E-02    1.42       1.0  T
   5   -181.4498903 -0.207276E-05  0.536E-03    1.42       1.9  T
   6   -181.4498919 -0.161769E-05  0.185E-03    1.42       5.4  T
     SCC iter.                  ...        0 min,  0.084 sec
     gradient                   ...        0 min,  0.026 sec
 * total energy  :  -179.2917178 Eh     change       -0.2267922E-02 Eh
   gradient norm :     0.0213652 Eh/α   predicted    -0.1896187E-02 ( -16.39%)
   displ. norm   :     0.6748358 α      lambda       -0.2819753E-02
   maximum displ.:     0.3036033 α      in ANC's #11, #10, #20, ...

........................................................................
.............................. CYCLE   27 ..............................
........................................................................
   1   -181.4599023 -0.181460E+03  0.214E-01    1.41       0.0  T
   2   -181.4599539 -0.515792E-04  0.118E-01    1.42       1.0  T
   3   -181.4598491  0.104810E-03  0.389E-02    1.41       1.0  T
   4   -181.4599749 -0.125828E-03  0.128E-02    1.41       1.0  T
   5   -181.4599774 -0.250924E-05  0.622E-03    1.41       1.6  T
   6   -181.4599797 -0.228774E-05  0.203E-03    1.41       4.9  T
   7   -181.4599800 -0.300558E-06  0.681E-04    1.41      14.8  T
     SCC iter.                  ...        0 min,  0.097 sec
     gradient                   ...        0 min,  0.028 sec
 * total energy  :  -179.2939963 Eh     change       -0.2278555E-02 Eh
   gradient norm :     0.0099863 Eh/α   predicted    -0.2051939E-02 (  -9.95%)
   displ. norm   :     0.8435808 α      lambda       -0.2552096E-02
   maximum displ.:     0.3568479 α      in ANC's #11, #20, #10, ...

........................................................................
.............................. CYCLE   28 ..............................
........................................................................
   1   -181.4531961 -0.181453E+03  0.263E-01    1.39       0.0  T
   2   -181.4532630 -0.669207E-04  0.148E-01    1.41       1.0  T
   3   -181.4531482  0.114801E-03  0.418E-02    1.40       1.0  T
   4   -181.4532888 -0.140546E-03  0.143E-02    1.40       1.0  T
   5   -181.4532925 -0.371808E-05  0.650E-03    1.40       1.5  T
   6   -181.4532947 -0.227018E-05  0.247E-03    1.40       4.1  T
   7   -181.4532952 -0.412243E-06  0.861E-04    1.40      11.7  T
     SCC iter.                  ...        0 min,  0.096 sec
     gradient                   ...        0 min,  0.019 sec
 * total energy  :  -179.2959292 Eh     change       -0.1932898E-02 Eh
   gradient norm :     0.0207022 Eh/α   predicted    -0.2184137E-02 (  13.00%)
   displ. norm   :     0.6260340 α      lambda       -0.2357879E-02
   maximum displ.:     0.2706158 α      in ANC's #11, #10, #20, ...

........................................................................
.............................. CYCLE   29 ..............................
........................................................................
   1   -181.4648625 -0.181465E+03  0.195E-01    1.39       0.0  T
   2   -181.4648925 -0.299945E-04  0.108E-01    1.39       1.0  T
   3   -181.4648695  0.229265E-04  0.232E-02    1.39       1.0  T
   4   -181.4648988 -0.292354E-04  0.118E-02    1.39       1.0  T
   5   -181.4649043 -0.555221E-05  0.360E-03    1.39       2.8  T
   6   -181.4649052 -0.887102E-06  0.136E-03    1.39       7.4  T
     SCC iter.                  ...        0 min,  0.083 sec
     gradient                   ...        0 min,  0.019 sec
 * total energy  :  -179.2977036 Eh     change       -0.1774339E-02 Eh
   gradient norm :     0.0190180 Eh/α   predicted    -0.1640994E-02 (  -7.52%)
   displ. norm   :     0.7585112 α      lambda       -0.2521392E-02
   maximum displ.:     0.3127259 α      in ANC's #11, #20, #10, ...

........................................................................
.............................. CYCLE   30 ..............................
........................................................................
   1   -181.4585852 -0.181459E+03  0.232E-01    1.38       0.0  T
   2   -181.4586338 -0.486418E-04  0.127E-01    1.38       1.0  T
   3   -181.4586119  0.219058E-04  0.262E-02    1.38       1.0  T
   4   -181.4586435 -0.315544E-04  0.129E-02    1.38       1.0  T
   5   -181.4586499 -0.637249E-05  0.459E-03    1.38       2.2  T
   6   -181.4586511 -0.123296E-05  0.173E-03    1.38       5.8  T
   7   -181.4586513 -0.192857E-06  0.766E-04    1.38      13.1  T
     SCC iter.                  ...        0 min,  0.096 sec
     gradient                   ...        0 min,  0.019 sec
 * total energy  :  -179.2990428 Eh     change       -0.1339263E-02 Eh
   gradient norm :     0.0256540 Eh/α   predicted    -0.1986024E-02 (  48.29%)
   displ. norm   :     0.5577477 α      lambda       -0.2029064E-02
   maximum displ.:     0.2360556 α      in ANC's #11, #10, #20, ...

........................................................................
.............................. CYCLE   31 ..............................
........................................................................
   1   -181.4565741 -0.181457E+03  0.176E-01    1.37       0.0  T
   2   -181.4566051 -0.310518E-04  0.966E-02    1.38       1.0  T
   3   -181.4565425  0.626472E-04  0.321E-02    1.37       1.0  T
   4   -181.4566178 -0.752737E-04  0.104E-02    1.38       1.0  T
   5   -181.4566193 -0.153179E-05  0.458E-03    1.38       2.2  T
   6   -181.4566204 -0.114766E-05  0.170E-03    1.38       5.9  T
     SCC iter.                  ...        0 min,  0.083 sec
     gradient                   ...        0 min,  0.019 sec
 * total energy  :  -179.3002504 Eh     change       -0.1207593E-02 Eh
   gradient norm :     0.0196664 Eh/α   predicted    -0.1330141E-02 (  10.15%)
   displ. norm   :     0.4524084 α      lambda       -0.2292352E-02
   maximum displ.:     0.1576062 α      in ANC's #16, #5, #17, ...

........................................................................
.............................. CYCLE   32 ..............................
........................................................................
   1   -181.4733619 -0.181473E+03  0.136E-01    1.38       0.0  T
   2   -181.4733918 -0.299398E-04  0.749E-02    1.38       1.0  T
   3   -181.4733466  0.452096E-04  0.279E-02    1.38       1.0  T
   4   -181.4734024 -0.557795E-04  0.855E-03    1.38       1.2  T
   5   -181.4734035 -0.105554E-05  0.452E-03    1.38       2.2  T
   6   -181.4734045 -0.104259E-05  0.176E-03    1.38       5.7  T
   7   -181.4734047 -0.218420E-06  0.612E-04    1.38      16.4  T
     SCC iter.                  ...        0 min,  0.096 sec
     gradient                   ...        0 min,  0.023 sec
 * total energy  :  -179.3004937 Eh     change       -0.2433044E-03 Eh
   gradient norm :     0.0303175 Eh/α   predicted    -0.1380771E-02 ( 467.51%)
   displ. norm   :     0.4123202 α      lambda       -0.2522322E-02
   maximum displ.:     0.1602202 α      in ANC's #11, #10, #20, ...

........................................................................
.............................. CYCLE   33 ..............................
........................................................................
   1   -181.4649904 -0.181465E+03  0.138E-01    1.37       0.0  T
   2   -181.4650278 -0.374733E-04  0.769E-02    1.38       1.0  T
   3   -181.4649887  0.391275E-04  0.263E-02    1.37       1.0  T
   4   -181.4650369 -0.481937E-04  0.949E-03    1.38       1.1  T
   5   -181.4650407 -0.380098E-05  0.441E-03    1.38       2.3  T
   6   -181.4650413 -0.577995E-06  0.188E-03    1.38       5.4  T
     SCC iter.                  ...        0 min,  0.083 sec
     gradient                   ...        0 min,  0.019 sec
 * total energy  :  -179.3019184 Eh     change       -0.1424648E-02 Eh
   gradient norm :     0.0160063 Eh/α   predicted    -0.1475570E-02 (   3.57%)
   displ. norm   :     0.5411593 α      lambda       -0.1380789E-02
   maximum displ.:     0.2027743 α      in ANC's #11, #10, #17, ...

........................................................................
.............................. CYCLE   34 ..............................
........................................................................
   1   -181.4628131 -0.181463E+03  0.163E-01    1.37       0.0  T
   2   -181.4628493 -0.361776E-04  0.902E-02    1.37       1.0  T
   3   -181.4628330  0.162783E-04  0.197E-02    1.37       1.0  T
   4   -181.4628535 -0.205269E-04  0.955E-03    1.37       1.1  T
   5   -181.4628579 -0.433798E-05  0.406E-03    1.37       2.5  T
   6   -181.4628585 -0.623187E-06  0.154E-03    1.37       6.5  T
   7   -181.4628587 -0.172317E-06  0.504E-04    1.37      19.9  T
     SCC iter.                  ...        0 min,  0.096 sec
     gradient                   ...        0 min,  0.026 sec
 * total energy  :  -179.3023473 Eh     change       -0.4289204E-03 Eh
   gradient norm :     0.0242686 Eh/α   predicted    -0.8925845E-03 ( 108.10%)
   displ. norm   :     0.4154757 α      lambda       -0.1274690E-02
   maximum displ.:     0.1535968 α      in ANC's #16, #5, #11, ...

........................................................................
.............................. CYCLE   35 ..............................
........................................................................
   1   -181.4611553 -0.181461E+03  0.132E-01    1.37       0.0  T
   2   -181.4611745 -0.192141E-04  0.732E-02    1.37       1.0  T
   3   -181.4611416  0.328497E-04  0.232E-02    1.37       1.0  T
   4   -181.4611798 -0.381363E-04  0.884E-03    1.37       1.1  T
   5   -181.4611820 -0.224472E-05  0.350E-03    1.37       2.9  T
   6   -181.4611826 -0.546048E-06  0.141E-03    1.37       7.1  T
     SCC iter.                  ...        0 min,  0.192 sec
     gradient                   ...        0 min,  0.025 sec
 * total energy  :  -179.3031268 Eh     change       -0.7795051E-03 Eh
   gradient norm :     0.0189412 Eh/α   predicted    -0.7473642E-03 (  -4.12%)
   displ. norm   :     0.3894377 α      lambda       -0.1853072E-02
   maximum displ.:     0.1385453 α      in ANC's #5, #17, #1, ...

........................................................................
.............................. CYCLE   36 ..............................
........................................................................
   1   -181.4903498 -0.181490E+03  0.129E-01    1.39       0.0  T
   2   -181.4903823 -0.324401E-04  0.721E-02    1.38       1.0  T
   3   -181.4903484  0.338704E-04  0.269E-02    1.39       1.0  T
   4   -181.4903916 -0.431789E-04  0.924E-03    1.38       1.1  T
   5   -181.4903936 -0.203192E-05  0.443E-03    1.38       2.3  T
   6   -181.4903942 -0.648731E-06  0.192E-03    1.38       5.2  T
   7   -181.4903945 -0.292464E-06  0.722E-04    1.38      13.9  T
     SCC iter.                  ...        0 min,  0.097 sec
     gradient                   ...        0 min,  0.019 sec
 * total energy  :  -179.3019508 Eh     change        0.1176000E-02 Eh
   gradient norm :     0.0414276 Eh/α   predicted    -0.1067057E-02 (-190.74%)
   displ. norm   :     0.2818105 α      lambda       -0.3946567E-02
   maximum displ.:     0.1117261 α      in ANC's #20, #16, #25, ...

........................................................................
.............................. CYCLE   37 ..............................
........................................................................
   1   -181.4680707 -0.181468E+03  0.867E-02    1.37       0.0  T
   2   -181.4680826 -0.119905E-04  0.500E-02    1.38       1.0  T
   3   -181.4680333  0.493425E-04  0.262E-02    1.37       1.0  T
   4   -181.4680916 -0.582914E-04  0.512E-03    1.38       2.0  T
   5   -181.4680921 -0.493964E-06  0.268E-03    1.38       3.8  T
   6   -181.4680924 -0.350946E-06  0.108E-03    1.38       9.3  T
     SCC iter.                  ...        0 min,  0.082 sec
     gradient                   ...        0 min,  0.019 sec
 * total energy  :  -179.3036704 Eh     change       -0.1719594E-02 Eh
   gradient norm :     0.0222177 Eh/α   predicted    -0.2129997E-02 (  23.87%)
   displ. norm   :     0.2986429 α      lambda       -0.2519337E-02
   maximum displ.:     0.1074700 α      in ANC's #38, #31, #34, ...

........................................................................
.............................. CYCLE   38 ..............................
........................................................................
   1   -181.4703386 -0.181470E+03  0.118E-01    1.37       0.0  T
   2   -181.4704459 -0.107355E-03  0.703E-02    1.37       1.0  T
   3   -181.4704107  0.352050E-04  0.336E-02    1.37       1.0  T
   4   -181.4704585 -0.477857E-04  0.129E-02    1.37       1.0  T
   5   -181.4704715 -0.130147E-04  0.456E-03    1.37       2.2  T
   6   -181.4704717 -0.150987E-06  0.272E-03    1.37       3.7  T
   7   -181.4704722 -0.536329E-06  0.982E-04    1.37      10.2  T
     SCC iter.                  ...        0 min,  0.096 sec
     gradient                   ...        0 min,  0.026 sec
 * total energy  :  -179.3021972 Eh     change        0.1473217E-02 Eh
   gradient norm :     0.0534667 Eh/α   predicted    -0.1372018E-02 (-193.13%)
   displ. norm   :     0.2297841 α      lambda       -0.4060528E-02
   maximum displ.:     0.0682796 α      in ANC's #37, #38, #31, ...

........................................................................
.............................. CYCLE   39 ..............................
........................................................................
   1   -181.4703131 -0.181470E+03  0.977E-02    1.38       0.0  T
   2   -181.4703625 -0.493388E-04  0.550E-02    1.37       1.0  T
   3   -181.4703424  0.201136E-04  0.243E-02    1.38       1.0  T
   4   -181.4703697 -0.273171E-04  0.951E-03    1.38       1.1  T
   5   -181.4703747 -0.504481E-05  0.421E-03    1.38       2.4  T
   6   -181.4703750 -0.330767E-06  0.193E-03    1.38       5.2  T
     SCC iter.                  ...        0 min,  0.090 sec
     gradient                   ...        0 min,  0.028 sec
 * total energy  :  -179.3044102 Eh     change       -0.2213063E-02 Eh
   gradient norm :     0.0100663 Eh/α   predicted    -0.2137468E-02 (  -3.42%)
   displ. norm   :     0.5575997 α      lambda       -0.7490617E-03
   maximum displ.:     0.1959396 α      in ANC's #17, #5, #16, ...

........................................................................
.............................. CYCLE   40 ..............................
........................................................................
   1   -181.4675624 -0.181468E+03  0.164E-01    1.38       0.0  T
   2   -181.4675887 -0.262406E-04  0.925E-02    1.38       1.0  T
   3   -181.4675760  0.126282E-04  0.185E-02    1.37       1.0  T
   4   -181.4675932 -0.171484E-04  0.989E-03    1.38       1.0  T
   5   -181.4675970 -0.383160E-05  0.383E-03    1.37       2.6  T
   6   -181.4675978 -0.752659E-06  0.137E-03    1.37       7.3  T
   7   -181.4675979 -0.123385E-06  0.621E-04    1.37      16.2  T
     SCC iter.                  ...        0 min,  0.096 sec
     gradient                   ...        0 min,  0.019 sec
 * total energy  :  -179.3048244 Eh     change       -0.4141763E-03 Eh
   gradient norm :     0.0125910 Eh/α   predicted    -0.4909789E-03 (  18.54%)
   displ. norm   :     0.5514772 α      lambda       -0.7830641E-03
   maximum displ.:     0.1980130 α      in ANC's #17, #5, #10, ...

........................................................................
.............................. CYCLE   41 ..............................
........................................................................
   1   -181.4654744 -0.181465E+03  0.194E-01    1.37       0.0  T
   2   -181.4655045 -0.301093E-04  0.105E-01    1.37       1.0  T
   3   -181.4654932  0.113453E-04  0.208E-02    1.37       1.0  T
   4   -181.4655071 -0.139418E-04  0.124E-02    1.37       1.0  T
   5   -181.4655138 -0.668834E-05  0.406E-03    1.37       2.5  T
   6   -181.4655151 -0.127609E-05  0.128E-03    1.37       7.8  T
   7   -181.4655152 -0.931996E-07  0.643E-04    1.37      15.6  T
     SCC iter.                  ...        0 min,  0.096 sec
     gradient                   ...        0 min,  0.025 sec
 * total energy  :  -179.3052994 Eh     change       -0.4750356E-03 Eh
   gradient norm :     0.0171466 Eh/α   predicted    -0.5106073E-03 (   7.49%)
   displ. norm   :     0.3959811 α      lambda       -0.9494829E-03
   maximum displ.:     0.1315531 α      in ANC's #5, #1, #17, ...

........................................................................
.............................. CYCLE   42 ..............................
........................................................................
   1   -181.4790858 -0.181479E+03  0.133E-01    1.38       0.0  T
   2   -181.4791058 -0.200778E-04  0.739E-02    1.38       1.0  T
   3   -181.4790852  0.205992E-04  0.205E-02    1.38       1.0  T
   4   -181.4791120 -0.267561E-04  0.834E-03    1.38       1.2  T
   5   -181.4791137 -0.170148E-05  0.358E-03    1.38       2.8  T
   6   -181.4791143 -0.561492E-06  0.146E-03    1.38       6.9  T
   7   -181.4791144 -0.144803E-06  0.644E-04    1.38      15.6  T
     SCC iter.                  ...        0 min,  0.097 sec
     gradient                   ...        0 min,  0.023 sec
 * total energy  :  -179.3057820 Eh     change       -0.4825935E-03 Eh
   gradient norm :     0.0154373 Eh/α   predicted    -0.5491824E-03 (  13.80%)
   displ. norm   :     0.5321541 α      lambda       -0.7645590E-03
   maximum displ.:     0.1944110 α      in ANC's #17, #5, #14, ...
 * RMSD in coord.:     0.9480235 α      energy gain  -0.2257882E-01 Eh

generating ANC from model Hessian ...
Using Lindh-Hessian (1995)
 Shifting diagonal of input Hessian by   4.986983838350555E-003
 Lowest  eigenvalues of input Hessian
   -0.000000   -0.000000    0.000000    0.000000    0.000000    0.000000
    0.005000    0.005010    0.005047    0.005066    0.005159    0.005216
    0.005294    0.005430    0.005456    0.005514    0.005796    0.005969
 Highest eigenvalues
    2.082383    2.096945    2.152014    2.282548    2.391566    2.480527
 

........................................................................
.............................. CYCLE   43 ..............................
........................................................................
   1   -181.4757378 -0.181476E+03  0.184E-01    1.37       0.0  T
   2   -181.4757626 -0.247392E-04  0.101E-01    1.38       1.0  T
   3   -181.4757498  0.127486E-04  0.198E-02    1.37       1.0  T
   4   -181.4757632 -0.133931E-04  0.129E-02    1.38       1.0  T
   5   -181.4757717 -0.844361E-05  0.320E-03    1.38       3.1  T
   6   -181.4757722 -0.527160E-06  0.131E-03    1.37       7.7  T
   7   -181.4757723 -0.860753E-07  0.714E-04    1.37      14.1  T
   8   -181.4757723 -0.683519E-08  0.309E-04    1.38      32.5  T
     SCC iter.                  ...        0 min,  0.110 sec
     gradient                   ...        0 min,  0.020 sec
 * total energy  :  -179.3062287 Eh     change       -0.4466998E-03 Eh
   gradient norm :     0.0139641 Eh/α   predicted     0.0000000E+00 (-100.00%)
   displ. norm   :     0.1706667 α      lambda       -0.4714128E-03
   maximum displ.:     0.0871967 α      in ANC's #12, #21, #14, ...

........................................................................
.............................. CYCLE   44 ..............................
........................................................................
   1   -181.4758547 -0.181476E+03  0.645E-02    1.37       0.0  T
   2   -181.4758590 -0.432249E-05  0.346E-02    1.37       1.0  T
   3   -181.4758574  0.167647E-05  0.770E-03    1.37       1.3  T
   4   -181.4758593 -0.189353E-05  0.442E-03    1.37       2.3  T
   5   -181.4758599 -0.634266E-06  0.205E-03    1.37       4.9  T
   6   -181.4758602 -0.321288E-06  0.502E-04    1.37      20.0  T
     SCC iter.                  ...        0 min,  0.084 sec
     gradient                   ...        0 min,  0.030 sec
 * total energy  :  -179.3065867 Eh     change       -0.3579881E-03 Eh
   gradient norm :     0.0046728 Eh/α   predicted    -0.2425723E-03 ( -32.24%)
   displ. norm   :     0.2046738 α      lambda       -0.3073281E-03
   maximum displ.:     0.0926701 α      in ANC's #21, #12, #24, ...

........................................................................
.............................. CYCLE   45 ..............................
........................................................................
   1   -181.4753447 -0.181475E+03  0.701E-02    1.37       0.0  T
   2   -181.4753478 -0.313629E-05  0.391E-02    1.37       1.0  T
   3   -181.4753441  0.369538E-05  0.857E-03    1.37       1.2  T
   4   -181.4753479 -0.370411E-05  0.467E-03    1.37       2.1  T
   5   -181.4753488 -0.918671E-06  0.177E-03    1.37       5.7  T
   6   -181.4753490 -0.237153E-06  0.513E-04    1.37      19.6  T
     SCC iter.                  ...        0 min,  0.083 sec
     gradient                   ...        0 min,  0.023 sec
 * total energy  :  -179.3068142 Eh     change       -0.2274414E-03 Eh
   gradient norm :     0.0043993 Eh/α   predicted    -0.1601016E-03 ( -29.61%)
   displ. norm   :     0.2898347 α      lambda       -0.2857672E-03
   maximum displ.:     0.1374072 α      in ANC's #12, #21, #14, ...

........................................................................
.............................. CYCLE   46 ..............................
........................................................................
   1   -181.4741214 -0.181474E+03  0.106E-01    1.37       0.0  T
   2   -181.4741270 -0.562164E-05  0.585E-02    1.37       1.0  T
   3   -181.4741225  0.449873E-05  0.114E-02    1.37       1.0  T
   4   -181.4741261 -0.360308E-05  0.737E-03    1.37       1.4  T
   5   -181.4741289 -0.280932E-05  0.173E-03    1.37       5.8  T
   6   -181.4741292 -0.264296E-06  0.587E-04    1.37      17.1  T
     SCC iter.                  ...        0 min,  0.082 sec
     gradient                   ...        0 min,  0.029 sec
 * total energy  :  -179.3070138 Eh     change       -0.1996344E-03 Eh
   gradient norm :     0.0081768 Eh/α   predicted    -0.1549197E-03 ( -22.40%)
   displ. norm   :     0.2937149 α      lambda       -0.2499906E-03
   maximum displ.:     0.1501231 α      in ANC's #12, #21, #14, ...

........................................................................
.............................. CYCLE   47 ..............................
........................................................................
   1   -181.4737859 -0.181474E+03  0.108E-01    1.37       0.0  T
   2   -181.4737916 -0.574099E-05  0.589E-02    1.37       1.0  T
   3   -181.4737885  0.315807E-05  0.109E-02    1.37       1.0  T
   4   -181.4737892 -0.721192E-06  0.811E-03    1.37       1.2  T
   5   -181.4737937 -0.444461E-05  0.136E-03    1.37       7.4  T
   6   -181.4737938 -0.145806E-06  0.483E-04    1.37      20.8  T
   7   -181.4737938 -0.540282E-08  0.270E-04    1.37      37.2  T
     SCC iter.                  ...        0 min,  0.280 sec
     gradient                   ...        0 min,  0.023 sec
 * total energy  :  -179.3072087 Eh     change       -0.1949037E-03 Eh
   gradient norm :     0.0081854 Eh/α   predicted    -0.1357793E-03 ( -30.34%)
   displ. norm   :     0.3661207 α      lambda       -0.3310752E-03
   maximum displ.:     0.1994328 α      in ANC's #12, #14, #1, ...

........................................................................
.............................. CYCLE   48 ..............................
........................................................................
   1   -181.4751426 -0.181475E+03  0.133E-01    1.37       0.0  T
   2   -181.4751519 -0.935069E-05  0.729E-02    1.37       1.0  T
   3   -181.4751478  0.416084E-05  0.134E-02    1.37       1.0  T
   4   -181.4751483 -0.489789E-06  0.101E-02    1.37       1.0  T
   5   -181.4751552 -0.690470E-05  0.164E-03    1.37       6.1  T
   6   -181.4751554 -0.181564E-06  0.689E-04    1.37      14.6  T
   7   -181.4751554 -0.174905E-07  0.373E-04    1.37      26.9  T
     SCC iter.                  ...        0 min,  0.097 sec
     gradient                   ...        0 min,  0.022 sec
 * total energy  :  -179.3074553 Eh     change       -0.2465638E-03 Eh
   gradient norm :     0.0056111 Eh/α   predicted    -0.1877353E-03 ( -23.86%)
   displ. norm   :     0.4085297 α      lambda       -0.2515930E-03
   maximum displ.:     0.2171200 α      in ANC's #12, #1, #21, ...

........................................................................
.............................. CYCLE   49 ..............................
........................................................................
   1   -181.4751643 -0.181475E+03  0.146E-01    1.37       0.0  T
   2   -181.4751767 -0.123972E-04  0.790E-02    1.37       1.0  T
   3   -181.4751775 -0.788239E-06  0.129E-02    1.37       1.0  T
   4   -181.4751736  0.392461E-05  0.937E-03    1.37       1.1  T
   5   -181.4751805 -0.691212E-05  0.150E-03    1.37       6.7  T
   6   -181.4751807 -0.156945E-06  0.689E-04    1.37      14.6  T
   7   -181.4751807 -0.138300E-07  0.412E-04    1.37      24.4  T
     SCC iter.                  ...        0 min,  0.097 sec
     gradient                   ...        0 min,  0.023 sec
 * total energy  :  -179.3076388 Eh     change       -0.1834871E-03 Eh
   gradient norm :     0.0049902 Eh/α   predicted    -0.1467951E-03 ( -20.00%)
   displ. norm   :     0.3733083 α      lambda       -0.2173453E-03
   maximum displ.:     0.2004729 α      in ANC's #12, #1, #14, ...

........................................................................
.............................. CYCLE   50 ..............................
........................................................................
   1   -181.4772164 -0.181477E+03  0.130E-01    1.37       0.0  T
   2   -181.4772267 -0.103282E-04  0.702E-02    1.37       1.0  T
   3   -181.4772273 -0.557394E-06  0.116E-02    1.37       1.0  T
   4   -181.4772234  0.390986E-05  0.896E-03    1.37       1.1  T
   5   -181.4772299 -0.653596E-05  0.159E-03    1.37       6.3  T
   6   -181.4772301 -0.184253E-06  0.669E-04    1.37      15.0  T
   7   -181.4772301 -0.154929E-07  0.368E-04    1.37      27.3  T
     SCC iter.                  ...        0 min,  0.098 sec
     gradient                   ...        0 min,  0.028 sec
 * total energy  :  -179.3077949 Eh     change       -0.1561392E-03 Eh
   gradient norm :     0.0052800 Eh/α   predicted    -0.1238183E-03 ( -20.70%)
   displ. norm   :     0.4557246 α      lambda       -0.1962842E-03
   maximum displ.:     0.2314243 α      in ANC's #12, #1, #14, ...

........................................................................
.............................. CYCLE   51 ..............................
........................................................................
   1   -181.4753408 -0.181475E+03  0.154E-01    1.37       0.0  T
   2   -181.4753546 -0.137738E-04  0.835E-02    1.37       1.0  T
   3   -181.4753544  0.239833E-06  0.143E-02    1.37       1.0  T
   4   -181.4753525  0.189947E-05  0.101E-02    1.37       1.0  T
   5   -181.4753592 -0.669024E-05  0.139E-03    1.37       7.2  T
   6   -181.4753593 -0.101061E-06  0.723E-04    1.37      13.9  T
   7   -181.4753593 -0.128970E-07  0.395E-04    1.37      25.5  T
     SCC iter.                  ...        0 min,  0.099 sec
     gradient                   ...        0 min,  0.020 sec
 * total energy  :  -179.3079361 Eh     change       -0.1412167E-03 Eh
   gradient norm :     0.0058675 Eh/α   predicted    -0.1185368E-03 ( -16.06%)
   displ. norm   :     0.4152732 α      lambda       -0.2623946E-03
   maximum displ.:     0.2007915 α      in ANC's #1, #12, #13, ...

........................................................................
.............................. CYCLE   52 ..............................
........................................................................
   1   -181.4785526 -0.181479E+03  0.134E-01    1.37       0.0  T
   2   -181.4785648 -0.122158E-04  0.714E-02    1.37       1.0  T
   3   -181.4785637  0.108723E-05  0.135E-02    1.37       1.0  T
   4   -181.4785644 -0.706132E-06  0.876E-03    1.37       1.1  T
   5   -181.4785687 -0.433649E-05  0.181E-03    1.37       5.5  T
   6   -181.4785690 -0.231068E-06  0.775E-04    1.37      13.0  T
   7   -181.4785690 -0.231626E-07  0.425E-04    1.37      23.6  T
     SCC iter.                  ...        0 min,  0.099 sec
     gradient                   ...        0 min,  0.030 sec
 * total energy  :  -179.3081055 Eh     change       -0.1693948E-03 Eh
   gradient norm :     0.0069594 Eh/α   predicted    -0.1538229E-03 (  -9.19%)
   displ. norm   :     0.4157217 α      lambda        0.2661794E-04
   maximum displ.:     0.2017360 α      in ANC's #1, #12, #13, ...

........................................................................
.............................. CYCLE   53 ..............................
........................................................................
   1   -181.4798537 -0.181480E+03  0.133E-01    1.37       0.0  T
   2   -181.4798661 -0.123757E-04  0.711E-02    1.37       1.0  T
   3   -181.4798650  0.108068E-05  0.135E-02    1.37       1.0  T
   4   -181.4798657 -0.690052E-06  0.887E-03    1.37       1.1  T
   5   -181.4798700 -0.435693E-05  0.181E-03    1.37       5.6  T
   6   -181.4798702 -0.222079E-06  0.782E-04    1.37      12.9  T
   7   -181.4798703 -0.240149E-07  0.434E-04    1.37      23.1  T
     SCC iter.                  ...        0 min,  0.101 sec
     gradient                   ...        0 min,  0.023 sec
 * total energy  :  -179.3081031 Eh     change        0.2393350E-05 Eh
   gradient norm :     0.0132208 Eh/α   predicted     0.1560468E-04 ( 552.00%)
   displ. norm   :     0.2366690 α      lambda       -0.2725713E-03
   maximum displ.:     0.1092573 α      in ANC's #12, #1, #14, ...

........................................................................
.............................. CYCLE   54 ..............................
........................................................................
   1   -181.4750038 -0.181475E+03  0.919E-02    1.37       0.0  T
   2   -181.4750095 -0.568768E-05  0.489E-02    1.37       1.0  T
   3   -181.4750047  0.481500E-05  0.114E-02    1.37       1.0  T
   4   -181.4750091 -0.443528E-05  0.708E-03    1.37       1.4  T
   5   -181.4750113 -0.220489E-05  0.181E-03    1.37       5.5  T
   6   -181.4750116 -0.256027E-06  0.567E-04    1.37      17.7  T
     SCC iter.                  ...        0 min,  0.085 sec
     gradient                   ...        0 min,  0.023 sec
 * total energy  :  -179.3082432 Eh     change       -0.1400464E-03 Eh
   gradient norm :     0.0064844 Eh/α   predicted    -0.1439195E-03 (   2.77%)
   displ. norm   :     0.0943547 α      lambda       -0.1412797E-03
   maximum displ.:     0.0480953 α      in ANC's #12, #18, #21, ...

........................................................................
.............................. CYCLE   55 ..............................
........................................................................
   1   -181.4784425 -0.181478E+03  0.384E-02    1.37       0.0  T
   2   -181.4784449 -0.235909E-05  0.208E-02    1.37       1.0  T
   3   -181.4784430  0.192256E-05  0.645E-03    1.37       1.6  T
   4   -181.4784456 -0.258750E-05  0.266E-03    1.37       3.8  T
   5   -181.4784457 -0.160464E-06  0.996E-04    1.37      10.1  T
     SCC iter.                  ...        0 min,  0.071 sec
     gradient                   ...        0 min,  0.030 sec
 * total energy  :  -179.3083234 Eh     change       -0.8021351E-04 Eh
   gradient norm :     0.0038813 Eh/α   predicted    -0.7126968E-04 ( -11.15%)
   displ. norm   :     0.2495575 α      lambda       -0.1382512E-03
   maximum displ.:     0.1359115 α      in ANC's #1, #12, #23, ...

........................................................................
.............................. CYCLE   56 ..............................
........................................................................
   1   -181.4781681 -0.181478E+03  0.870E-02    1.36       0.0  T
   2   -181.4781742 -0.610140E-05  0.448E-02    1.36       1.0  T
   3   -181.4781696  0.460598E-05  0.115E-02    1.36       1.0  T
   4   -181.4781752 -0.566017E-05  0.650E-03    1.36       1.5  T
   5   -181.4781765 -0.130203E-05  0.116E-03    1.36       8.7  T
   6   -181.4781766 -0.102016E-06  0.543E-04    1.36      18.5  T
   7   -181.4781766 -0.784107E-08  0.324E-04    1.36      31.0  T
     SCC iter.                  ...        0 min,  0.099 sec
     gradient                   ...        0 min,  0.024 sec
 * total energy  :  -179.3084103 Eh     change       -0.8693081E-04 Eh
   gradient norm :     0.0037196 Eh/α   predicted    -0.7343559E-04 ( -15.52%)
   displ. norm   :     0.2954208 α      lambda       -0.9725009E-04
   maximum displ.:     0.1674074 α      in ANC's #1, #12, #23, ...

........................................................................
.............................. CYCLE   57 ..............................
........................................................................
   1   -181.4780836 -0.181478E+03  0.966E-02    1.36       0.0  T
   2   -181.4780911 -0.750623E-05  0.499E-02    1.36       1.0  T
   3   -181.4780869  0.423061E-05  0.119E-02    1.36       1.0  T
   4   -181.4780920 -0.513442E-05  0.731E-03    1.36       1.4  T
   5   -181.4780939 -0.188877E-05  0.129E-03    1.36       7.8  T
   6   -181.4780940 -0.108904E-06  0.658E-04    1.36      15.3  T
   7   -181.4780940 -0.158377E-07  0.396E-04    1.36      25.4  T
     SCC iter.                  ...        0 min,  0.099 sec
     gradient                   ...        0 min,  0.020 sec
 * total energy  :  -179.3084820 Eh     change       -0.7168248E-04 Eh
   gradient norm :     0.0038854 Eh/α   predicted    -0.5286899E-04 ( -26.25%)
   displ. norm   :     0.2557601 α      lambda       -0.8334150E-04
   maximum displ.:     0.1554487 α      in ANC's #1, #12, #14, ...

........................................................................
.............................. CYCLE   58 ..............................
........................................................................
   1   -181.4779944 -0.181478E+03  0.730E-02    1.36       0.0  T
   2   -181.4779988 -0.440010E-05  0.382E-02    1.36       1.0  T
   3   -181.4779950  0.383530E-05  0.976E-03    1.36       1.0  T
   4   -181.4779999 -0.491926E-05  0.532E-03    1.36       1.9  T
   5   -181.4780006 -0.749047E-06  0.146E-03    1.36       6.9  T
   6   -181.4780008 -0.167705E-06  0.557E-04    1.36      18.0  T
   7   -181.4780008 -0.747511E-08  0.329E-04    1.36      30.6  T
     SCC iter.                  ...        0 min,  0.099 sec
     gradient                   ...        0 min,  0.029 sec
 * total energy  :  -179.3085474 Eh     change       -0.6544373E-04 Eh
   gradient norm :     0.0034656 Eh/α   predicted    -0.4440172E-04 ( -32.15%)
   displ. norm   :     0.3138671 α      lambda       -0.1099018E-03
   maximum displ.:     0.1916153 α      in ANC's #1, #14, #12, ...

........................................................................
.............................. CYCLE   59 ..............................
........................................................................
   1   -181.4776625 -0.181478E+03  0.995E-02    1.36       0.0  T
   2   -181.4776709 -0.846145E-05  0.505E-02    1.36       1.0  T
   3   -181.4776651  0.577755E-05  0.129E-02    1.36       1.0  T
   4   -181.4776726 -0.742343E-05  0.752E-03    1.36       1.3  T
   5   -181.4776744 -0.180959E-05  0.131E-03    1.36       7.7  T
   6   -181.4776745 -0.905241E-07  0.710E-04    1.36      14.2  T
   7   -181.4776745 -0.101104E-07  0.444E-04    1.36      22.6  T
     SCC iter.                  ...        0 min,  0.098 sec
     gradient                   ...        0 min,  0.174 sec
 * total energy  :  -179.3086359 Eh     change       -0.8842705E-04 Eh
   gradient norm :     0.0041341 Eh/α   predicted    -0.6036834E-04 ( -31.73%)
   displ. norm   :     0.4045978 α      lambda       -0.1635282E-03
   maximum displ.:     0.2528329 α      in ANC's #1, #9, #7, ...

........................................................................
.............................. CYCLE   60 ..............................
........................................................................
   1   -181.4790235 -0.181479E+03  0.112E-01    1.37       0.0  T
   2   -181.4790348 -0.113266E-04  0.577E-02    1.37       1.0  T
   3   -181.4790309  0.393742E-05  0.130E-02    1.37       1.0  T
   4   -181.4790364 -0.555745E-05  0.823E-03    1.37       1.2  T
   5   -181.4790389 -0.251081E-05  0.215E-03    1.37       4.7  T
   6   -181.4790393 -0.317668E-06  0.977E-04    1.37      10.3  T
     SCC iter.                  ...        0 min,  0.084 sec
     gradient                   ...        0 min,  0.028 sec
 * total energy  :  -179.3087586 Eh     change       -0.1227034E-03 Eh
   gradient norm :     0.0055389 Eh/α   predicted    -0.9515299E-04 ( -22.45%)
   displ. norm   :     0.4839096 α      lambda       -0.1777668E-03
   maximum displ.:     0.3022433 α      in ANC's #1, #9, #14, ...

........................................................................
.............................. CYCLE   61 ..............................
........................................................................
   1   -181.4766236 -0.181477E+03  0.144E-01    1.37       0.0  T
   2   -181.4766424 -0.188497E-04  0.729E-02    1.37       1.0  T
   3   -181.4766408  0.161418E-05  0.150E-02    1.37       1.0  T
   4   -181.4766439 -0.302388E-05  0.104E-02    1.37       1.0  T
   5   -181.4766484 -0.453318E-05  0.201E-03    1.37       5.0  T
   6   -181.4766486 -0.223448E-06  0.102E-03    1.37       9.8  T
   7   -181.4766486 -0.130063E-07  0.660E-04    1.37      15.2  T
     SCC iter.                  ...        0 min,  0.099 sec
     gradient                   ...        0 min,  0.028 sec
 * total energy  :  -179.3088862 Eh     change       -0.1276648E-03 Eh
   gradient norm :     0.0049433 Eh/α   predicted    -0.1096977E-03 ( -14.07%)
   displ. norm   :     0.4197376 α      lambda       -0.1863951E-03
   maximum displ.:     0.2615467 α      in ANC's #1, #9, #13, ...

........................................................................
.............................. CYCLE   62 ..............................
........................................................................
   1   -181.4786459 -0.181479E+03  0.116E-01    1.37       0.0  T
   2   -181.4786581 -0.122119E-04  0.594E-02    1.37       1.0  T
   3   -181.4786603 -0.222242E-05  0.107E-02    1.37       1.0  T
   4   -181.4786583  0.204464E-05  0.748E-03    1.37       1.3  T
   5   -181.4786618 -0.352031E-05  0.172E-03    1.37       5.9  T
   6   -181.4786619 -0.130017E-06  0.971E-04    1.37      10.4  T
   7   -181.4786620 -0.236349E-07  0.576E-04    1.37      17.5  T
     SCC iter.                  ...        0 min,  0.099 sec
     gradient                   ...        0 min,  0.024 sec
 * total energy  :  -179.3090203 Eh     change       -0.1340821E-03 Eh
   gradient norm :     0.0055168 Eh/α   predicted    -0.1096172E-03 ( -18.25%)
[...]
    13   8 O      0.857    -0.417    22.023     6.292
    14   7 N      2.778    -0.189    25.091     7.440
    15   6 C      2.808     0.287    22.145     7.710
    16   8 O      0.857    -0.388    21.441     6.208
    17   6 C      3.124    -0.066    29.435     8.884
    18   6 C      3.018     0.134    25.046     8.209
    19   6 C      2.896    -0.050    29.246     8.867
    20   6 C      2.933    -0.032    28.786     8.799
    21   6 C      2.987     0.014    27.693     8.632
    22  16 S      2.323    -0.028   142.197    20.070
    23   6 C      2.989     0.018    27.597     8.617
    24   6 C      3.139    -0.014    28.125     8.679
    25   6 C      3.141    -0.013    28.085     8.672
    26   6 C      3.809    -0.057    21.586     6.614
    27   6 C      3.856    -0.035    21.155     6.541
    28   6 C      3.332     0.484    17.363     6.607
    29   9 F      0.791    -0.200    11.240     3.960
    30   9 F      0.791    -0.215    11.392     3.987
    31   9 F      0.791    -0.212    11.361     3.982
    32   6 C      3.807    -0.059    21.633     6.621
    33   6 C      3.806    -0.057    21.595     6.615
    34   6 C      2.927    -0.049    29.205     8.863
    35   6 C      2.952    -0.037    28.919     8.820
    36   6 C      2.983     0.014    27.688     8.631
    37  16 S      2.358    -0.028   142.220    20.072
    38   6 C      3.018     0.006    27.861     8.658
    39   6 C      3.148    -0.015    28.122     8.675
    40   6 C      3.141    -0.016    28.165     8.685
    41   6 C      3.807    -0.055    21.559     6.610
    42   6 C      3.807    -0.067    21.782     6.644
    43   6 C      3.751     0.120    18.674     6.163
    44   8 O      1.701    -0.320    19.353     5.940
    45   6 C      3.644     0.043    20.178     6.457
    46   6 C      3.811    -0.064    21.714     6.633
    47   6 C      3.021     0.006    27.858     8.658
    48  16 S      2.342    -0.028   142.215    20.071
    49   6 C      2.989     0.014    27.692     8.632
    50   6 C      3.150    -0.014    28.071     8.666
    51   6 C      3.149    -0.016    28.130     8.676
    52   6 C      3.810    -0.053    21.521     6.604
    53   6 C      3.857    -0.034    21.138     6.539
    54   6 C      3.332     0.484    17.365     6.609
    55   9 F      0.791    -0.199    11.229     3.958
    56   9 F      0.791    -0.215    11.387     3.986
    57   9 F      0.791    -0.213    11.367     3.983
    58   6 C      3.807    -0.059    21.624     6.620
    59   6 C      3.806    -0.056    21.584     6.614
    60   6 C      2.920    -0.031    28.772     8.796
    61   6 C      2.841    -0.087    30.162     9.000
    62   1 H      0.926     0.044     2.393     2.419
    63   1 H      0.926     0.053     2.285     2.364
    64   1 H      0.926     0.053     2.285     2.364
    65   1 H      0.860     0.177     1.234     1.740
    66   1 H      0.925     0.085     1.923     2.169
    67   1 H      0.926     0.058     2.218     2.329
    68   1 H      0.860     0.193     1.142     1.674
    69   1 H      0.926     0.072     2.064     2.247
    70   1 H      0.925     0.056     2.251     2.346
    71   1 H      0.924     0.057     2.235     2.338
    72   1 H      0.924     0.057     2.240     2.341
    73   1 H      0.924     0.061     2.193     2.316
    74   1 H      0.924     0.053     2.279     2.361
    75   1 H      0.924     0.050     2.318     2.381
    76   1 H      0.924     0.046     2.367     2.406
    77   1 H      0.924     0.054     2.267     2.355
    78   1 H      0.926     0.046     2.369     2.407
    79   1 H      0.925     0.058     2.225     2.333
    80   1 H      0.924     0.047     2.359     2.402
    81   1 H      0.924     0.040     2.450     2.448
    82   1 H      0.924     0.047     2.361     2.403
    83   1 H      0.924     0.034     2.528     2.486
    84   1 H      0.923     0.013     2.849     2.640
    85   1 H      0.925     0.058     2.223     2.332
    86   1 H      0.924     0.028     2.619     2.531
    87   1 H      0.924     0.026     2.643     2.543
    88   1 H      0.924     0.063     2.163     2.300
    89   1 H      0.925     0.048     2.351     2.398
    90   1 H      0.924     0.053     2.288     2.365
    91   1 H      0.924     0.052     2.296     2.370
    92   1 H      0.924     0.059     2.205     2.322
    93   1 H      0.924     0.052     2.290     2.366
    94   1 H      0.924     0.050     2.323     2.383
    95   1 H      0.924     0.048     2.343     2.394
    96   1 H      0.924     0.054     2.269     2.356
    97   1 H      0.925     0.041     2.434     2.440
    98   1 H      0.926     0.050     2.316     2.380
    99   1 H      0.926     0.043     2.406     2.426

 Mol. C6AA /au·bohr⁶  :     142620.976960
 Mol. C8AA /au·bohr⁸  :    3814324.655666
 Mol. α(0) /au        :        589.675959


Wiberg/Mayer (AO) data.
largest (>0.10) Wiberg bond orders for each atom
          total WBO             WBO to atom ...
     1  C   3.918        C    5 1.535    S    2 1.193    H   62 0.971    C    3 0.112
     2  S   2.629        C    3 1.195    C    1 1.193
     3  C   3.952        C    4 1.642    S    2 1.195    H   63 0.971    C    1 0.112
     4  C   3.982        C    3 1.642    C    5 1.217    H   64 0.961
     5  C   3.961        C    1 1.535    C    4 1.217    N    6 1.075
     6  N   3.493        C    7 1.230    C    5 1.075    H   65 0.938
     7  C   3.943        C    8 1.598    N    6 1.230    H   66 0.948
     8  C   3.959        C    7 1.598    C    9 1.194    H   67 0.958
     9  C   3.905        C   11 1.396    C    8 1.194    O   10 1.096
    10  O   2.396        C    9 1.096    C   18 1.072
    11  C   3.954        C    9 1.396    C   17 1.222    C   12 1.054
    12  C   3.938        O   13 1.686    N   14 1.115    C   11 1.054
    13  O   2.021        C   12 1.686    N   14 0.129
    14  N   3.488        C   12 1.115    C   15 1.101    H   68 0.930    O   16 0.133    O   13 0.129
    15  C   3.934        O   16 1.725    N   14 1.101    C   17 1.037
    16  O   2.041        C   15 1.725    N   14 0.133
    17  C   3.932        C   18 1.419    C   11 1.222    C   15 1.037
    18  C   3.909        C   17 1.419    C   19 1.196    O   10 1.072
    19  C   3.956        C   20 1.621    C   18 1.196    H   69 0.955
    20  C   3.965        C   19 1.621    C   21 1.220    H   70 0.954
    21  C   3.930        C   25 1.403    C   20 1.220    S   22 1.120
    22  S   2.564        C   23 1.134    C   21 1.120
    23  C   3.925        C   24 1.407    C   34 1.200    S   22 1.134
    24  C   3.951        C   23 1.407    C   25 1.331    C   33 1.010
    25  C   3.947        C   21 1.403    C   24 1.331    C   26 1.009
    26  C   3.993        C   25 1.009    C   27 0.990    H   72 0.964    H   71 0.959
    27  C   3.981        C   32 0.993    C   26 0.990    H   73 0.960    C   28 0.945
    28  C   3.820        F   29 0.956    C   27 0.945    F   31 0.944    F   30 0.941
    29  F   1.081        C   28 0.956
    30  F   1.063        C   28 0.941
    31  F   1.066        C   28 0.944
    32  C   3.992        C   33 1.006    C   27 0.993    H   75 0.975    H   74 0.975
    33  C   3.996        C   24 1.010    C   32 1.006    H   76 0.965    H   77 0.959
    34  C   3.980        C   35 1.644    C   23 1.200    H   78 0.951
    35  C   3.955        C   34 1.644    C   36 1.191    H   79 0.954
    36  C   3.941        C   40 1.447    C   35 1.191    S   37 1.120
    37  S   2.581        C   38 1.142    C   36 1.120
    38  C   3.921        C   39 1.491    S   37 1.142    C   47 1.084
    39  C   3.977        C   38 1.491    C   40 1.277    C   46 1.010
    40  C   3.945        C   36 1.447    C   39 1.277    C   41 1.011
    41  C   3.997        C   40 1.011    C   42 1.003    H   80 0.963    H   81 0.958
    42  C   3.996        C   41 1.003    C   43 0.986    H   82 0.977    H   83 0.973
    43  C   3.953        C   46 0.988    C   42 0.986    O   44 0.972    H   84 0.958
    44  O   2.074        C   45 0.999    C   43 0.972
    45  C   3.954        O   44 0.999    H   85 0.979    H   87 0.976    H   86 0.976
    46  C   3.995        C   39 1.010    C   43 0.988    H   89 0.961    H   88 0.954
    47  C   3.950        C   51 1.506    S   48 1.138    C   38 1.084
    48  S   2.597        C   47 1.138    C   49 1.131
    49  C   3.943        C   50 1.486    C   60 1.138    S   48 1.131
    50  C   3.983        C   49 1.486    C   51 1.264    C   59 1.009
    51  C   3.976        C   47 1.506    C   50 1.264    C   52 1.008
    52  C   3.993        C   51 1.008    C   53 0.989    H   91 0.967    H   90 0.953
    53  C   3.982        C   58 0.993    C   52 0.989    H   92 0.960    C   54 0.945
    54  C   3.821        F   55 0.957    C   53 0.945    F   57 0.943    F   56 0.941
    55  F   1.082        C   54 0.957
    56  F   1.063        C   54 0.941
    57  F   1.065        C   54 0.943
    58  C   3.992        C   59 1.006    C   53 0.993    H   94 0.976    H   93 0.975
    59  C   3.996        C   50 1.009    C   58 1.006    H   95 0.965    H   96 0.960
    60  C   3.991        C   61 1.862    C   49 1.138    H   97 0.957
    61  C   3.981        C   60 1.862    H   99 0.978    H   98 0.971
    62  H   0.998        C    1 0.971
    63  H   0.997        C    3 0.971
    64  H   0.997        C    4 0.961
    65  H   0.968        N    6 0.938
    66  H   0.991        C    7 0.948
    67  H   0.996        C    8 0.958
    68  H   0.963        N   14 0.930
    69  H   0.994        C   19 0.955
    70  H   0.997        C   20 0.954
    71  H   0.995        C   26 0.959
    72  H   0.995        C   26 0.964
    73  H   0.996        C   27 0.960
    74  H   0.997        C   32 0.975
    75  H   0.997        C   32 0.975
    76  H   0.997        C   33 0.965
    77  H   0.995        C   33 0.959
    78  H   0.998        C   34 0.951
    79  H   0.996        C   35 0.954
    80  H   0.997        C   41 0.963
    81  H   0.997        C   41 0.958
    82  H   0.998        C   42 0.977
    83  H   0.998        C   42 0.973
    84  H   1.000        C   43 0.958
    85  H   0.996        C   45 0.979
    86  H   0.999        C   45 0.976
    87  H   0.999        C   45 0.976
    88  H   0.995        C   46 0.954
    89  H   0.997        C   46 0.961
    90  H   0.997        C   52 0.953
    91  H   0.997        C   52 0.967
    92  H   0.996        C   53 0.960
    93  H   0.997        C   58 0.975
    94  H   0.997        C   58 0.976
    95  H   0.997        C   59 0.965
    96  H   0.997        C   59 0.960
    97  H   0.998        C   60 0.957
    98  H   0.997        C   61 0.971
    99  H   0.997        C   61 0.978

molecular dipole:
                 x           y           z       tot (Debye)
 q only:       -1.274      -2.326       2.500
   full:       -0.766      -2.499       2.779       9.697
molecular quadrupole (traceless):
                xx          xy          yy          xz          yz          zz
 q only:       19.597    -124.886     -76.385      36.613     194.897      56.788
  q+dip:       45.504    -118.304     -84.562      36.139     197.893      39.058
   full:       47.655    -114.518     -83.312      35.960     198.749      35.656

           -------------------------------------------------
          |                Geometry Summary                 |
           -------------------------------------------------

      molecular mass/u    :      913.0366000
   center of mass at/Å    :        6.8817875      15.5047432      -4.9465653
  moments of inertia/u·Å² :        0.9834577E+04   0.4862476E+05   0.5415085E+05
rotational constants/cm⁻¹ :        0.1714119E-02   0.3466883E-03   0.3113088E-03

 * 98 selected distances

     #   Z        #   Z                                     value/Å
     1   6 C      2  16 S                                 1.7161184
     2  16 S      3   6 C                                 1.7182615
     3   6 C      4   6 C                                 1.3542489
     1   6 C      5   6 C                                 1.3676780
     4   6 C      5   6 C                                 1.4237680
     5   6 C      6   7 N                                 1.3899933
     6   7 N      7   6 C                                 1.3557167
     7   6 C      8   6 C                                 1.3544553
     8   6 C      9   6 C                                 1.4180653
     9   6 C     10   8 O                                 1.3607424
     9   6 C     11   6 C                                 1.3825887
    12   6 C     13   8 O                                 1.2113586
    12   6 C     14   7 N                                 1.3914869
    14   7 N     15   6 C                                 1.3972807
    15   6 C     16   8 O                                 1.2051332
    11   6 C     17   6 C                                 1.4220079
    10   8 O     18   6 C                                 1.3700829
    17   6 C     18   6 C                                 1.3787455
    18   6 C     19   6 C                                 1.4165971
    19   6 C     20   6 C                                 1.3550474
    20   6 C     21   6 C                                 1.4163334
    21   6 C     22  16 S                                 1.7407206
    22  16 S     23   6 C                                 1.7384987
    23   6 C     24   6 C                                 1.3872776
    21   6 C     25   6 C                                 1.3879270
    24   6 C     25   6 C                                 1.4011861
    26   6 C     27   6 C                                 1.5320516
    27   6 C     28   6 C                                 1.5246192
    28   6 C     29   9 F                                 1.3371720
    28   6 C     30   9 F                                 1.3464830
    28   6 C     31   9 F                                 1.3446866
    27   6 C     32   6 C                                 1.5302752
    32   6 C     33   6 C                                 1.5274623
    23   6 C     34   6 C                                 1.4220362
    34   6 C     35   6 C                                 1.3518070
    35   6 C     36   6 C                                 1.4248647
    36   6 C     37  16 S                                 1.7443975 (max)
    37  16 S     38   6 C                                 1.7355361
    38   6 C     39   6 C                                 1.3740435
    36   6 C     40   6 C                                 1.3822294
    39   6 C     40   6 C                                 1.4126553
    41   6 C     42   6 C                                 1.5268269
    42   6 C     43   6 C                                 1.5316689
    43   6 C     44   8 O                                 1.4152139
    44   8 O     45   6 C                                 1.4035798
    39   6 C     46   6 C                                 1.4956181
    43   6 C     46   6 C                                 1.5280561
    47   6 C     48  16 S                                 1.7363191
    48  16 S     49   6 C                                 1.7378909
    49   6 C     50   6 C                                 1.3756181
    47   6 C     51   6 C                                 1.3716686
    50   6 C     51   6 C                                 1.4140022
    52   6 C     53   6 C                                 1.5311761
    53   6 C     54   6 C                                 1.5239665
    54   6 C     55   9 F                                 1.3364663
    54   6 C     56   9 F                                 1.3463040
    54   6 C     57   9 F                                 1.3453669
    53   6 C     58   6 C                                 1.5311147
    58   6 C     59   6 C                                 1.5279930
    60   6 C     61   6 C                                 1.3301489
     1   6 C     62   1 H                                 1.0716214
     3   6 C     63   1 H                                 1.0714462
     4   6 C     64   1 H                                 1.0734848
     6   7 N     65   1 H                                 1.0091075 (min)
     7   6 C     66   1 H                                 1.0823007
     8   6 C     67   1 H                                 1.0777896
    14   7 N     68   1 H                                 1.0096352
    19   6 C     69   1 H                                 1.0802724
    20   6 C     70   1 H                                 1.0814864
    26   6 C     71   1 H                                 1.0943952
    26   6 C     72   1 H                                 1.0927528
    27   6 C     73   1 H                                 1.0961674
    32   6 C     74   1 H                                 1.0917695
    32   6 C     75   1 H                                 1.0913399
    33   6 C     76   1 H                                 1.0922789
    33   6 C     77   1 H                                 1.0942099
    34   6 C     78   1 H                                 1.0778868
    35   6 C     79   1 H                                 1.0834394
    41   6 C     80   1 H                                 1.0926260
    41   6 C     81   1 H                                 1.0958581
    42   6 C     82   1 H                                 1.0913820
    42   6 C     83   1 H                                 1.0911368
    43   6 C     84   1 H                                 1.1044106
    45   6 C     85   1 H                                 1.0883907
    45   6 C     86   1 H                                 1.0957202
    45   6 C     87   1 H                                 1.0974971
    46   6 C     88   1 H                                 1.0942316
    46   6 C     89   1 H                                 1.0892687
    52   6 C     90   1 H                                 1.0943596
    52   6 C     91   1 H                                 1.0930494
    53   6 C     92   1 H                                 1.0963329
    58   6 C     93   1 H                                 1.0919023
    58   6 C     94   1 H                                 1.0913709
    59   6 C     95   1 H                                 1.0923887
    59   6 C     96   1 H                                 1.0943640
    60   6 C     97   1 H                                 1.0818440
    61   6 C     98   1 H                                 1.0774793
    61   6 C     99   1 H                                 1.0753154

 * 7 distinct bonds (by element types)

   Z      Z             #   av. dist./Å        max./Å        min./Å
   1 H    6 C          36     1.0883769     1.1044106     1.0714462
   6 C    6 C          36     1.4343286     1.5320516     1.3301489
   1 H    7 N           2     1.0093714     1.0096352     1.0091075
   6 C    7 N           4     1.3836194     1.3972807     1.3557167
   6 C    8 O           6     1.3276852     1.4152139     1.2051332
   6 C    9 F           6     1.3427465     1.3464830     1.3364663
   6 C   16 S           8     1.7334678     1.7443975     1.7161184


optimized geometry written to: xtbopt.xyz


           -------------------------------------------------
          | TOTAL ENERGY             -179.312514589186 Eh   |
          | GRADIENT NORM               0.000183918427 Eh/α |
          | HOMO-LUMO GAP               1.356406655745 eV   |
           -------------------------------------------------

------------------------------------------------------------------------
 * finished run on 2021/06/01 at 23:22:25.239     
------------------------------------------------------------------------
 total:
 * wall-time:     0 d,  0 h,  0 min, 25.684 sec
 *  cpu-time:     0 d,  0 h,  4 min, 42.369 sec
 * ratio c/w:    10.994 speedup
 SCF:
 * wall-time:     0 d,  0 h,  0 min,  0.235 sec
 *  cpu-time:     0 d,  0 h,  0 min,  2.551 sec
 * ratio c/w:    10.833 speedup
 ANC optimizer:
 * wall-time:     0 d,  0 h,  0 min, 25.405 sec
 *  cpu-time:     0 d,  0 h,  4 min, 39.449 sec
 * ratio c/w:    11.000 speedup

