      -----------------------------------------------------------      
     |                   =====================                   |     
     |                           x T B                           |     
     |                   =====================                   |     
     |                         S. Grimme                         |     
     |          Mulliken Center for Theoretical Chemistry        |     
     |                    University of Bonn                     |     
     |                Version 6.2 RC2 (SAW190805)                |     
      -----------------------------------------------------------      

   This program is distributed in the hope that it will be useful,
   but WITHOUT ANY WARRANTY; without even the implied warranty of
   MERCHANTABILITY or FITNESS FOR A PARTICULAR PURPOSE.
   
   FOR NON-COMMERCIAL, ACADEMIA USE ONLY.
   
   Cite this work as:
   * S. Grimme, C. Bannwarth, P. Shushkov, J. Chem. Theory Comput., 2017,
     13, 1989-2009. DOI: 10.1021/acs.jctc.7b00118
   * C. Bannwarth, S. Ehlert and S. Grimme., J. Chem. Theory Comput., 2019,
     15, 1652-1671. DOI: 10.1021/acs.jctc.8b01176
   * P. Pracht, E. Caldeweyher, S. Ehlert, S. Grimme, ChemRxiv, 2019, preprint.
     DOI: 10.26434/chemrxiv.8326202.v1
   
   for DFT-D4:
   * E. Caldeweyher, C. Bannwarth and S. Grimme, J. Chem. Phys., 2017,
     147, 034112. DOI: 10.1063/1.4993215
   * E. Caldeweyher, S. Ehlert, A. Hansen, H. Neugebauer, S. Spicher,
     C. Bannwarth and S. Grimme, J. Chem. Phys., 2019, 150, 154122.
     DOI: 10.1063/1.5090222
   
   for sTDA-xTB:
   * S. Grimme and C. Bannwarth, J. Chem. Phys., 2016, 145, 054103.
     DOI: 10.1063/1.4959605
   
   in the mass-spec context:
   * V. Asgeirsson, C. Bauer and S. Grimme, Chem. Sci., 2017, 8, 4879.
     DOI: 10.1039/c7sc00601b
   
   for metadynamics refer to:
   * S. Grimme, J. Chem. Theory Comput., 2019, 155, 2847-2862
     DOI: 10.1021/acs.jctc.9b00143
   
   with help from (in alphabetical order)
   C. Bannwarth, F. Bohle, G. Brandenburg, E. Caldeweyher, M. Checinski,
   S. Dohm, S. Ehlert, S. Ehrlich, F. März, H. Neugebauer, J. Pisarek,
   P. Pracht, P. Shushkov, and S. Spicher.
   
 * started run on 2021/06/14 at 22:48:44.361     

           -------------------------------------------------
          |                Calculation Setup                |
           -------------------------------------------------

          program call               : /ihome/ghutchison/geoffh/xtb/xtb /ihome/ghutchison/blp62/GA/running_GA/sequence/generations/187/90_70_47_5_90_13051.xyz -opt
          hostname                   : smp-n21
          coordinate file            : /ihome/ghutchison/blp62/GA/running_GA/sequence/generations/187/90_70_47_5_90_13051.xyz
          omp threads                :                    12
          number of atoms            :                    90
          number of electrons        :                   290
          charge                     :                     0
          spin                       :                   0.0
          first test random number   :      0.45414747791483


########################################################################
# WARNING! Please study the warnings concerning your input carefully
#  - XTBPATH is not set, using XTBHOME instead
#  - the use of '-opt' is discouraged, please use '--opt' next time
########################################################################

           ------------------------------------------------- 
          |                 G F N 2 - x T B                 |
          | Geometry, Frequencies, Noncovalent interactions |
          |            JCTC 2019 parametrisation            |
           ------------------------------------------------- 
             KAB for C  - Si     :                1.0500
             KAB for H  - Pd     :                0.9500
             k(s)              :                1.8500
             k(p)              :                2.2300
             k(d)              :                2.2300
             k(f)              :                2.0000
             kEN (H0ij)        :               -2.0000
             D4 a1             :                0.5200
             D4 a2             :                5.0000
             D4 s6             :                1.0000
             D4 s8             :                2.7000
             D4 s9             :                5.0000
             alphaj            :                2.0000

  Z AO/shell   Hii/eV     exponent
  1     Wed Apr 25 08:07:45 CEST 2018   EN: 2.200 GM2: 0.406  GM3: 0.0800  RAES: 1.40
     1s    -10.707211    1.230000
  6     Wed Apr 25 08:07:45 CEST 2018   EN: 2.550 GM2: 0.538  GM3: 0.1500  RAES: 3.00
     2s    -13.970922    2.096432
     2p    -10.063292    1.800000
  7     Wed Apr 25 08:07:45 CEST 2018   EN: 3.040 GM2: 0.461  GM3:-0.0640  RAES: 1.90
     2s    -16.686243    2.339881
     2p    -12.523956    2.014332
  8     Wed Apr 25 08:07:45 CEST 2018   EN: 3.440 GM2: 0.452  GM3:-0.0517  RAES: 1.80
     2s    -20.229985    2.439742
     2p    -15.503117    2.137023
 16     Tue Apr 24 11:44:34 CEST 2018   EN: 2.580 GM2: 0.340  GM3:-0.0502  RAES: 3.10
     3s    -20.029654    1.981333
     3p    -11.377694    2.025643
     3d     -0.420282    1.702555

           ------------------------------------------------- 
          |        Self-Consistent Charge Iterations        |
           ------------------------------------------------- 

          ...................................................
          :                      SETUP                      :
          :.................................................:
          :  # basis functions                 300          :
          :  # atomic orbitals                 295          :
          :  # shells                          155          :
          :  # electrons                       290          :
          :  max. iterations                   250          :
          :  Hamiltonian                  GFN2-xTB          :
          :  restarted?                      false          :
          :  GBSA solvation                  false          :
          :  PC potential                    false          :
          :  electronic temp.          300.0000000     K    :
          :  accuracy                    1.0000000          :
          :  -> integral cutoff          0.2500000E+02      :
          :  -> integral neglect         0.1000000E-07      :
          :  -> SCF convergence          0.1000000E-05 Eh   :
          :  -> wf. convergence          0.1000000E-03 e    :
          :  Broyden damping             0.4000000          :
          ...................................................

 iter      E             dE          RMSdq      gap      omega  full diag
   1   -159.7811684 -0.159781E+03  0.490E+00    1.03       0.0  T
   2   -159.8494132 -0.682448E-01  0.311E+00    0.66       1.0  T
   3   -159.1669658  0.682447E+00  0.256E+00    0.23       1.0  T
   4   -158.6951105  0.471855E+00  0.226E+00    0.41       1.0  T
   5   -159.9324298 -0.123732E+01  0.837E-01    0.09       1.0  T
   6   -159.9955552 -0.631254E-01  0.484E-01    0.38       1.0  T
   7   -159.9968147 -0.125944E-02  0.355E-01    0.21       1.0  T
   8   -159.9930319  0.378279E-02  0.346E-01    0.11       1.0  T
   9   -160.0014832 -0.845128E-02  0.155E-01    0.19       1.0  T
  10   -160.0022538 -0.770622E-03  0.667E-02    0.16       1.0  T
  11   -160.0024699 -0.216097E-03  0.347E-02    0.16       1.0  T
  12   -160.0024997 -0.298472E-04  0.271E-02    0.17       1.0  T
  13   -160.0025477 -0.479997E-04  0.132E-02    0.16       1.0  T
  14   -160.0025464  0.136406E-05  0.102E-02    0.17       1.0  T
  15   -160.0025562 -0.987451E-05  0.469E-03    0.16       2.2  T
  16   -160.0025571 -0.867034E-06  0.176E-03    0.16       6.0  T
  17   -160.0025573 -0.233415E-06  0.148E-03    0.16       7.1  T
  18   -160.0025574 -0.106171E-06  0.509E-04    0.16      20.7  T
  19   -160.0025574  0.111696E-07  0.541E-04    0.16      19.5  T

   *** convergence criteria satisfied after 19 iterations ***

         #    Occupation            Energy/Eh            Energy/eV
      -------------------------------------------------------------
         1        2.0000           -0.7749226             -21.0867
       ...           ...                  ...                  ...
       139        2.0000           -0.4025923             -10.9551
       140        2.0000           -0.3995572             -10.8725
       141        2.0000           -0.3870839             -10.5331
       142        2.0000           -0.3826917             -10.4136
       143        2.0000           -0.3790387             -10.3142
       144        1.9819           -0.3604194              -9.8075
       145        1.9281           -0.3590820              -9.7711 (HOMO)
       146        0.0899           -0.3530539              -9.6071 (LUMO)
       147                         -0.3088623              -8.4046
       148                         -0.3086843              -8.3997
       149                         -0.3032758              -8.2526
       150                         -0.2754040              -7.4941
       ...                                ...                  ...
       295                          1.0692276              29.0952
      -------------------------------------------------------------
                  HL-Gap            0.0060281 Eh            0.1640 eV
             Fermi-level           -0.3559569 Eh           -9.6861 eV

 SCC (total)                   0 d,  0 h,  0 min,  0.200 sec
 SCC setup                      ...        0 min,  0.002 sec (  0.803%)
 Dispersion                     ...        0 min,  0.003 sec (  1.658%)
 integral evaluation            ...        0 min,  0.018 sec (  8.840%)
 zeroth order Hamiltonian       ...        0 min,  0.001 sec (  0.464%)
 iterations                     ...        0 min,  0.162 sec ( 80.909%)
 molecular gradient             ...        0 min,  0.014 sec (  6.931%)
 printout                       ...        0 min,  0.001 sec (  0.352%)

         :::::::::::::::::::::::::::::::::::::::::::::::::::::
         ::                     SUMMARY                     ::
         :::::::::::::::::::::::::::::::::::::::::::::::::::::
         :: total energy            -157.661645942999 Eh    ::
         :: gradient norm              0.165036227922 Eh/a0 ::
         :: HOMO-LUMO gap              0.164032694494 eV    ::
         ::.................................................::
         :: SCC energy              -160.002557433044 Eh    ::
         :: -> isotropic ES            0.068288046647 Eh    ::
         :: -> anisotropic ES          0.019292978533 Eh    ::
         :: -> anisotropic XC          0.116023120887 Eh    ::
         :: -> dispersion             -0.131822032115 Eh    ::
         :: repulsion energy           2.340527619484 Eh    ::
         :: add. restraining           0.000000000000 Eh    ::
         :::::::::::::::::::::::::::::::::::::::::::::::::::::

      ----------------------------------------------------------- 
     |                   =====================                   |
     |                        A N C O P T                        |
     |                   =====================                   |
     |               Approximate Normal Coordinate               |
     |                Rational Function Optimizer                |
      ----------------------------------------------------------- 

          ...................................................
          :                      SETUP                      :
          :.................................................:
          :   optimization level            normal          :
          :   max. optcycles                   270          :
          :   ANC micro-cycles                  20          :
          :   degrees of freedom               264          :
          :.................................................:
          :   RF solver                   davidson          :
          :   input Hessian                  false          :
          :   write xtbopt.log                true          :
          :   linear?                        false          :
          :   energy convergence         0.5000000E-05 Eh   :
          :   grad. convergence          0.1000000E-02 Eh/α :
          :   maximium RF displ.         2.0000000          :
          :   Hlow (freq-cutoff)         0.5000000E-02      :
          :   Hmax (freq-cutoff)         5.0000000          :
          :   S6 in model hess.         20.0000000          :
          ...................................................

generating ANC from model Hessian ...
Using Lindh-Hessian (1995)
 Shifting diagonal of input Hessian by   4.983616698354591E-003
 Lowest  eigenvalues of input Hessian
   -0.000000   -0.000000   -0.000000   -0.000000    0.000000    0.000000
    0.005000    0.005008    0.005024    0.005067    0.005124    0.005136
    0.005185    0.005239    0.005362    0.005468    0.005624    0.005843
 Highest eigenvalues
    2.056814    2.065899    2.074748    2.101212    2.519901    2.538205
 

........................................................................
.............................. CYCLE    1 ..............................
........................................................................
   1   -160.0025575 -0.160003E+03  0.134E-04    0.16       0.0  T
   2   -160.0025575  0.107144E-07  0.290E-04    0.16      36.3  T
   3   -160.0025575 -0.814106E-08  0.161E-04    0.16      65.5  T
     SCC iter.                  ...        0 min,  0.027 sec
     gradient                   ...        0 min,  0.013 sec
 * total energy  :  -157.6616462 Eh     change       -0.3049879E-06 Eh
   gradient norm :     0.1650554 Eh/α   predicted     0.0000000E+00 (-100.00%)
   displ. norm   :     0.4084726 α      lambda       -0.3158931E-01
   maximum displ.:     0.1124812 α      in ANC's #33, #88, #37, ...

........................................................................
.............................. CYCLE    2 ..............................
........................................................................
   1   -160.1163569 -0.160116E+03  0.304E-01    0.25       0.0  T
   2   -160.0796167  0.367402E-01  0.529E-01    0.09       1.0  T
   3   -160.1142750 -0.346584E-01  0.193E-01    0.33       1.0  T
   4   -160.1160885 -0.181350E-02  0.146E-01    0.28       1.0  T
   5   -160.1161266 -0.380908E-04  0.111E-01    0.28       1.0  T
   6   -160.1168976 -0.771010E-03  0.809E-02    0.25       1.0  T
   7   -160.1175232 -0.625559E-03  0.375E-02    0.21       1.0  T
   8   -160.1176651 -0.141873E-03  0.144E-02    0.19       1.0  T
   9   -160.1176773 -0.122799E-04  0.777E-03    0.18       1.4  T
  10   -160.1176822 -0.485765E-05  0.383E-03    0.19       2.7  T
  11   -160.1176841 -0.190343E-05  0.987E-04    0.19      10.7  T
     SCC iter.                  ...        0 min,  0.088 sec
     gradient                   ...        0 min,  0.013 sec
 * total energy  :  -157.6835472 Eh     change       -0.2190097E-01 Eh
   gradient norm :     0.0763366 Eh/α   predicted    -0.1843020E-01 ( -15.85%)
   displ. norm   :     0.4585852 α      lambda       -0.1292057E-01
   maximum displ.:     0.1755022 α      in ANC's #37, #33, #28, ...

........................................................................
.............................. CYCLE    3 ..............................
........................................................................
   1   -160.1692711 -0.160169E+03  0.276E-01    0.26       0.0  T
   2   -160.1609323  0.833878E-02  0.280E-01    0.13       1.0  T
   3   -160.1662416 -0.530929E-02  0.183E-01    0.38       1.0  T
   4   -160.1688200 -0.257846E-02  0.137E-01    0.29       1.0  T
   5   -160.1693566 -0.536561E-03  0.815E-02    0.28       1.0  T
   6   -160.1697647 -0.408091E-03  0.558E-02    0.25       1.0  T
   7   -160.1701083 -0.343622E-03  0.204E-02    0.22       1.0  T
   8   -160.1701174 -0.912361E-05  0.147E-02    0.20       1.0  T
   9   -160.1701459 -0.285137E-04  0.458E-03    0.21       2.3  T
  10   -160.1701474 -0.146981E-05  0.255E-03    0.21       4.1  T
  11   -160.1701478 -0.434246E-06  0.105E-03    0.21      10.0  T
     SCC iter.                  ...        0 min,  0.091 sec
     gradient                   ...        0 min,  0.013 sec
 * total energy  :  -157.6916703 Eh     change       -0.8123077E-02 Eh
   gradient norm :     0.0271576 Eh/α   predicted    -0.7818895E-02 (  -3.74%)
   displ. norm   :     0.5493194 α      lambda       -0.5385429E-02
   maximum displ.:     0.1951849 α      in ANC's #28, #33, #14, ...

........................................................................
.............................. CYCLE    4 ..............................
........................................................................
   1   -160.1696853 -0.160170E+03  0.361E-01    0.23       0.0  T
   2   -160.1697233 -0.380300E-04  0.189E-01    0.20       1.0  T
   3   -160.1677574  0.196590E-02  0.129E-01    0.35       1.0  T
   4   -160.1698387 -0.208129E-02  0.442E-02    0.22       1.0  T
   5   -160.1699570 -0.118315E-03  0.232E-02    0.23       1.0  T
   6   -160.1699528  0.420617E-05  0.214E-02    0.21       1.0  T
   7   -160.1699990 -0.461705E-04  0.942E-03    0.22       1.1  T
   8   -160.1700078 -0.886642E-05  0.396E-03    0.22       2.7  T
   9   -160.1700095 -0.172561E-05  0.130E-03    0.22       8.1  T
  10   -160.1700096 -0.647680E-07  0.798E-04    0.22      13.2  T
     SCC iter.                  ...        0 min,  0.082 sec
     gradient                   ...        0 min,  0.013 sec
 * total energy  :  -157.6933170 Eh     change       -0.1646683E-02 Eh
   gradient norm :     0.0404381 Eh/α   predicted    -0.3505251E-02 ( 112.87%)
   displ. norm   :     0.5105963 α      lambda       -0.6779865E-02
   maximum displ.:     0.1950077 α      in ANC's #28, #37, #33, ...

........................................................................
.............................. CYCLE    5 ..............................
........................................................................
   1   -160.1770122 -0.160177E+03  0.329E-01    0.22       0.0  T
   2   -160.1769386  0.735750E-04  0.172E-01    0.25       1.0  T
   3   -160.1492911  0.276475E-01  0.397E-01    0.12       1.0  T
   4   -160.1767171 -0.274260E-01  0.746E-02    0.25       1.0  T
   5   -160.1771238 -0.406685E-03  0.345E-02    0.24       1.0  T
   6   -160.1771787 -0.548308E-04  0.245E-02    0.24       1.0  T
   7   -160.1772549 -0.762215E-04  0.858E-03    0.23       1.2  T
   8   -160.1772610 -0.607899E-05  0.351E-03    0.23       3.0  T
   9   -160.1772618 -0.886564E-06  0.195E-03    0.23       5.4  T
  10   -160.1772620 -0.151744E-06  0.897E-04    0.22      11.7  T
     SCC iter.                  ...        0 min,  0.081 sec
     gradient                   ...        0 min,  0.013 sec
 * total energy  :  -157.6965860 Eh     change       -0.3268974E-02 Eh
   gradient norm :     0.0327880 Eh/α   predicted    -0.4273720E-02 (  30.74%)
   displ. norm   :     0.3094631 α      lambda       -0.2264480E-02
   maximum displ.:     0.1130968 α      in ANC's #28, #20, #23, ...

........................................................................
.............................. CYCLE    6 ..............................
........................................................................
   1   -160.1697345 -0.160170E+03  0.131E-01    0.20       0.0  T
   2   -160.1694124  0.322009E-03  0.852E-02    0.26       1.0  T
   3   -160.1625177  0.689469E-02  0.209E-01    0.14       1.0  T
   4   -160.1694386 -0.692082E-02  0.539E-02    0.26       1.0  T
   5   -160.1696754 -0.236825E-03  0.363E-02    0.24       1.0  T
   6   -160.1697858 -0.110381E-03  0.217E-02    0.23       1.0  T
   7   -160.1698540 -0.682252E-04  0.649E-03    0.22       1.6  T
   8   -160.1698582 -0.421854E-05  0.259E-03    0.22       4.1  T
   9   -160.1698585 -0.317268E-06  0.116E-03    0.22       9.1  T
     SCC iter.                  ...        0 min,  0.074 sec
     gradient                   ...        0 min,  0.013 sec
 * total energy  :  -157.6983416 Eh     change       -0.1755604E-02 Eh
   gradient norm :     0.0190770 Eh/α   predicted    -0.1240674E-02 ( -29.33%)
   displ. norm   :     0.6583672 α      lambda       -0.4364851E-02
   maximum displ.:     0.2542490 α      in ANC's #28, #14, #8, ...

........................................................................
.............................. CYCLE    7 ..............................
........................................................................
   1   -160.1588943 -0.160159E+03  0.350E-01    0.16       0.0  T
   2   -160.1571094  0.178489E-02  0.217E-01    0.34       1.0  T
   3   -160.0311826  0.125927E+00  0.861E-01    0.10       1.0  T
   4   -160.1574145 -0.126232E+00  0.160E-01    0.39       1.0  T
   5   -160.1572518  0.162721E-03  0.141E-01    0.37       1.0  T
   6   -160.1581924 -0.940623E-03  0.122E-01    0.32       1.0  T
   7   -160.1585679 -0.375519E-03  0.105E-01    0.30       1.0  T
   8   -160.1588608 -0.292893E-03  0.920E-02    0.28       1.0  T
   9   -160.1596105 -0.749710E-03  0.535E-02    0.23       1.0  T
  10   -160.1599019 -0.291362E-03  0.257E-02    0.21       1.0  T
  11   -160.1599810 -0.790561E-04  0.389E-03    0.20       2.7  T
  12   -160.1599784  0.254229E-05  0.517E-03    0.20       2.0  T
  13   -160.1599804 -0.200421E-05  0.293E-03    0.19       3.6  T
  14   -160.1599816 -0.112794E-05  0.513E-04    0.20      20.6  T
     SCC iter.                  ...        0 min,  0.118 sec
     gradient                   ...        0 min,  0.015 sec
 * total energy  :  -157.7004490 Eh     change       -0.2107408E-02 Eh
   gradient norm :     0.0291184 Eh/α   predicted    -0.3128393E-02 (  48.45%)
   displ. norm   :     0.5800732 α      lambda       -0.3982806E-02
   maximum displ.:     0.2065622 α      in ANC's #29, #28, #14, ...

........................................................................
.............................. CYCLE    8 ..............................
........................................................................
   1   -160.1605861 -0.160161E+03  0.386E-01    0.17       0.0  T
   2   -160.1596285  0.957650E-03  0.201E-01    0.26       1.0  T
   3   -159.9288772  0.230751E+00  0.115E+00    0.14       1.0  T
   4   -160.1598334 -0.230956E+00  0.117E-01    0.27       1.0  T
   5   -160.1596540  0.179422E-03  0.949E-02    0.27       1.0  T
   6   -160.1601611 -0.507067E-03  0.799E-02    0.25       1.0  T
   7   -160.1605726 -0.411542E-03  0.571E-02    0.23       1.0  T
   8   -160.1607710 -0.198337E-03  0.437E-02    0.22       1.0  T
   9   -160.1609292 -0.158279E-03  0.277E-02    0.21       1.0  T
  10   -160.1610240 -0.947683E-04  0.855E-03    0.19       1.2  T
  11   -160.1610308 -0.684938E-05  0.195E-03    0.19       5.4  T
  12   -160.1610309 -0.248872E-07  0.137E-03    0.19       7.7  T
  13   -160.1610312 -0.318810E-06  0.317E-04    0.19      33.3  T
     SCC iter.                  ...        0 min,  0.103 sec
     gradient                   ...        0 min,  0.013 sec
 * total energy  :  -157.7027786 Eh     change       -0.2329607E-02 Eh
   gradient norm :     0.0313262 Eh/α   predicted    -0.2661484E-02 (  14.25%)
   displ. norm   :     0.4132957 α      lambda       -0.3226901E-02
   maximum displ.:     0.1501510 α      in ANC's #4, #14, #8, ...

........................................................................
.............................. CYCLE    9 ..............................
........................................................................
   1   -160.1794225 -0.160179E+03  0.177E-01    0.20       0.0  T
   2   -160.1766581  0.276439E-02  0.158E-01    0.14       1.0  T
   3   -160.1759302  0.727841E-03  0.158E-01    0.34       1.0  T
   4   -160.1784590 -0.252880E-02  0.106E-01    0.27       1.0  T
   5   -160.1787918 -0.332793E-03  0.743E-02    0.25       1.0  T
   6   -160.1792375 -0.445642E-03  0.508E-02    0.22       1.0  T
   7   -160.1796221 -0.384576E-03  0.896E-03    0.19       1.2  T
   8   -160.1796013  0.207573E-04  0.122E-02    0.18       1.0  T
   9   -160.1796268 -0.254859E-04  0.305E-03    0.19       3.5  T
  10   -160.1796274 -0.608489E-06  0.171E-03    0.19       6.2  T
  11   -160.1796276 -0.171067E-06  0.102E-03    0.19      10.4  T
     SCC iter.                  ...        0 min,  0.087 sec
     gradient                   ...        0 min,  0.013 sec
 * total energy  :  -157.7044605 Eh     change       -0.1681954E-02 Eh
   gradient norm :     0.0159849 Eh/α   predicted    -0.1889056E-02 (  12.31%)
   displ. norm   :     0.6140914 α      lambda       -0.3061525E-02
   maximum displ.:     0.2117306 α      in ANC's #14, #28, #8, ...

........................................................................
.............................. CYCLE   10 ..............................
........................................................................
   1   -160.1790914 -0.160179E+03  0.344E-01    0.17       0.0  T
   2   -160.1785104  0.581054E-03  0.175E-01    0.23       1.0  T
   3   -159.9862404  0.192270E+00  0.103E+00    0.11       1.0  T
   4   -160.1784721 -0.192232E+00  0.894E-02    0.24       1.0  T
   5   -160.1784196  0.524904E-04  0.775E-02    0.24       1.0  T
   6   -160.1789327 -0.513113E-03  0.588E-02    0.21       1.0  T
   7   -160.1791420 -0.209278E-03  0.397E-02    0.20       1.0  T
   8   -160.1792780 -0.136048E-03  0.277E-02    0.20       1.0  T
   9   -160.1793566 -0.785455E-04  0.155E-02    0.19       1.0  T
  10   -160.1793861 -0.294795E-04  0.503E-03    0.18       2.1  T
  11   -160.1793889 -0.282604E-05  0.907E-04    0.18      11.6  T
  12   -160.1793889 -0.340727E-07  0.424E-04    0.18      24.9  T
     SCC iter.                  ...        0 min,  0.095 sec
     gradient                   ...        0 min,  0.013 sec
 * total energy  :  -157.7067475 Eh     change       -0.2286955E-02 Eh
   gradient norm :     0.0205150 Eh/α   predicted    -0.2108033E-02 (  -7.82%)
   displ. norm   :     0.5820655 α      lambda       -0.2355496E-02
   maximum displ.:     0.2473473 α      in ANC's #14, #4, #8, ...

........................................................................
.............................. CYCLE   11 ..............................
........................................................................
   1   -160.1823126 -0.160182E+03  0.284E-01    0.15       0.0  T
   2   -160.1812838  0.102882E-02  0.158E-01    0.23       1.0  T
   3   -159.9918193  0.189465E+00  0.102E+00    0.11       1.0  T
   4   -160.1804205 -0.188601E+00  0.120E-01    0.26       1.0  T
   5   -160.1811474 -0.726877E-03  0.104E-01    0.25       1.0  T
   6   -160.1813168 -0.169374E-03  0.886E-02    0.24       1.0  T
   7   -160.1821036 -0.786884E-03  0.606E-02    0.21       1.0  T
   8   -160.1822598 -0.156178E-03  0.493E-02    0.20       1.0  T
   9   -160.1825215 -0.261721E-03  0.281E-02    0.18       1.0  T
  10   -160.1826301 -0.108579E-03  0.836E-03    0.17       1.3  T
  11   -160.1826366 -0.649895E-05  0.242E-03    0.17       4.4  T
  12   -160.1826369 -0.313705E-06  0.156E-03    0.17       6.8  T
  13   -160.1826373 -0.418622E-06  0.445E-04    0.17      23.7  T
     SCC iter.                  ...        0 min,  0.103 sec
     gradient                   ...        0 min,  0.013 sec
 * total energy  :  -157.7081429 Eh     change       -0.1395408E-02 Eh
   gradient norm :     0.0254035 Eh/α   predicted    -0.1576770E-02 (  13.00%)
   displ. norm   :     0.5756627 α      lambda       -0.2328014E-02
   maximum displ.:     0.2312831 α      in ANC's #14, #4, #8, ...

........................................................................
.............................. CYCLE   12 ..............................
........................................................................
   1   -160.1740654 -0.160174E+03  0.201E-01    0.15       0.0  T
   2   -160.1737860  0.279424E-03  0.112E-01    0.18       1.0  T
   3   -160.0966210  0.771650E-01  0.650E-01    0.07       1.0  T
   4   -160.1730869 -0.764659E-01  0.829E-02    0.21       1.0  T
   5   -160.1736640 -0.577088E-03  0.573E-02    0.19       1.0  T
   6   -160.1739364 -0.272405E-03  0.392E-02    0.18       1.0  T
   7   -160.1740564 -0.120031E-03  0.256E-02    0.17       1.0  T
   8   -160.1741405 -0.841039E-04  0.161E-02    0.17       1.0  T
   9   -160.1741649 -0.243610E-04  0.934E-03    0.16       1.1  T
  10   -160.1741763 -0.114361E-04  0.304E-03    0.16       3.5  T
  11   -160.1741774 -0.112954E-05  0.982E-04    0.16      10.7  T
  12   -160.1741775 -0.596123E-07  0.838E-04    0.16      12.6  T
     SCC iter.                  ...        0 min,  0.096 sec
     gradient                   ...        0 min,  0.013 sec
 * total energy  :  -157.7088547 Eh     change       -0.7118358E-03 Eh
   gradient norm :     0.0321545 Eh/α   predicted    -0.1549746E-02 ( 117.71%)
   displ. norm   :     0.2921903 α      lambda       -0.2450888E-02
   maximum displ.:     0.1237734 α      in ANC's #14, #4, #8, ...

........................................................................
.............................. CYCLE   13 ..............................
........................................................................
   1   -160.1837649 -0.160184E+03  0.104E-01    0.17       0.0  T
   2   -160.1810978  0.266709E-02  0.132E-01    0.12       1.0  T
   3   -160.1822006 -0.110279E-02  0.102E-01    0.23       1.0  T
   4   -160.1835398 -0.133918E-02  0.535E-02    0.18       1.0  T
   5   -160.1836059 -0.661070E-04  0.411E-02    0.18       1.0  T
   6   -160.1838200 -0.214055E-03  0.211E-02    0.17       1.0  T
   7   -160.1838889 -0.689895E-04  0.810E-03    0.16       1.3  T
   8   -160.1838939 -0.493170E-05  0.621E-03    0.16       1.7  T
   9   -160.1839002 -0.635005E-05  0.112E-03    0.16       9.4  T
  10   -160.1839002  0.110765E-07  0.842E-04    0.16      12.5  T
  11   -160.1839003 -0.754956E-07  0.288E-04    0.16      36.6  T
     SCC iter.                  ...        0 min,  0.088 sec
     gradient                   ...        0 min,  0.013 sec
 * total energy  :  -157.7092495 Eh     change       -0.3947487E-03 Eh
   gradient norm :     0.0346483 Eh/α   predicted    -0.1330068E-02 ( 236.94%)
   displ. norm   :     0.3283341 α      lambda       -0.4219454E-02
   maximum displ.:     0.1004026 α      in ANC's #4, #14, #23, ...

........................................................................
.............................. CYCLE   14 ..............................
........................................................................
   1   -160.1836653 -0.160184E+03  0.189E-01    0.16       0.0  T
   2   -160.1836614  0.388356E-05  0.995E-02    0.15       1.0  T
   3   -160.1817274  0.193401E-02  0.119E-01    0.25       1.0  T
   4   -160.1832368 -0.150944E-02  0.539E-02    0.14       1.0  T
   5   -160.1836235 -0.386630E-03  0.340E-02    0.18       1.0  T
   6   -160.1837978 -0.174366E-03  0.115E-02    0.16       1.0  T
   7   -160.1837812  0.166351E-04  0.117E-02    0.16       1.0  T
   8   -160.1838016 -0.203615E-04  0.536E-03    0.16       2.0  T
   9   -160.1838047 -0.314525E-05  0.200E-03    0.16       5.3  T
  10   -160.1838042  0.509987E-06  0.232E-03    0.16       4.5  T
     SCC iter.                  ...        0 min,  0.080 sec
     gradient                   ...        0 min,  0.013 sec
 * total energy  :  -157.7077830 Eh     change        0.1466439E-02 Eh
   gradient norm :     0.0629311 Eh/α   predicted    -0.2337160E-02 (-259.38%)
   displ. norm   :     0.2207160 α      lambda       -0.5993881E-02
   maximum displ.:     0.0701525 α      in ANC's #29, #30, #41, ...

........................................................................
.............................. CYCLE   15 ..............................
........................................................................
   1   -160.1796899 -0.160180E+03  0.222E-01    0.15       0.0  T
   2   -160.1785967  0.109320E-02  0.132E-01    0.21       1.0  T
   3   -160.0255969  0.153000E+00  0.901E-01    0.08       1.0  T
   4   -160.1774713 -0.151874E+00  0.146E-01    0.21       1.0  T
   5   -160.1789265 -0.145516E-02  0.778E-02    0.21       1.0  T
   6   -160.1792439 -0.317442E-03  0.668E-02    0.20       1.0  T
   7   -160.1796319 -0.387966E-03  0.420E-02    0.18       1.0  T
   8   -160.1798264 -0.194572E-03  0.239E-02    0.17       1.0  T
   9   -160.1799036 -0.772173E-04  0.907E-03    0.16       1.2  T
  10   -160.1799121 -0.848687E-05  0.235E-03    0.16       4.5  T
  11   -160.1799125 -0.374881E-06  0.103E-03    0.16      10.2  T
  12   -160.1799126 -0.128968E-06  0.425E-04    0.16      24.8  T
     SCC iter.                  ...        0 min,  0.096 sec
     gradient                   ...        0 min,  0.013 sec
 * total energy  :  -157.7104707 Eh     change       -0.2687718E-02 Eh
   gradient norm :     0.0188577 Eh/α   predicted    -0.3142937E-02 (  16.94%)
   displ. norm   :     0.2509429 α      lambda       -0.1364813E-02
   maximum displ.:     0.0982369 α      in ANC's #4, #14, #8, ...

........................................................................
.............................. CYCLE   16 ..............................
........................................................................
   1   -160.1805617 -0.160181E+03  0.120E-01    0.16       0.0  T
   2   -160.1797443  0.817431E-03  0.928E-02    0.13       1.0  T
   3   -160.1766247  0.311958E-02  0.147E-01    0.27       1.0  T
   4   -160.1800711 -0.344635E-02  0.653E-02    0.20       1.0  T
   5   -160.1804107 -0.339685E-03  0.369E-02    0.18       1.0  T
   6   -160.1805838 -0.173037E-03  0.194E-02    0.17       1.0  T
   7   -160.1806072 -0.233861E-04  0.144E-02    0.15       1.0  T
   8   -160.1806367 -0.294950E-04  0.555E-03    0.16       1.9  T
   9   -160.1806422 -0.550414E-05  0.179E-03    0.16       5.9  T
  10   -160.1806425 -0.332121E-06  0.766E-04    0.16      13.8  T
  11   -160.1806424  0.628543E-07  0.757E-04    0.16      13.9  T
     SCC iter.                  ...        0 min,  0.088 sec
     gradient                   ...        0 min,  0.013 sec
 * total energy  :  -157.7106158 Eh     change       -0.1450079E-03 Eh
   gradient norm :     0.0286804 Eh/α   predicted    -0.7253785E-03 ( 400.23%)
   displ. norm   :     0.2509327 α      lambda       -0.1063369E-02
   maximum displ.:     0.1194483 α      in ANC's #14, #4, #8, ...

........................................................................
.............................. CYCLE   17 ..............................
........................................................................
   1   -160.1819573 -0.160182E+03  0.840E-02    0.16       0.0  T
   2   -160.1819402  0.170525E-04  0.456E-02    0.16       1.0  T
   3   -160.1797006  0.223965E-02  0.106E-01    0.13       1.0  T
   4   -160.1817937 -0.209311E-02  0.357E-02    0.18       1.0  T
   5   -160.1819672 -0.173515E-03  0.108E-02    0.16       1.0  T
   6   -160.1819706 -0.337572E-05  0.801E-03    0.16       1.3  T
   7   -160.1819773 -0.667127E-05  0.346E-03    0.16       3.0  T
   8   -160.1819787 -0.143323E-05  0.126E-03    0.16       8.4  T
   9   -160.1819789 -0.182520E-06  0.617E-04    0.16      17.1  T
     SCC iter.                  ...        0 min,  0.072 sec
     gradient                   ...        0 min,  0.013 sec
 * total energy  :  -157.7112618 Eh     change       -0.6460682E-03 Eh
   gradient norm :     0.0075546 Eh/α   predicted    -0.5651696E-03 ( -12.52%)
   displ. norm   :     0.4565730 α      lambda       -0.5923318E-03
   maximum displ.:     0.1990645 α      in ANC's #14, #4, #8, ...

........................................................................
.............................. CYCLE   18 ..............................
........................................................................
   1   -160.1756533 -0.160176E+03  0.160E-01    0.16       0.0  T
   2   -160.1753588  0.294467E-03  0.902E-02    0.18       1.0  T
   3   -160.1028190  0.725398E-01  0.616E-01    0.07       1.0  T
   4   -160.1753515 -0.725325E-01  0.585E-02    0.18       1.0  T
   5   -160.1753204  0.311329E-04  0.474E-02    0.19       1.0  T
   6   -160.1755144 -0.193980E-03  0.345E-02    0.18       1.0  T
   7   -160.1756737 -0.159305E-03  0.165E-02    0.17       1.0  T
   8   -160.1756991 -0.254122E-04  0.101E-02    0.16       1.0  T
   9   -160.1757090 -0.990828E-05  0.548E-03    0.16       1.9  T
  10   -160.1757132 -0.422980E-05  0.140E-03    0.16       7.5  T
  11   -160.1757133 -0.105935E-06  0.321E-04    0.16      32.9  T
  12   -160.1757133  0.222258E-09  0.231E-04    0.16      45.6  T
     SCC iter.                  ...        0 min,  0.096 sec
     gradient                   ...        0 min,  0.013 sec
 * total energy  :  -157.7113797 Eh     change       -0.1178999E-03 Eh
   gradient norm :     0.0150938 Eh/α   predicted    -0.3579085E-03 ( 203.57%)
   displ. norm   :     0.2617132 α      lambda       -0.7136287E-03
   maximum displ.:     0.1084177 α      in ANC's #20, #4, #5, ...

........................................................................
.............................. CYCLE   19 ..............................
........................................................................
   1   -160.1818339 -0.160182E+03  0.974E-02    0.17       0.0  T
   2   -160.1817006  0.133339E-03  0.599E-02    0.15       1.0  T
   3   -160.1795911  0.210943E-02  0.110E-01    0.25       1.0  T
   4   -160.1817843 -0.219318E-02  0.297E-02    0.17       1.0  T
   5   -160.1818303 -0.459764E-04  0.143E-02    0.17       1.0  T
   6   -160.1818499 -0.195727E-04  0.854E-03    0.17       1.2  T
   7   -160.1818524 -0.250187E-05  0.664E-03    0.16       1.6  T
   8   -160.1818572 -0.488527E-05  0.298E-03    0.16       3.5  T
   9   -160.1818586 -0.139960E-05  0.899E-04    0.17      11.7  T
  10   -160.1818587 -0.550095E-07  0.513E-04    0.17      20.5  T
     SCC iter.                  ...        0 min,  0.080 sec
     gradient                   ...        0 min,  0.013 sec
 * total energy  :  -157.7118466 Eh     change       -0.4669084E-03 Eh
   gradient norm :     0.0097010 Eh/α   predicted    -0.3812539E-03 ( -18.35%)
   displ. norm   :     0.3611440 α      lambda       -0.4862091E-03
   maximum displ.:     0.1539310 α      in ANC's #4, #11, #14, ...

........................................................................
.............................. CYCLE   20 ..............................
........................................................................
   1   -160.1854438 -0.160185E+03  0.106E-01    0.18       0.0  T
   2   -160.1854140  0.298613E-04  0.578E-02    0.18       1.0  T
   3   -160.1802121  0.520188E-02  0.166E-01    0.12       1.0  T
   4   -160.1853668 -0.515472E-02  0.276E-02    0.19       1.0  T
   5   -160.1854490 -0.822080E-04  0.122E-02    0.18       1.0  T
   6   -160.1854451  0.393506E-05  0.109E-02    0.18       1.0  T
   7   -160.1854642 -0.191216E-04  0.249E-03    0.18       4.2  T
   8   -160.1854646 -0.424601E-06  0.128E-03    0.18       8.2  T
   9   -160.1854648 -0.149990E-06  0.692E-04    0.18      15.2  T
     SCC iter.                  ...        0 min,  0.073 sec
     gradient                   ...        0 min,  0.013 sec
 * total energy  :  -157.7121798 Eh     change       -0.3331837E-03 Eh
   gradient norm :     0.0091170 Eh/α   predicted    -0.2748130E-03 ( -17.52%)
   displ. norm   :     0.5504853 α      lambda       -0.5566328E-03
   maximum displ.:     0.2251838 α      in ANC's #4, #11, #5, ...
 * RMSD in coord.:     0.6821961 α      energy gain  -0.5053388E-01 Eh

generating ANC from model Hessian ...
Using Lindh-Hessian (1995)
 Shifting diagonal of input Hessian by   4.991559893780327E-003
 Lowest  eigenvalues of input Hessian
   -0.000000   -0.000000   -0.000000    0.000000    0.000000    0.000000
    0.005000    0.005018    0.005040    0.005079    0.005153    0.005173
    0.005253    0.005433    0.005678    0.005796    0.005877    0.006046
 Highest eigenvalues
    2.105002    2.111644    2.124365    2.207662    2.612461    2.642976
 

........................................................................
.............................. CYCLE   21 ..............................
........................................................................
   1   -160.1834027 -0.160183E+03  0.165E-01    0.19       0.0  T
   2   -160.1828355  0.567161E-03  0.104E-01    0.23       1.0  T
   3   -160.1340807  0.487549E-01  0.509E-01    0.10       1.0  T
   4   -160.1829970 -0.489163E-01  0.732E-02    0.23       1.0  T
   5   -160.1830961 -0.990630E-04  0.517E-02    0.23       1.0  T
   6   -160.1832714 -0.175331E-03  0.365E-02    0.22       1.0  T
   7   -160.1834457 -0.174273E-03  0.219E-02    0.21       1.0  T
   8   -160.1834756 -0.299290E-04  0.155E-02    0.20       1.0  T
   9   -160.1834997 -0.241007E-04  0.889E-03    0.20       1.2  T
  10   -160.1835100 -0.102481E-04  0.128E-03    0.19       8.2  T
  11   -160.1835098  0.212865E-06  0.146E-03    0.19       7.2  T
  12   -160.1835100 -0.266199E-06  0.673E-04    0.19      15.7  T
  13   -160.1835101 -0.695442E-07  0.100E-04    0.19     105.1  T
     SCC iter.                  ...        0 min,  0.104 sec
     gradient                   ...        0 min,  0.014 sec
 * total energy  :  -157.7126174 Eh     change       -0.4376075E-03 Eh
   gradient norm :     0.0134068 Eh/α   predicted     0.0000000E+00 (-100.00%)
   displ. norm   :     0.2079814 α      lambda       -0.4971640E-03
   maximum displ.:     0.0904904 α      in ANC's #13, #4, #25, ...

........................................................................
.............................. CYCLE   22 ..............................
........................................................................
   1   -160.1847402 -0.160185E+03  0.121E-01    0.20       0.0  T
   2   -160.1845016  0.238552E-03  0.722E-02    0.23       1.0  T
   3   -160.1658087  0.186929E-01  0.311E-01    0.12       1.0  T
   4   -160.1846382 -0.188295E-01  0.374E-02    0.22       1.0  T
   5   -160.1846552 -0.170241E-04  0.285E-02    0.22       1.0  T
   6   -160.1847353 -0.800621E-04  0.191E-02    0.21       1.0  T
   7   -160.1847881 -0.528011E-04  0.654E-03    0.21       1.6  T
   8   -160.1847934 -0.528672E-05  0.222E-03    0.20       4.7  T
   9   -160.1847935 -0.164574E-06  0.121E-03    0.20       8.7  T
  10   -160.1847936 -0.791806E-07  0.513E-04    0.20      20.5  T
     SCC iter.                  ...        0 min,  0.081 sec
     gradient                   ...        0 min,  0.014 sec
 * total energy  :  -157.7129522 Eh     change       -0.3347461E-03 Eh
   gradient norm :     0.0059264 Eh/α   predicted    -0.2593366E-03 ( -22.53%)
   displ. norm   :     0.2727825 α      lambda       -0.6093351E-03
   maximum displ.:     0.0951193 α      in ANC's #4, #29, #18, ...

........................................................................
.............................. CYCLE   23 ..............................
........................................................................
   1   -160.1868543 -0.160187E+03  0.168E-01    0.20       0.0  T
   2   -160.1860733  0.781074E-03  0.110E-01    0.27       1.0  T
   3   -160.1544642  0.316091E-01  0.405E-01    0.13       1.0  T
   4   -160.1864028 -0.319387E-01  0.734E-02    0.27       1.0  T
   5   -160.1864888 -0.859758E-04  0.571E-02    0.26       1.0  T
   6   -160.1867369 -0.248128E-03  0.427E-02    0.24       1.0  T
   7   -160.1869596 -0.222701E-03  0.219E-02    0.23       1.0  T
   8   -160.1870179 -0.582729E-04  0.101E-02    0.22       1.0  T
   9   -160.1870283 -0.104059E-04  0.341E-03    0.22       3.1  T
  10   -160.1870291 -0.738620E-06  0.152E-03    0.22       6.9  T
  11   -160.1870294 -0.305634E-06  0.792E-04    0.22      13.3  T
     SCC iter.                  ...        0 min,  0.090 sec
     gradient                   ...        0 min,  0.013 sec
 * total energy  :  -157.7131325 Eh     change       -0.1803090E-03 Eh
   gradient norm :     0.0180483 Eh/α   predicted    -0.3273386E-03 (  81.54%)
   displ. norm   :     0.1963424 α      lambda       -0.4694764E-03
   maximum displ.:     0.0736684 α      in ANC's #4, #25, #7, ...

........................................................................
.............................. CYCLE   24 ..............................
........................................................................
   1   -160.1838911 -0.160184E+03  0.870E-02    0.22       0.0  T
   2   -160.1832422  0.648938E-03  0.769E-02    0.27       1.0  T
   3   -160.1818535  0.138864E-02  0.109E-01    0.19       1.0  T
   4   -160.1837725 -0.191896E-02  0.362E-02    0.25       1.0  T
   5   -160.1839432 -0.170664E-03  0.195E-02    0.24       1.0  T
   6   -160.1839903 -0.471955E-04  0.879E-03    0.23       1.2  T
   7   -160.1840015 -0.111067E-04  0.340E-03    0.23       3.1  T
   8   -160.1840016 -0.101343E-06  0.261E-03    0.23       4.0  T
   9   -160.1840027 -0.117592E-05  0.661E-04    0.23      16.0  T
     SCC iter.                  ...        0 min,  0.073 sec
     gradient                   ...        0 min,  0.013 sec
 * total energy  :  -157.7135356 Eh     change       -0.4031035E-03 Eh
   gradient norm :     0.0089596 Eh/α   predicted    -0.2437879E-03 ( -39.52%)
   displ. norm   :     0.6173228 α      lambda       -0.1020801E-02
   maximum displ.:     0.2315537 α      in ANC's #4, #7, #18, ...

........................................................................
.............................. CYCLE   25 ..............................
........................................................................
   1   -160.1748753 -0.160175E+03  0.241E-01    0.24       0.0  T
   2   -160.1708592  0.401604E-02  0.208E-01    0.40       1.0  T
   3   -160.1660352  0.482407E-02  0.244E-01    0.21       1.0  T
   4   -160.1743259 -0.829075E-02  0.101E-01    0.34       1.0  T
   5   -160.1755350 -0.120908E-02  0.575E-02    0.31       1.0  T
   6   -160.1758849 -0.349901E-03  0.296E-02    0.28       1.0  T
   7   -160.1760138 -0.128883E-03  0.901E-03    0.27       1.2  T
   8   -160.1760119  0.192453E-05  0.609E-03    0.27       1.7  T
   9   -160.1760168 -0.499238E-05  0.235E-03    0.27       4.5  T
  10   -160.1760173 -0.445324E-06  0.902E-04    0.27      11.7  T
  11   -160.1760173  0.103184E-07  0.634E-04    0.27      16.6  T
     SCC iter.                  ...        0 min,  0.089 sec
     gradient                   ...        0 min,  0.013 sec
 * total energy  :  -157.7142288 Eh     change       -0.6931725E-03 Eh
   gradient norm :     0.0204361 Eh/α   predicted    -0.7049107E-03 (   1.69%)
   displ. norm   :     0.6204488 α      lambda       -0.1108282E-02
   maximum displ.:     0.2326080 α      in ANC's #4, #7, #18, ...

........................................................................
.............................. CYCLE   26 ..............................
........................................................................
   1   -160.1706620 -0.160171E+03  0.236E-01    0.28       0.0  T
   2   -160.1667017  0.396024E-02  0.202E-01    0.41       1.0  T
   3   -160.1608973  0.580438E-02  0.254E-01    0.25       1.0  T
   4   -160.1704825 -0.958511E-02  0.850E-02    0.36       1.0  T
   5   -160.1713385 -0.856025E-03  0.447E-02    0.33       1.0  T
   6   -160.1715198 -0.181324E-03  0.240E-02    0.31       1.0  T
   7   -160.1715958 -0.759422E-04  0.801E-03    0.31       1.3  T
   8   -160.1715949  0.809120E-06  0.543E-03    0.30       1.9  T
   9   -160.1715984 -0.342758E-05  0.216E-03    0.31       4.9  T
     SCC iter.                  ...        0 min,  0.073 sec
     gradient                   ...        0 min,  0.013 sec
 * total energy  :  -157.7146520 Eh     change       -0.4231964E-03 Eh
   gradient norm :     0.0252875 Eh/α   predicted    -0.7674617E-03 (  81.35%)
   displ. norm   :     0.3623636 α      lambda       -0.1279836E-02
   maximum displ.:     0.1361733 α      in ANC's #4, #7, #18, ...

........................................................................
.............................. CYCLE   27 ..............................
........................................................................
   1   -160.1781633 -0.160178E+03  0.137E-01    0.31       0.0  T
   2   -160.1773263  0.837009E-03  0.102E-01    0.35       1.0  T
   3   -160.1723063  0.501998E-02  0.186E-01    0.27       1.0  T
   4   -160.1780893 -0.578302E-02  0.388E-02    0.34       1.0  T
   5   -160.1782765 -0.187151E-03  0.185E-02    0.33       1.0  T
   6   -160.1783018 -0.252969E-04  0.110E-02    0.32       1.0  T
   7   -160.1783184 -0.166553E-04  0.342E-03    0.32       3.1  T
   8   -160.1783182  0.188903E-06  0.262E-03    0.32       4.0  T
   9   -160.1783192 -0.935913E-06  0.983E-04    0.32      10.7  T
     SCC iter.                  ...        0 min,  0.073 sec
     gradient                   ...        0 min,  0.013 sec
 * total energy  :  -157.7156359 Eh     change       -0.9839949E-03 Eh
   gradient norm :     0.0122913 Eh/α   predicted    -0.7239464E-03 ( -26.43%)
   displ. norm   :     0.5927001 α      lambda       -0.1451761E-02
   maximum displ.:     0.2288878 α      in ANC's #4, #7, #9, ...

........................................................................
.............................. CYCLE   28 ..............................
........................................................................
   1   -160.1826591 -0.160183E+03  0.197E-01    0.32       0.0  T
   2   -160.1809665  0.169253E-02  0.145E-01    0.38       1.0  T
   3   -160.1690997  0.118668E-01  0.279E-01    0.28       1.0  T
   4   -160.1826613 -0.135616E-01  0.519E-02    0.37       1.0  T
   5   -160.1829008 -0.239492E-03  0.264E-02    0.35       1.0  T
   6   -160.1829017 -0.958238E-06  0.210E-02    0.34       1.0  T
   7   -160.1829685 -0.668362E-04  0.595E-03    0.34       1.8  T
   8   -160.1829679  0.647060E-06  0.437E-03    0.34       2.4  T
   9   -160.1829707 -0.284015E-05  0.172E-03    0.34       6.1  T
  10   -160.1829710 -0.288898E-06  0.568E-04    0.34      18.6  T
     SCC iter.                  ...        0 min,  0.081 sec
     gradient                   ...        0 min,  0.013 sec
 * total energy  :  -157.7167984 Eh     change       -0.1162438E-02 Eh
   gradient norm :     0.0080984 Eh/α   predicted    -0.9808841E-03 ( -15.62%)
   displ. norm   :     0.8305670 α      lambda       -0.1370625E-02
   maximum displ.:     0.3184638 α      in ANC's #7, #4, #9, ...

........................................................................
.............................. CYCLE   29 ..............................
........................................................................
   1   -160.1802701 -0.160180E+03  0.265E-01    0.34       0.0  T
   2   -160.1758081  0.446193E-02  0.215E-01    0.41       1.0  T
   3   -160.1609537  0.148544E-01  0.343E-01    0.32       1.0  T
   4   -160.1802132 -0.192595E-01  0.803E-02    0.39       1.0  T
   5   -160.1808666 -0.653341E-03  0.388E-02    0.37       1.0  T
   6   -160.1808673 -0.791201E-06  0.302E-02    0.36       1.0  T
   7   -160.1809829 -0.115605E-03  0.885E-03    0.36       1.2  T
   8   -160.1809832 -0.276958E-06  0.557E-03    0.35       1.9  T
   9   -160.1809870 -0.374391E-05  0.255E-03    0.35       4.1  T
  10   -160.1809875 -0.579210E-06  0.868E-04    0.35      12.1  T
  11   -160.1809876 -0.105618E-07  0.530E-04    0.35      19.9  T
     SCC iter.                  ...        0 min,  0.089 sec
     gradient                   ...        0 min,  0.013 sec
 * total energy  :  -157.7179857 Eh     change       -0.1187347E-02 Eh
   gradient norm :     0.0120832 Eh/α   predicted    -0.1158072E-02 (  -2.47%)
   displ. norm   :     0.7386866 α      lambda       -0.1537401E-02
   maximum displ.:     0.3120711 α      in ANC's #7, #4, #8, ...

........................................................................
.............................. CYCLE   30 ..............................
........................................................................
   1   -160.1916028 -0.160192E+03  0.252E-01    0.35       0.0  T
   2   -160.1899313  0.167149E-02  0.162E-01    0.39       1.0  T
   3   -160.1644773  0.254541E-01  0.392E-01    0.33       1.0  T
   4   -160.1915589 -0.270817E-01  0.592E-02    0.39       1.0  T
   5   -160.1918507 -0.291713E-03  0.249E-02    0.37       1.0  T
   6   -160.1918104  0.402166E-04  0.219E-02    0.37       1.0  T
   7   -160.1918791 -0.686767E-04  0.856E-03    0.36       1.2  T
   8   -160.1918848 -0.566438E-05  0.381E-03    0.36       2.8  T
   9   -160.1918862 -0.144215E-05  0.204E-03    0.36       5.2  T
  10   -160.1918866 -0.373696E-06  0.724E-04    0.36      14.6  T
     SCC iter.                  ...        0 min,  0.081 sec
     gradient                   ...        0 min,  0.013 sec
 * total energy  :  -157.7191354 Eh     change       -0.1149683E-02 Eh
   gradient norm :     0.0236291 Eh/α   predicted    -0.1188152E-02 (   3.35%)
   displ. norm   :     0.7969762 α      lambda       -0.1404220E-02
   maximum displ.:     0.3312479 α      in ANC's #7, #4, #8, ...

........................................................................
.............................. CYCLE   31 ..............................
........................................................................
   1   -160.1822766 -0.160182E+03  0.261E-01    0.36       0.0  T
   2   -160.1786352  0.364138E-02  0.199E-01    0.40       1.0  T
   3   -160.1565689  0.220663E-01  0.386E-01    0.35       1.0  T
   4   -160.1823718 -0.258029E-01  0.660E-02    0.39       1.0  T
   5   -160.1827043 -0.332479E-03  0.282E-02    0.37       1.0  T
   6   -160.1826663  0.379809E-04  0.220E-02    0.37       1.0  T
   7   -160.1827228 -0.565404E-04  0.107E-02    0.37       1.0  T
   8   -160.1827339 -0.110964E-04  0.400E-03    0.36       2.6  T
   9   -160.1827352 -0.125149E-05  0.230E-03    0.37       4.6  T
  10   -160.1827356 -0.471100E-06  0.780E-04    0.37      13.5  T
     SCC iter.                  ...        0 min,  0.081 sec
     gradient                   ...        0 min,  0.013 sec
 * total energy  :  -157.7203079 Eh     change       -0.1172451E-02 Eh
   gradient norm :     0.0136183 Eh/α   predicted    -0.1148076E-02 (  -2.08%)
   displ. norm   :     0.6447492 α      lambda       -0.1380016E-02
   maximum displ.:     0.2980727 α      in ANC's #7, #8, #4, ...

........................................................................
.............................. CYCLE   32 ..............................
........................................................................
   1   -160.1815226 -0.160182E+03  0.238E-01    0.37       0.0  T
   2   -160.1803682  0.115444E-02  0.149E-01    0.38       1.0  T
   3   -160.1558065  0.245617E-01  0.379E-01    0.36       1.0  T
   4   -160.1814957 -0.256892E-01  0.468E-02    0.39       1.0  T
   5   -160.1817138 -0.218119E-03  0.184E-02    0.37       1.0  T
   6   -160.1816794  0.343926E-04  0.178E-02    0.37       1.0  T
   7   -160.1817223 -0.428816E-04  0.700E-03    0.37       1.5  T
   8   -160.1817271 -0.482199E-05  0.276E-03    0.37       3.8  T
   9   -160.1817277 -0.579765E-06  0.157E-03    0.37       6.7  T
  10   -160.1817279 -0.194777E-06  0.608E-04    0.37      17.3  T
     SCC iter.                  ...        0 min,  0.081 sec
     gradient                   ...        0 min,  0.013 sec
 * total energy  :  -157.7211246 Eh     change       -0.8167043E-03 Eh
   gradient norm :     0.0309650 Eh/α   predicted    -0.9768465E-03 (  19.61%)
   displ. norm   :     0.6591868 α      lambda       -0.1131754E-02
   maximum displ.:     0.2913766 α      in ANC's #7, #4, #8, ...

........................................................................
.............................. CYCLE   33 ..............................
........................................................................
   1   -160.1774078 -0.160177E+03  0.224E-01    0.36       0.0  T
   2   -160.1758242  0.158361E-02  0.148E-01    0.38       1.0  T
   3   -160.1511970  0.246272E-01  0.381E-01    0.36       1.0  T
   4   -160.1775340 -0.263369E-01  0.403E-02    0.38       1.0  T
   5   -160.1776083 -0.743217E-04  0.166E-02    0.37       1.0  T
   6   -160.1775992  0.909710E-05  0.989E-03    0.36       1.1  T
   7   -160.1776106 -0.113490E-04  0.392E-03    0.36       2.7  T
   8   -160.1776114 -0.797173E-06  0.186E-03    0.36       5.7  T
   9   -160.1776115 -0.177580E-06  0.865E-04    0.36      12.2  T
     SCC iter.                  ...        0 min,  0.073 sec
     gradient                   ...        0 min,  0.013 sec
 * total energy  :  -157.7219448 Eh     change       -0.8201905E-03 Eh
   gradient norm :     0.0174645 Eh/α   predicted    -0.8117704E-03 (  -1.03%)
   displ. norm   :     0.4931615 α      lambda       -0.1000443E-02
   maximum displ.:     0.2493619 α      in ANC's #7, #8, #4, ...

........................................................................
.............................. CYCLE   34 ..............................
........................................................................
   1   -160.1886845 -0.160189E+03  0.180E-01    0.36       0.0  T
   2   -160.1884076  0.276920E-03  0.981E-02    0.36       1.0  T
   3   -160.1749446  0.134630E-01  0.273E-01    0.35       1.0  T
   4   -160.1887365 -0.137919E-01  0.210E-02    0.36       1.0  T
   5   -160.1887554 -0.189084E-04  0.114E-02    0.36       1.0  T
   6   -160.1887508  0.466627E-05  0.971E-03    0.36       1.1  T
   7   -160.1887631 -0.123801E-04  0.273E-03    0.36       3.9  T
   8   -160.1887640 -0.837121E-06  0.140E-03    0.36       7.5  T
   9   -160.1887641 -0.845695E-07  0.821E-04    0.36      12.8  T
     SCC iter.                  ...        0 min,  0.073 sec
     gradient                   ...        0 min,  0.013 sec
 * total energy  :  -157.7226346 Eh     change       -0.6897939E-03 Eh
   gradient norm :     0.0151710 Eh/α   predicted    -0.6218808E-03 (  -9.85%)
   displ. norm   :     0.6967812 α      lambda       -0.1046186E-02
   maximum displ.:     0.3440314 α      in ANC's #7, #8, #4, ...

........................................................................
.............................. CYCLE   35 ..............................
........................................................................
   1   -160.1896017 -0.160190E+03  0.263E-01    0.36       0.0  T
   2   -160.1891379  0.463814E-03  0.142E-01    0.36       1.0  T
   3   -160.1643296  0.248083E-01  0.372E-01    0.36       1.0  T
   4   -160.1895544 -0.252248E-01  0.381E-02    0.37       1.0  T
   5   -160.1896941 -0.139746E-03  0.227E-02    0.36       1.0  T
   6   -160.1897288 -0.346803E-04  0.143E-02    0.36       1.0  T
   7   -160.1897456 -0.168059E-04  0.582E-03    0.36       1.8  T
   8   -160.1897500 -0.443306E-05  0.245E-03    0.36       4.3  T
   9   -160.1897508 -0.736038E-06  0.114E-03    0.36       9.2  T
  10   -160.1897509 -0.967026E-07  0.525E-04    0.36      20.1  T
     SCC iter.                  ...        0 min,  0.081 sec
     gradient                   ...        0 min,  0.013 sec
 * total energy  :  -157.7234038 Eh     change       -0.7692343E-03 Eh
   gradient norm :     0.0145597 Eh/α   predicted    -0.7770587E-03 (   1.02%)
   displ. norm   :     0.6436034 α      lambda       -0.1014290E-02
   maximum displ.:     0.3314151 α      in ANC's #7, #8, #4, ...

........................................................................
.............................. CYCLE   36 ..............................
........................................................................
   1   -160.1872737 -0.160187E+03  0.252E-01    0.35       0.0  T
   2   -160.1863450  0.928748E-03  0.147E-01    0.36       1.0  T
   3   -160.1550404  0.313046E-01  0.416E-01    0.37       1.0  T
   4   -160.1873404 -0.323000E-01  0.401E-02    0.36       1.0  T
   5   -160.1874342 -0.937129E-04  0.172E-02    0.36       1.0  T
   6   -160.1874040  0.301549E-04  0.176E-02    0.35       1.0  T
   7   -160.1874409 -0.369092E-04  0.647E-03    0.35       1.6  T
   8   -160.1874470 -0.611829E-05  0.208E-03    0.35       5.1  T
   9   -160.1874471 -0.721961E-07  0.142E-03    0.35       7.4  T
  10   -160.1874474 -0.263816E-06  0.488E-04    0.35      21.6  T
     SCC iter.                  ...        0 min,  0.081 sec
     gradient                   ...        0 min,  0.013 sec
 * total energy  :  -157.7240423 Eh     change       -0.6385415E-03 Eh
   gradient norm :     0.0191627 Eh/α   predicted    -0.7172181E-03 (  12.32%)
   displ. norm   :     0.5462164 α      lambda       -0.8197997E-03
   maximum displ.:     0.2898338 α      in ANC's #7, #8, #4, ...

........................................................................
.............................. CYCLE   37 ..............................
........................................................................
   1   -160.1941807 -0.160194E+03  0.199E-01    0.35       0.0  T
   2   -160.1932108  0.969859E-03  0.122E-01    0.35       1.0  T
   3   -160.1695150  0.236958E-01  0.364E-01    0.37       1.0  T
   4   -160.1942505 -0.247355E-01  0.302E-02    0.36       1.0  T
   5   -160.1942979 -0.474181E-04  0.134E-02    0.35       1.0  T
   6   -160.1942803  0.175932E-04  0.125E-02    0.35       1.0  T
   7   -160.1942985 -0.181865E-04  0.574E-03    0.35       1.8  T
   8   -160.1943024 -0.389962E-05  0.214E-03    0.35       4.9  T
   9   -160.1943026 -0.229725E-06  0.128E-03    0.35       8.3  T
  10   -160.1943029 -0.228406E-06  0.418E-04    0.35      25.2  T
     SCC iter.                  ...        0 min,  0.080 sec
     gradient                   ...        0 min,  0.013 sec
 * total energy  :  -157.7246244 Eh     change       -0.5820652E-03 Eh
   gradient norm :     0.0104487 Eh/α   predicted    -0.5321979E-03 (  -8.57%)
   displ. norm   :     0.7071665 α      lambda       -0.8476682E-03
   maximum displ.:     0.3637849 α      in ANC's #7, #8, #4, ...

........................................................................
.............................. CYCLE   38 ..............................
........................................................................
   1   -160.1915599 -0.160192E+03  0.299E-01    0.34       0.0  T
   2   -160.1912130  0.346830E-03  0.154E-01    0.35       1.0  T
   3   -160.1643145  0.268985E-01  0.382E-01    0.36       1.0  T
   4   -160.1916723 -0.273578E-01  0.310E-02    0.35       1.0  T
   5   -160.1917114 -0.390844E-04  0.167E-02    0.34       1.0  T
   6   -160.1916947  0.166486E-04  0.138E-02    0.34       1.0  T
   7   -160.1917197 -0.249873E-04  0.535E-03    0.34       2.0  T
   8   -160.1917239 -0.418318E-05  0.213E-03    0.34       5.0  T
   9   -160.1917243 -0.451191E-06  0.915E-04    0.34      11.5  T
  10   -160.1917244 -0.237457E-07  0.571E-04    0.34      18.5  T
     SCC iter.                  ...        0 min,  0.080 sec
     gradient                   ...        0 min,  0.013 sec
 * total energy  :  -157.7251113 Eh     change       -0.4869474E-03 Eh
   gradient norm :     0.0147894 Eh/α   predicted    -0.6357915E-03 (  30.57%)
   displ. norm   :     0.5266506 α      lambda       -0.6220632E-03
   maximum displ.:     0.2736093 α      in ANC's #7, #8, #4, ...

........................................................................
.............................. CYCLE   39 ..............................
........................................................................
   1   -160.1894746 -0.160189E+03  0.210E-01    0.34       0.0  T
   2   -160.1889438  0.530831E-03  0.116E-01    0.34       1.0  T
   3   -160.1649587  0.239851E-01  0.361E-01    0.36       1.0  T
   4   -160.1895414 -0.245827E-01  0.241E-02    0.35       1.0  T
   5   -160.1895681 -0.267446E-04  0.116E-02    0.34       1.0  T
   6   -160.1895573  0.107758E-04  0.102E-02    0.34       1.0  T
   7   -160.1895672 -0.990584E-05  0.515E-03    0.34       2.0  T
   8   -160.1895716 -0.438046E-05  0.168E-03    0.34       6.3  T
   9   -160.1895718 -0.216463E-06  0.787E-04    0.34      13.4  T
  10   -160.1895719 -0.560071E-07  0.393E-04    0.34      26.8  T
     SCC iter.                  ...        0 min,  0.080 sec
     gradient                   ...        0 min,  0.013 sec
 * total energy  :  -157.7255479 Eh     change       -0.4365371E-03 Eh
   gradient norm :     0.0106257 Eh/α   predicted    -0.3973009E-03 (  -8.99%)
   displ. norm   :     0.5214573 α      lambda       -0.7689699E-03
   maximum displ.:     0.2178995 α      in ANC's #7, #8, #4, ...

........................................................................
.............................. CYCLE   40 ..............................
........................................................................
   1   -160.2037787 -0.160204E+03  0.207E-01    0.34       0.0  T
   2   -160.2038288 -0.500945E-04  0.104E-01    0.34       1.0  T
   3   -160.2036941  0.134670E-03  0.403E-02    0.34       1.0  T
   4   -160.2037991 -0.104933E-03  0.222E-02    0.34       1.0  T
   5   -160.2038283 -0.292272E-04  0.140E-02    0.34       1.0  T
   6   -160.2038087  0.195823E-04  0.168E-02    0.34       1.0  T
   7   -160.2038422 -0.335281E-04  0.845E-03    0.34       1.2  T
   8   -160.2038561 -0.138455E-04  0.117E-03    0.34       9.0  T
   9   -160.2038562 -0.786967E-07  0.666E-04    0.34      15.8  T
  10   -160.2038562  0.145079E-08  0.448E-04    0.34      23.6  T
     SCC iter.                  ...        0 min,  0.080 sec
     gradient                   ...        0 min,  0.013 sec
 * total energy  :  -157.7256886 Eh     change       -0.1406926E-03 Eh
   gradient norm :     0.0201231 Eh/α   predicted    -0.4890374E-03 ( 247.59%)
   displ. norm   :     0.4656489 α      lambda       -0.8019424E-03
   maximum displ.:     0.2289448 α      in ANC's #7, #4, #8, ...

........................................................................
.............................. CYCLE   41 ..............................
........................................................................
   1   -160.1925653 -0.160193E+03  0.179E-01    0.34       0.0  T
   2   -160.1922648  0.300428E-03  0.989E-02    0.34       1.0  T
   3   -160.1740311  0.182337E-01  0.312E-01    0.35       1.0  T
   4   -160.1926248 -0.185937E-01  0.203E-02    0.34       1.0  T
   5   -160.1926363 -0.114992E-04  0.123E-02    0.34       1.0  T
   6   -160.1926297  0.664152E-05  0.106E-02    0.34       1.0  T
   7   -160.1926440 -0.143137E-04  0.433E-03    0.34       2.4  T
   8   -160.1926470 -0.308362E-05  0.149E-03    0.34       7.1  T
   9   -160.1926473 -0.216857E-06  0.640E-04    0.34      16.5  T
     SCC iter.                  ...        0 min,  0.072 sec
     gradient                   ...        0 min,  0.013 sec
 * total energy  :  -157.7261647 Eh     change       -0.4761124E-03 Eh
   gradient norm :     0.0179563 Eh/α   predicted    -0.4879178E-03 (   2.48%)
   displ. norm   :     0.6080659 α      lambda       -0.2197203E-02
   maximum displ.:     0.2474889 α      in ANC's #4, #7, #8, ...

........................................................................
.............................. CYCLE   42 ..............................
........................................................................
   1   -160.1698316 -0.160170E+03  0.301E-01    0.34       0.0  T
   2   -160.1699600 -0.128425E-03  0.163E-01    0.34       1.0  T
   3   -160.1643325  0.562748E-02  0.180E-01    0.34       1.0  T
   4   -160.1654024 -0.106983E-02  0.164E-01    0.35       1.0  T
   5   -160.1700319 -0.462953E-02  0.337E-02    0.34       1.0  T
   6   -160.1700866 -0.547027E-04  0.233E-02    0.34       1.0  T
   7   -160.1701602 -0.736104E-04  0.839E-03    0.34       1.3  T
   8   -160.1701666 -0.635695E-05  0.384E-03    0.34       2.7  T
   9   -160.1701678 -0.122289E-05  0.171E-03    0.34       6.2  T
  10   -160.1701679 -0.150362E-06  0.118E-03    0.34       8.9  T
     SCC iter.                  ...        0 min,  0.083 sec
     gradient                   ...        0 min,  0.013 sec
 * total energy  :  -157.7229007 Eh     change        0.3264001E-02 Eh
   gradient norm :     0.0639404 Eh/α   predicted    -0.1504807E-02 (-146.10%)
   displ. norm   :     0.2246109 α      lambda       -0.5652294E-02
   maximum displ.:     0.0952843 α      in ANC's #29, #13, #10, ...
 * RMSD in coord.:     1.1167629 α      energy gain  -0.1072087E-01 Eh

generating ANC from model Hessian ...
Using Lindh-Hessian (1995)
 Shifting diagonal of input Hessian by   4.991017128145641E-003
 Lowest  eigenvalues of input Hessian
   -0.000000   -0.000000   -0.000000   -0.000000    0.000000    0.000000
    0.005000    0.005011    0.005030    0.005073    0.005132    0.005153
    0.005195    0.005285    0.005362    0.005694    0.005767    0.005834
 Highest eigenvalues
    2.093122    2.107722    2.122222    2.184633    2.617617    2.647037
 

........................................................................
.............................. CYCLE   43 ..............................
........................................................................
   1   -160.1779958 -0.160178E+03  0.170E-01    0.33       0.0  T
   2   -160.1775031  0.492687E-03  0.112E-01    0.34       1.0  T
   3   -160.1648418  0.126613E-01  0.269E-01    0.35       1.0  T
   4   -160.1765866 -0.117448E-01  0.951E-02    0.34       1.0  T
   5   -160.1781620 -0.157537E-02  0.274E-02    0.34       1.0  T
   6   -160.1782308 -0.687933E-04  0.133E-02    0.33       1.0  T
   7   -160.1782443 -0.134648E-04  0.713E-03    0.33       1.5  T
   8   -160.1782493 -0.499495E-05  0.295E-03    0.33       3.6  T
   9   -160.1782501 -0.876593E-06  0.157E-03    0.33       6.7  T
  10   -160.1782504 -0.238725E-06  0.585E-04    0.33      18.0  T
  11   -160.1782504  0.139153E-09  0.420E-04    0.33      25.1  T
     SCC iter.                  ...        0 min,  0.087 sec
     gradient                   ...        0 min,  0.014 sec
 * total energy  :  -157.7261384 Eh     change       -0.3237680E-02 Eh
   gradient norm :     0.0142722 Eh/α   predicted     0.0000000E+00 (-100.00%)
   displ. norm   :     0.1559976 α      lambda       -0.6942831E-03
   maximum displ.:     0.0619706 α      in ANC's #4, #10, #11, ...

........................................................................
.............................. CYCLE   44 ..............................
........................................................................
   1   -160.1923963 -0.160192E+03  0.636E-02    0.34       0.0  T
   2   -160.1921487  0.247652E-03  0.493E-02    0.34       1.0  T
   3   -160.1891067  0.304196E-02  0.133E-01    0.34       1.0  T
   4   -160.1923962 -0.328947E-02  0.114E-02    0.34       1.0  T
   5   -160.1924116 -0.154538E-04  0.600E-03    0.34       1.8  T
   6   -160.1924142 -0.260859E-05  0.409E-03    0.34       2.6  T
   7   -160.1924161 -0.190563E-05  0.152E-03    0.34       6.9  T
   8   -160.1924165 -0.383473E-06  0.514E-04    0.34      20.5  T
     SCC iter.                  ...        0 min,  0.065 sec
     gradient                   ...        0 min,  0.013 sec
 * total energy  :  -157.7265834 Eh     change       -0.4450803E-03 Eh
   gradient norm :     0.0056895 Eh/α   predicted    -0.3555902E-03 ( -20.11%)
   displ. norm   :     0.1598395 α      lambda       -0.2927242E-03
   maximum displ.:     0.0737450 α      in ANC's #30, #10, #4, ...

........................................................................
.............................. CYCLE   45 ..............................
........................................................................
   1   -160.1997071 -0.160200E+03  0.108E-01    0.34       0.0  T
   2   -160.1995236  0.183419E-03  0.671E-02    0.34       1.0  T
   3   -160.1902329  0.929077E-02  0.226E-01    0.36       1.0  T
   4   -160.1997185 -0.948565E-02  0.125E-02    0.34       1.0  T
   5   -160.1997288 -0.102644E-04  0.640E-03    0.34       1.6  T
   6   -160.1997314 -0.257885E-05  0.443E-03    0.34       2.4  T
   7   -160.1997337 -0.231388E-05  0.184E-03    0.34       5.7  T
   8   -160.1997343 -0.587180E-06  0.528E-04    0.34      19.9  T
     SCC iter.                  ...        0 min,  0.065 sec
     gradient                   ...        0 min,  0.013 sec
 * total energy  :  -157.7265273 Eh     change        0.5617224E-04 Eh
   gradient norm :     0.0075256 Eh/α   predicted    -0.1501025E-03 (-367.22%)
   displ. norm   :     0.1139444 α      lambda       -0.4224855E-03
   maximum displ.:     0.0470260 α      in ANC's #5, #25, #4, ...

........................................................................
.............................. CYCLE   46 ..............................
........................................................................
   1   -160.2006822 -0.160201E+03  0.796E-02    0.34       0.0  T
   2   -160.2006864 -0.422220E-05  0.435E-02    0.34       1.0  T
   3   -160.2003999  0.286508E-03  0.387E-02    0.34       1.0  T
   4   -160.2006904 -0.290464E-03  0.403E-03    0.34       2.6  T
   5   -160.2006905 -0.741623E-07  0.262E-03    0.34       4.0  T
   6   -160.2006912 -0.722431E-06  0.110E-03    0.34       9.6  T
     SCC iter.                  ...        0 min,  0.049 sec
     gradient                   ...        0 min,  0.013 sec
 * total energy  :  -157.7267595 Eh     change       -0.2322575E-03 Eh
   gradient norm :     0.0039318 Eh/α   predicted    -0.2139857E-03 (  -7.87%)
   displ. norm   :     0.1592682 α      lambda       -0.2280319E-03
   maximum displ.:     0.0603102 α      in ANC's #4, #25, #15, ...

........................................................................
.............................. CYCLE   47 ..............................
........................................................................
   1   -160.1965511 -0.160197E+03  0.917E-02    0.34       0.0  T
   2   -160.1965558 -0.462443E-05  0.498E-02    0.34       1.0  T
   3   -160.1961091  0.446660E-03  0.494E-02    0.34       1.0  T
   4   -160.1964949 -0.385838E-03  0.200E-02    0.34       1.0  T
   5   -160.1965622 -0.672163E-04  0.561E-03    0.34       1.9  T
   6   -160.1965655 -0.336028E-05  0.261E-03    0.34       4.0  T
   7   -160.1965661 -0.631217E-06  0.859E-04    0.34      12.3  T
   8   -160.1965662 -0.296288E-07  0.483E-04    0.34      21.8  T
     SCC iter.                  ...        0 min,  0.064 sec
     gradient                   ...        0 min,  0.014 sec
 * total energy  :  -157.7267114 Eh     change        0.4810450E-04 Eh
   gradient norm :     0.0077319 Eh/α   predicted    -0.1169101E-03 (-343.03%)
   displ. norm   :     0.1274723 α      lambda       -0.3586618E-03
   maximum displ.:     0.0556360 α      in ANC's #10, #4, #12, ...

........................................................................
.............................. CYCLE   48 ..............................
........................................................................
   1   -160.1971857 -0.160197E+03  0.684E-02    0.34       0.0  T
   2   -160.1971709  0.147888E-04  0.384E-02    0.34       1.0  T
   3   -160.1953364  0.183451E-02  0.996E-02    0.35       1.0  T
   4   -160.1971894 -0.185305E-02  0.683E-03    0.34       1.5  T
   5   -160.1971923 -0.287242E-05  0.414E-03    0.34       2.5  T
   6   -160.1971939 -0.160296E-05  0.216E-03    0.34       4.9  T
   7   -160.1971945 -0.543642E-06  0.604E-04    0.34      17.4  T
     SCC iter.                  ...        0 min,  0.057 sec
     gradient                   ...        0 min,  0.013 sec
 * total energy  :  -157.7269421 Eh     change       -0.2307173E-03 Eh
   gradient norm :     0.0028929 Eh/α   predicted    -0.1822454E-03 ( -21.01%)
   displ. norm   :     0.2428564 α      lambda       -0.1754543E-03
   maximum displ.:     0.1099057 α      in ANC's #4, #10, #3, ...

........................................................................
.............................. CYCLE   49 ..............................
........................................................................
   1   -160.1965547 -0.160197E+03  0.829E-02    0.35       0.0  T
   2   -160.1965219  0.328171E-04  0.455E-02    0.35       1.0  T
   3   -160.1936068  0.291511E-02  0.126E-01    0.35       1.0  T
   4   -160.1965624 -0.295555E-02  0.752E-03    0.35       1.4  T
   5   -160.1965609  0.144052E-05  0.534E-03    0.35       2.0  T
   6   -160.1965618 -0.844949E-06  0.357E-03    0.35       3.0  T
   7   -160.1965636 -0.187330E-05  0.987E-04    0.35      10.7  T
   8   -160.1965638 -0.153635E-06  0.321E-04    0.35      32.8  T
   9   -160.1965638 -0.145292E-08  0.205E-04    0.35      51.5  T
     SCC iter.                  ...        0 min,  0.072 sec
     gradient                   ...        0 min,  0.014 sec
 * total energy  :  -157.7270884 Eh     change       -0.1462171E-03 Eh
   gradient norm :     0.0033846 Eh/α   predicted    -0.9290213E-04 ( -36.46%)
   displ. norm   :     0.4652381 α      lambda       -0.2652705E-03
   maximum displ.:     0.2121515 α      in ANC's #4, #10, #3, ...

........................................................................
.............................. CYCLE   50 ..............................
........................................................................
   1   -160.1951713 -0.160195E+03  0.152E-01    0.35       0.0  T
   2   -160.1951112  0.600393E-04  0.812E-02    0.35       1.0  T
   3   -160.1888689  0.624236E-02  0.184E-01    0.36       1.0  T
   4   -160.1951944 -0.632551E-02  0.133E-02    0.35       1.0  T
   5   -160.1951898  0.460078E-05  0.854E-03    0.35       1.2  T
   6   -160.1951964 -0.658110E-05  0.250E-03    0.35       4.2  T
   7   -160.1951972 -0.841769E-06  0.103E-03    0.35      10.2  T
   8   -160.1951973 -0.669012E-07  0.513E-04    0.35      20.5  T
   9   -160.1951973  0.138820E-08  0.347E-04    0.35      30.4  T
     SCC iter.                  ...        0 min,  0.072 sec
     gradient                   ...        0 min,  0.014 sec
 * total energy  :  -157.7273081 Eh     change       -0.2197745E-03 Eh
   gradient norm :     0.0044105 Eh/α   predicted    -0.1613455E-03 ( -26.59%)
   displ. norm   :     0.5166413 α      lambda       -0.2530177E-03
   maximum displ.:     0.2421920 α      in ANC's #4, #3, #10, ...

........................................................................
.............................. CYCLE   51 ..............................
........................................................................
   1   -160.1941324 -0.160194E+03  0.161E-01    0.36       0.0  T
   2   -160.1941171  0.153494E-04  0.845E-02    0.35       1.0  T
   3   -160.1910560  0.306111E-02  0.129E-01    0.36       1.0  T
   4   -160.1941536 -0.309767E-02  0.138E-02    0.35       1.0  T
   5   -160.1941387  0.149268E-04  0.113E-02    0.35       1.0  T
   6   -160.1941537 -0.150344E-04  0.546E-03    0.35       1.9  T
   7   -160.1941584 -0.466859E-05  0.105E-03    0.35      10.0  T
   8   -160.1941585 -0.985868E-07  0.504E-04    0.35      20.9  T
   9   -160.1941585 -0.114952E-08  0.332E-04    0.35      31.7  T
     SCC iter.                  ...        0 min,  0.073 sec
     gradient                   ...        0 min,  0.013 sec
 * total energy  :  -157.7275233 Eh     change       -0.2152059E-03 Eh
   gradient norm :     0.0048091 Eh/α   predicted    -0.1602796E-03 ( -25.52%)
   displ. norm   :     0.5225719 α      lambda       -0.2554359E-03
   maximum displ.:     0.2537061 α      in ANC's #4, #3, #10, ...

........................................................................
.............................. CYCLE   52 ..............................
........................................................................
[...]
       151                         -0.2611451              -7.1061
       152                         -0.2448637              -6.6631
       153                         -0.2386134              -6.4930
       154                         -0.2357499              -6.4151
       155                         -0.2341000              -6.3702
       156                         -0.2338540              -6.3635
       ...                                ...                  ...
       295                          1.1700895              31.8398
      -------------------------------------------------------------
                  HL-Gap            0.0120993 Eh            0.3292 eV
             Fermi-level           -0.3457992 Eh           -9.4097 eV

     #   Z        covCN         q      C6AA      α(0)
     1   6 C      3.089     0.060    26.556     8.447
     2   8 O      1.731    -0.167    16.816     5.537
     3   6 C      3.080     0.068    26.386     8.421
     4   6 C      3.021    -0.066    29.623     8.928
     5   6 C      3.073     0.025    27.381     8.579
     6  16 S      2.073    -0.142   147.023    20.408
     7   6 C      2.969     0.052    26.839     8.498
     8   6 C      2.971    -0.042    29.048     8.841
     9   6 C      3.062     0.004    27.862     8.656
    10   6 C      3.035    -0.003    28.059     8.688
    11   6 C      2.915    -0.033    28.826     8.804
    12   6 C      2.949    -0.041    29.020     8.835
    13   6 C      3.040     0.006    27.856     8.657
    14   6 C      3.047     0.006    27.853     8.656
    15   6 C      3.936     0.010    20.350     6.411
    16   6 C      3.804    -0.052    21.503     6.602
    17   6 C      3.752    -0.100    22.471     6.760
    18   6 C      3.808    -0.049    21.453     6.593
    19   6 C      3.751    -0.104    22.548     6.772
    20   6 C      2.925    -0.037    28.928     8.820
    21   6 C      2.970     0.012    27.734     8.638
    22   6 C      2.922    -0.033    28.832     8.806
    23   6 C      2.910    -0.034    28.839     8.806
    24   6 C      2.906    -0.032    28.798     8.799
    25   6 C      2.892    -0.032    28.793     8.798
    26   6 C      2.920    -0.038    28.955     8.824
    27   6 C      2.973     0.036    27.194     8.554
    28   6 C      3.083    -0.039    28.874     8.809
    29   6 C      3.067    -0.039    28.901     8.815
    30   6 C      3.022     0.028    27.347     8.578
    31  16 S      2.321    -0.043   142.840    20.115
    32   6 C      3.022     0.027    27.371     8.582
    33   6 C      3.077    -0.037    28.834     8.804
    34   6 C      3.076    -0.030    28.662     8.777
    35   6 C      2.977     0.047    26.932     8.513
    36  16 S      2.365    -0.033   142.431    20.087
    37   6 C      2.965    -0.033    28.819     8.806
    38   6 C      2.962    -0.011    28.282     8.723
    39   6 C      2.953     0.079    26.242     8.402
    40   6 C      2.944     0.070    26.444     8.434
    41   7 N      1.864    -0.224    26.745     7.666
    42   6 C      2.931     0.096    25.868     8.341
    43   6 C      2.941     0.089    26.024     8.367
    44   7 N      1.859    -0.216    26.556     7.638
    45   6 C      1.909     0.109    28.410     8.608
    46   7 N      0.911    -0.208    25.537     7.309
    47   6 C      1.909     0.107    28.463     8.616
    48   7 N      0.911    -0.192    25.164     7.255
    49   6 C      2.958    -0.028    28.704     8.788
    50   6 C      3.340     0.075    23.916     7.734
    51   6 C      3.352     0.068    23.800     7.681
    52   7 N      1.854    -0.271    27.890     7.827
    53  16 S      2.665     0.332   128.254    19.061
    54   7 N      1.856    -0.258    27.562     7.781
    55   6 C      3.081     0.104    25.622     8.298
    56   8 O      1.731    -0.167    16.812     5.536
    57   6 C      3.042     0.080    26.188     8.393
    58   6 C      3.020    -0.069    29.699     8.939
    59   6 C      3.068     0.032    27.210     8.553
    60  16 S      1.942    -0.233   151.046    20.685
    61   1 H      0.926     0.060     2.200     2.320
    62   1 H      0.926     0.057     2.238     2.339
    63   1 H      0.927     0.048     2.347     2.396
    64   1 H      0.926     0.044     2.399     2.422
    65   1 H      0.926     0.037     2.484     2.465
    66   1 H      0.926     0.037     2.490     2.467
    67   1 H      0.924     0.038     2.482     2.464
    68   1 H      0.924     0.041     2.439     2.442
    69   1 H      0.925     0.034     2.536     2.491
    70   1 H      0.925     0.037     2.483     2.464
    71   1 H      0.925     0.034     2.535     2.490
    72   1 H      0.924     0.039     2.468     2.457
    73   1 H      0.924     0.032     2.552     2.498
    74   1 H      0.925     0.039     2.462     2.454
    75   1 H      0.925     0.039     2.462     2.454
    76   1 H      0.925     0.041     2.441     2.443
    77   1 H      0.926     0.042     2.425     2.435
    78   1 H      0.926     0.036     2.498     2.471
    79   1 H      0.926     0.035     2.523     2.484
    80   1 H      0.926     0.059     2.213     2.326
    81   1 H      0.925     0.042     2.424     2.435
    82   1 H      0.925     0.049     2.337     2.391
    83   1 H      0.926     0.047     2.361     2.403
    84   1 H      0.926     0.048     2.349     2.397
    85   1 H      0.926     0.050     2.322     2.383
    86   1 H      0.926     0.059     2.213     2.326
    87   1 H      0.925     0.072     2.064     2.247
    88   1 H      0.926     0.061     2.188     2.313
    89   1 H      0.927     0.056     2.244     2.343
    90   1 H      0.930     0.210     1.050     1.602

 Mol. C6AA /au·bohr⁶  :     150793.025208
 Mol. C8AA /au·bohr⁸  :    4283549.699418
 Mol. α(0) /au        :        623.279905


Wiberg/Mayer (AO) data.
largest (>0.10) Wiberg bond orders for each atom
          total WBO             WBO to atom ...
     1  C   3.902        C    5 1.555    O    2 1.140    H   61 0.966    C    3 0.143
     2  O   2.460        C    1 1.140    C    3 1.137
     3  C   3.908        C    4 1.617    O    2 1.137    H   62 0.965    C    1 0.143
     4  C   3.980        C    3 1.617    C    5 1.252    H   63 0.974
     5  C   3.954        C    1 1.555    C    4 1.252    S    6 1.026
     6  S   2.300        C    7 1.030    C    5 1.026
     7  C   3.933        C   12 1.386    C    8 1.367    S    6 1.030
     8  C   3.988        C    9 1.462    C    7 1.367    H   64 0.965
     9  C   3.972        C    8 1.462    C   10 1.306    C   15 0.986
    10  C   3.980        C   11 1.375    C    9 1.306    C   13 1.107
    11  C   3.969        C   12 1.456    C   10 1.375    H   65 0.967
    12  C   3.985        C   11 1.456    C    7 1.386    H   66 0.966
    13  C   3.942        C   23 1.361    C   14 1.294    C   10 1.107
    14  C   3.979        C   20 1.491    C   13 1.294    C   15 0.990
    15  C   3.987        C   14 0.990    C    9 0.986    C   16 0.969    C   18 0.950
    16  C   3.995        C   17 1.019    H   67 0.975    H   68 0.972    C   15 0.969
    17  C   3.997        C   16 1.019    H   70 0.987    H   71 0.987    H   69 0.986
    18  C   3.993        C   19 1.019    H   73 0.978    H   72 0.974    C   15 0.950
    19  C   3.994        C   18 1.019    H   74 0.985    H   75 0.984    H   76 0.984
    20  C   3.951        C   14 1.491    C   21 1.306    H   77 0.963
    21  C   3.962        C   22 1.324    C   20 1.306    C   24 1.186
    22  C   3.946        C   23 1.490    C   21 1.324    H   78 0.965
    23  C   3.975        C   22 1.490    C   13 1.361    H   79 0.968
    24  C   3.845        C   25 1.568    C   21 1.186    H   80 0.944
    25  C   3.974        C   24 1.568    C   26 1.299    H   81 0.960
    26  C   3.854        C   27 1.443    C   25 1.299    H   82 0.959
    27  C   3.922        C   26 1.443    C   28 1.250    S   31 1.082
    28  C   3.912        C   29 1.554    C   27 1.250    H   83 0.963
    29  C   3.949        C   28 1.554    C   30 1.275    H   84 0.961
    30  C   3.892        C   32 1.337    C   29 1.275    S   31 1.108
    31  S   2.504        C   30 1.108    C   27 1.082
    32  C   3.917        C   30 1.337    C   33 1.283    S   36 1.115
    33  C   3.953        C   34 1.534    C   32 1.283    H   85 0.962
    34  C   3.935        C   33 1.534    C   35 1.279    H   86 0.954
    35  C   3.907        C   37 1.398    C   34 1.279    S   36 1.092
    36  S   2.490        C   32 1.115    C   35 1.092
    37  C   3.919        C   35 1.398    C   38 1.331    H   87 0.953
    38  C   3.933        C   37 1.331    C   39 1.200    C   51 1.173
    39  C   3.959        N   44 1.381    C   38 1.200    C   40 1.128
    40  C   3.964        C   49 1.290    N   41 1.287    C   39 1.128
    41  N   3.174        C   42 1.441    C   40 1.287    H   90 0.116
    42  C   3.963        N   41 1.441    C   43 1.182    C   47 1.082
    43  C   3.930        N   44 1.411    C   42 1.182    C   45 1.090
    44  N   3.079        C   43 1.411    C   39 1.381
    45  C   3.941        N   46 2.798    C   43 1.090
    46  N   2.973        C   45 2.798
    47  C   3.947        N   48 2.809    C   42 1.082
    48  N   2.996        C   47 2.809
    49  C   3.873        C   40 1.290    C   50 1.196    C   55 1.158
    50  C   3.969        N   54 1.397    C   49 1.196    C   51 1.163
    51  C   3.954        N   52 1.414    C   38 1.173    C   50 1.163
    52  N   3.066        C   51 1.414    S   53 1.402    N   54 0.150
    53  S   3.108        N   54 1.417    N   52 1.402
    54  N   3.055        S   53 1.417    C   50 1.397    N   52 0.150
    55  C   3.881        C   59 1.379    C   49 1.158    O   56 1.087    C   57 0.103
    56  O   2.451        C   57 1.151    C   55 1.087
    57  C   3.865        C   58 1.583    O   56 1.151    H   88 0.963    C   55 0.103
    58  C   3.978        C   57 1.583    C   59 1.280    H   89 0.972
    59  C   3.900        C   55 1.379    C   58 1.280    S   60 1.108
    60  S   2.192        C   59 1.108    H   90 0.824
    61  H   0.996        C    1 0.966
    62  H   0.997        C    3 0.965
    63  H   0.998        C    4 0.974
    64  H   0.998        C    8 0.965
    65  H   0.998        C   11 0.967
    66  H   0.998        C   12 0.966
    67  H   0.998        C   16 0.975
    68  H   0.998        C   16 0.972
    69  H   0.999        C   17 0.986
    70  H   0.998        C   17 0.987
    71  H   0.999        C   17 0.987
    72  H   0.998        C   18 0.974
    73  H   0.999        C   18 0.978
    74  H   0.998        C   19 0.985
    75  H   0.998        C   19 0.984
    76  H   0.998        C   19 0.984
    77  H   0.998        C   20 0.963
    78  H   0.998        C   22 0.965
    79  H   0.998        C   23 0.968
    80  H   0.996        C   24 0.944
    81  H   0.997        C   25 0.960
    82  H   0.997        C   26 0.959
    83  H   0.997        C   28 0.963
    84  H   0.997        C   29 0.961
    85  H   0.997        C   33 0.962
    86  H   0.996        C   34 0.954
    87  H   0.993        C   37 0.953
    88  H   0.995        C   57 0.963
    89  H   0.996        C   58 0.972
    90  H   0.955        S   60 0.824    N   41 0.116

molecular dipole:
                 x           y           z       tot (Debye)
 q only:        4.182      -2.776      -1.197
   full:        4.381      -2.699      -1.056      13.350
molecular quadrupole (traceless):
                xx          xy          yy          xz          yz          zz
 q only:       10.868     210.148    -117.754      13.740     -62.958     106.886
  q+dip:       12.391     224.727    -120.702      -3.555     -55.652     108.311
   full:       13.934     229.361    -124.894       5.347     -52.116     110.959

           -------------------------------------------------
          |                Geometry Summary                 |
           -------------------------------------------------

      molecular mass/u    :      871.0930000
   center of mass at/Å    :       -2.9235344      10.7893430       1.3965224
  moments of inertia/u·Å² :        0.8617764E+04   0.5088121E+05   0.5794592E+05
rotational constants/cm⁻¹ :        0.1956149E-02   0.3313135E-03   0.2909201E-03

 * 90 selected distances

     #   Z        #   Z                                     value/Å
     1   6 C      2   8 O                                 1.3415733
     2   8 O      3   6 C                                 1.3432215
     3   6 C      4   6 C                                 1.3581035
     1   6 C      5   6 C                                 1.3654977
     4   6 C      5   6 C                                 1.4227238
     7   6 C      8   6 C                                 1.3946202
     8   6 C      9   6 C                                 1.3743637
     9   6 C     10   6 C                                 1.4054827
    10   6 C     11   6 C                                 1.3874611
     7   6 C     12   6 C                                 1.3907222
    11   6 C     12   6 C                                 1.3821916
    13   6 C     14   6 C                                 1.4084909
    15   6 C     16   6 C                                 1.5352087
    16   6 C     17   6 C                                 1.5244139
    18   6 C     19   6 C                                 1.5227490
    14   6 C     20   6 C                                 1.3710778
    20   6 C     21   6 C                                 1.4096735
    21   6 C     22   6 C                                 1.4053723
    13   6 C     23   6 C                                 1.3894314
    22   6 C     23   6 C                                 1.3776276
    21   6 C     24   6 C                                 1.4321501
    24   6 C     25   6 C                                 1.3626562
    25   6 C     26   6 C                                 1.4076378
    26   6 C     27   6 C                                 1.3775832
    27   6 C     28   6 C                                 1.4163099
    28   6 C     29   6 C                                 1.3641891
    29   6 C     30   6 C                                 1.4082787
    27   6 C     31  16 S                                 1.7557566
    30   6 C     31  16 S                                 1.7440448
    30   6 C     32   6 C                                 1.3886803
    32   6 C     33   6 C                                 1.4068581
    33   6 C     34   6 C                                 1.3668293
    34   6 C     35   6 C                                 1.4080235
    32   6 C     36  16 S                                 1.7443615
    35   6 C     36  16 S                                 1.7561255 (max)
    35   6 C     37   6 C                                 1.3840206
    37   6 C     38   6 C                                 1.4009953
    38   6 C     39   6 C                                 1.4253808
    40   6 C     41   7 N                                 1.3481399
    41   7 N     42   6 C                                 1.3161784
    42   6 C     43   6 C                                 1.4231989
    39   6 C     44   7 N                                 1.3270407
    43   6 C     44   7 N                                 1.3188017
    45   6 C     46   7 N                                 1.1468067
    47   6 C     48   7 N                                 1.1456557
    40   6 C     49   6 C                                 1.4084181
    49   6 C     50   6 C                                 1.4219928
    38   6 C     51   6 C                                 1.4232775
    50   6 C     51   6 C                                 1.4394740
    51   6 C     52   7 N                                 1.3282778
    52   7 N     53  16 S                                 1.6125359
    50   6 C     54   7 N                                 1.3307917
    53  16 S     54   7 N                                 1.6062729
    49   6 C     55   6 C                                 1.4376213
    55   6 C     56   8 O                                 1.3597072
    56   8 O     57   6 C                                 1.3343436
    57   6 C     58   6 C                                 1.3583436
    55   6 C     59   6 C                                 1.3968625
    58   6 C     59   6 C                                 1.4168891
    59   6 C     60  16 S                                 1.7359389
     1   6 C     61   1 H                                 1.0709418
     3   6 C     62   1 H                                 1.0717716
     4   6 C     63   1 H                                 1.0702289
     8   6 C     64   1 H                                 1.0793625
    11   6 C     65   1 H                                 1.0795625
    12   6 C     66   1 H                                 1.0795560
    16   6 C     67   1 H                                 1.0918677
    16   6 C     68   1 H                                 1.0905329
    17   6 C     69   1 H                                 1.0877673
    17   6 C     70   1 H                                 1.0875108
    17   6 C     71   1 H                                 1.0880108
    18   6 C     72   1 H                                 1.0922622
    18   6 C     73   1 H                                 1.0933436
    19   6 C     74   1 H                                 1.0866069
    19   6 C     75   1 H                                 1.0879168
    19   6 C     76   1 H                                 1.0865556
    20   6 C     77   1 H                                 1.0798867
    22   6 C     78   1 H                                 1.0788429
    23   6 C     79   1 H                                 1.0799076
    24   6 C     80   1 H                                 1.0808634
    25   6 C     81   1 H                                 1.0814822
    26   6 C     82   1 H                                 1.0837337
    28   6 C     83   1 H                                 1.0758808
    29   6 C     84   1 H                                 1.0747495
    33   6 C     85   1 H                                 1.0749490
    34   6 C     86   1 H                                 1.0724484
    37   6 C     87   1 H                                 1.0839994
    57   6 C     88   1 H                                 1.0721951
    58   6 C     89   1 H                                 1.0698898 (min)
    60  16 S     90   1 H                                 1.3564871

 * 7 distinct bonds (by element types)

   Z      Z             #   av. dist./Å        max./Å        min./Å
   1 H    6 C          29     1.0811251     1.0933436     1.0698898
   6 C    6 C          41     1.4073386     1.5352087     1.3581035
   6 C    7 N           8     1.2827116     1.3481399     1.1456557
   6 C    8 O           4     1.3447114     1.3597072     1.3343436
   1 H   16 S           1     1.3564871     1.3564871     1.3564871
   6 C   16 S           5     1.7472454     1.7561255     1.7359389
   7 N   16 S           2     1.6094044     1.6125359     1.6062729


optimized geometry written to: xtbopt.xyz


           -------------------------------------------------
          | TOTAL ENERGY             -157.735533862463 Eh   |
          | GRADIENT NORM               0.000953549570 Eh/α |
          | HOMO-LUMO GAP               0.329238508994 eV   |
           -------------------------------------------------

------------------------------------------------------------------------
 * finished run on 2021/06/14 at 22:48:58.913     
------------------------------------------------------------------------
 total:
 * wall-time:     0 d,  0 h,  0 min, 14.552 sec
 *  cpu-time:     0 d,  0 h,  2 min, 54.449 sec
 * ratio c/w:    11.988 speedup
 SCF:
 * wall-time:     0 d,  0 h,  0 min,  0.201 sec
 *  cpu-time:     0 d,  0 h,  0 min,  2.400 sec
 * ratio c/w:    11.936 speedup
 ANC optimizer:
 * wall-time:     0 d,  0 h,  0 min, 14.295 sec
 *  cpu-time:     0 d,  0 h,  2 min, 51.534 sec
 * ratio c/w:    12.000 speedup

