
                                 *****************
                                 * O   R   C   A *
                                 *****************

           --- An Ab Initio, DFT and Semiempirical electronic structure package ---

                  #######################################################
                  #                        -***-                        #
                  #          Department of theory and spectroscopy      #
                  #               Directorship: Frank Neese             #
                  #        Max Planck Institute fuer Kohlenforschung    #
                  #                Kaiser Wilhelm Platz 1               #
                  #                 D-45470 Muelheim/Ruhr               #
                  #                      Germany                        #
                  #                                                     #
                  #                  All rights reserved                #
                  #                        -***-                        #
                  #######################################################


                         Program Version 4.2.0 -  RELEASE  -


 With contributions from (in alphabetic order):
   Daniel Aravena         : Magnetic Suceptibility
   Michael Atanasov       : Ab Initio Ligand Field Theory (pilot matlab implementation)
   Alexander A. Auer      : GIAO ZORA, VPT2
   Ute Becker             : Parallelization
   Giovanni Bistoni       : ED, misc. LED, open-shell LED, HFLED
   Martin Brehm           : Molecular dynamics
   Dmytro Bykov           : SCF Hessian
   Vijay G. Chilkuri      : MRCI spin determinant printing, contributions to CSF-ICE
   Dipayan Datta          : RHF DLPNO-CCSD density
   Achintya Kumar Dutta   : EOM-CC, STEOM-CC
   Dmitry Ganyushin       : Spin-Orbit,Spin-Spin,Magnetic field MRCI
   Miquel Garcia          : C-PCM Hessian, Gaussian charge scheme
   Yang Guo               : DLPNO-NEVPT2, CIM, IAO-localization
   Andreas Hansen         : Spin unrestricted coupled pair/coupled cluster methods
   Benjamin Helmich-Paris : CASSCF linear response (MC-RPA)
   Lee Huntington         : MR-EOM, pCC
   Robert Izsak           : Overlap fitted RIJCOSX, COSX-SCS-MP3, EOM
   Christian Kollmar      : KDIIS, OOCD, Brueckner-CCSD(T), CCSD density
   Simone Kossmann        : Meta GGA functionals, TD-DFT gradient, OOMP2, MP2 Hessian
   Martin Krupicka        : AUTO-CI
   Lucas Lang             : DCDCAS
   Dagmar Lenk            : GEPOL surface, SMD
   Dimitrios Liakos       : Extrapolation schemes; Compound Job, initial MDCI parallelization
   Dimitrios Manganas     : Further ROCIS development; embedding schemes
   Dimitrios Pantazis     : SARC Basis sets
   Taras Petrenko         : DFT Hessian,TD-DFT gradient, ASA, ECA, R-Raman, ABS, FL, XAS/XES, NRVS
   Peter Pinski           : DLPNO-MP2, DLPNO-MP2 Gradient
   Christoph Reimann      : Effective Core Potentials
   Marius Retegan         : Local ZFS, SOC
   Christoph Riplinger    : Optimizer, TS searches, QM/MM, DLPNO-CCSD(T), (RO)-DLPNO pert. Triples
   Tobias Risthaus        : Range-separated hybrids, TD-DFT gradient, RPA, STAB
   Michael Roemelt        : Original ROCIS implementation
   Masaaki Saitow         : Open-shell DLPNO-CCSD energy and density
   Barbara Sandhoefer     : DKH picture change effects
   Avijit Sen             : IP-ROCIS
   Kantharuban Sivalingam : CASSCF convergence, NEVPT2, FIC-MRCI
   Bernardo de Souza      : ESD, SOC TD-DFT
   Georgi Stoychev        : AutoAux, RI-MP2 NMR
   Willem Van den Heuvel  : Paramagnetic NMR
   Boris Wezisla          : Elementary symmetry handling
   Frank Wennmohs         : Technical directorship


 We gratefully acknowledge several colleagues who have allowed us to
 interface, adapt or use parts of their codes:
   Stefan Grimme, W. Hujo, H. Kruse,             : VdW corrections, initial TS optimization,
                  C. Bannwarth                     DFT functionals, gCP, sTDA/sTD-DF
   Ed Valeev, F. Pavosevic, A. Kumar             : LibInt (2-el integral package), F12 methods
   Garnet Chan, S. Sharma, J. Yang, R. Olivares  : DMRG
   Ulf Ekstrom                                   : XCFun DFT Library
   Mihaly Kallay                                 : mrcc  (arbitrary order and MRCC methods)
   Andreas Klamt, Michael Diedenhofen            : otool_cosmo (COSMO solvation model)
   Jiri Pittner, Ondrej Demel                    : Mk-CCSD
   Frank Weinhold                                : gennbo (NPA and NBO analysis)
   Christopher J. Cramer and Donald G. Truhlar   : smd solvation model
   Lars Goerigk                                  : TD-DFT with DH, B97 family of functionals
   V. Asgeirsson, H. Jonsson                     : NEB implementation
   FAccTs GmbH                                   : IRC, NEB, NEB-TS, Multilevel, MM, QM/MM, CI optimization
   S Lehtola, MJT Oliveira, MAL Marques          : LibXC Library


 Your calculation uses the libint2 library for the computation of 2-el integrals
 For citations please refer to: http://libint.valeyev.net

 Your ORCA version has been built with support for libXC version: 4.2.3
 For citations please refer to: https://tddft.org/programs/libxc/

 This ORCA versions uses:
   CBLAS   interface :  Fast vector & matrix operations
   LAPACKE interface :  Fast linear algebra routines
   SCALAPACK package :  Parallel linear algebra routines


XCFun DFT library Copyright 2009-2010 Ulf Ekstrom and contributors.
See http://admol.org/xcfun for more information. This is free soft-
ware; see the source code for copying conditions. There is ABSOLUTELY
NO WARRANTY; not even for MERCHANTABILITY or FITNESS FOR A PARTICULAR
PURPOSE. For details see the documentation. Scientific users of this 
library should cite U. Ekstrom, L. Visscher, R. Bast, A. J. Thorvald-
sen and K. Ruud; J.Chem.Theor.Comp. 2010, DOI: 10.1021/ct100117s
XCFun Version 0.99 
----- Orbital basis set information -----
Your calculation utilizes the basis: def2-SVP
   F. Weigend and R. Ahlrichs, Phys. Chem. Chem. Phys. 7, 3297 (2005).

----- AuxJ basis set information -----
Your calculation utilizes the auxiliary basis: def2/J
   F. Weigend, Phys. Chem. Chem. Phys. 8, 1057 (2006).

================================================================================
                                        WARNINGS
                       Please study these warnings very carefully!
================================================================================

INFO   : Checking CIS options ...

WARNING: CIS/ROCIS methods need fully converged wavefunctions
  ===> : Setting SCFConvForced true
         You can overwrite this default with %scf ConvForced false 


INFO   : the flag for use of LIBINT has been found!

================================================================================
                                       INPUT FILE
================================================================================
NAME = xtbopt.inp
|  1> # ORCA input file
|  2> # SCF done       -208.857838655867          0.000999387151
|  3> ! CAM-B3LYP def2-SVP def2/J RIJCOSX Grid4 TightSCF
|  4> %maxcore 5000
|  5> %tddft
|  6>     Mode sTDDFT
|  7>     Ethresh 5.0
|  8>     maxcore 5000
|  9> end
| 10> 
| 11> %pal
| 12>   nprocs 6
| 13>   end
| 14> * xyz 0 1
| 15>    C        1.76383        -7.09969        11.30511
| 16>    C        2.77548        -6.55014        12.07725
| 17>    C        3.14532        -7.20373        13.25382
| 18>    C        4.17688        -6.65649        14.05683
| 19>    N        5.01187        -6.20866        14.69935
| 20>    C        2.51389        -8.39548        13.65957
| 21>    C        2.91004        -9.03309        14.85967
| 22>    N        3.21516        -9.56298        15.82791
| 23>    C        1.49849        -8.94674        12.87780
| 24>    C        1.14356        -8.29046        11.71846
| 25>    C        0.10507        -8.68617        10.73886
| 26>    O       -0.58223        -9.67881        10.83696
| 27>    C        0.13120        -7.64766         9.68397
| 28>    C        1.14975        -6.66680        10.04996
| 29>    C        1.48945        -5.51690         9.38674
| 30>    C        2.49107        -4.61844         9.81922
| 31>    N        3.28607        -3.84266        10.10652
| 32>    C        0.92140        -5.01706         8.19353
| 33>    N        0.53486        -4.51154         7.23650
| 34>    C       -0.59839        -7.53240         8.53185
| 35>    C       -1.66470        -8.26059         7.92212
| 36>    C       -2.13500        -7.72740         6.70477
| 37>    C       -3.18825        -8.34288         6.06557
| 38>    C       -3.79301        -9.51127         6.61042
| 39>    C       -3.31525       -10.04192         7.80712
| 40>    C       -2.27101        -9.42325         8.44943
| 41>    C       -4.83741        -9.87846         5.71554
| 42>    C       -4.82262        -8.91970         4.66539
| 43>    N       -3.83020        -8.00154         4.89939
| 44>    C       -3.50213        -6.88875         4.05322
| 45>    C       -5.72767        -8.99106         3.62360
| 46>    C       -6.67449       -10.02023         3.62997
| 47>    C       -6.68472       -10.97219         4.67421
| 48>    C       -5.77829       -10.90704         5.70267
| 49>    C       -7.64803       -10.10184         2.57762
| 50>    C       -8.72008       -10.98338         2.42678
| 51>    C       -9.51152       -10.73004         1.24252
| 52>    N      -10.58266       -11.48375         0.96667
| 53>    C      -10.88132       -12.45229         1.79816
| 54>    C      -12.07740       -13.27048         1.47942
| 55>    O      -12.77966       -13.05706         0.51381
| 56>    C      -12.35705       -14.35932         2.43296
| 57>    C      -11.61519       -14.60544         3.51754
| 58>    C      -10.42737       -13.81766         3.89328
| 59>    O       -9.77511       -14.06057         4.88662
| 60>    C      -10.09224       -12.70967         2.96454
| 61>    N       -9.04235       -11.98195         3.25866
| 62>    C       -9.03927        -9.66244         0.47587
| 63>    S       -7.63747        -8.99510         1.24382
| 64>    C       -9.55424        -9.12335        -0.75142
| 65>    C       -8.86696        -8.09392        -1.40268
| 66>    C       -9.38621        -7.59423        -2.58172
| 67>    C      -10.60288        -8.10012        -3.11580
| 68>    C      -11.27714        -9.12662        -2.45807
| 69>    C      -10.75526        -9.63205        -1.29341
| 70>    C      -10.85632        -7.36367        -4.30881
| 71>    C       -9.78096        -6.44482        -4.44863
| 72>    N       -8.90539        -6.60702        -3.40620
| 73>    C       -7.69065        -5.86197        -3.23173
| 74>    C       -9.73290        -5.55631        -5.50593
| 75>    C      -10.73629        -5.62535        -6.47573
| 76>    C      -11.80845        -6.53022        -6.32413
| 77>    C      -11.88223        -7.38210        -5.25008
| 78>    C      -10.68286        -4.72876        -7.59759
| 79>    C      -11.16361        -4.92627        -8.85054
| 80>    C      -11.39359        -3.76864        -9.75440
| 81>    O      -10.99001        -2.63926        -9.61559
| 82>    C      -12.27435        -4.29063       -10.82770
| 83>    C      -12.89404        -3.59635       -11.84508
| 84>    C      -13.71911        -4.30603       -12.71937
| 85>    C      -13.90529        -5.69195       -12.55056
| 86>    C      -13.26297        -6.38831       -11.52531
| 87>    C      -12.44157        -5.68062       -10.66433
| 88>    C      -11.63020        -6.12068        -9.52993
| 89>    C      -11.18678        -7.39738        -9.32014
| 90>    C      -10.18312        -7.72591        -8.38244
| 91>    N       -9.32270        -8.03558        -7.68985
| 92>    C      -11.60918        -8.50824       -10.08040
| 93>    N      -11.94317        -9.43630       -10.66617
| 94>    C      -14.76619        -6.39038       -13.43356
| 95>    N      -15.46332        -6.96299       -14.13829
| 96>    C      -14.37841        -3.62927       -13.77387
| 97>    N      -14.90441        -3.06453       -14.61977
| 98>    H        3.28598        -5.64095        11.80411
| 99>    H        1.00231        -9.85997        13.16956
|100>    H       -0.31863        -6.67385         7.93263
|101>    H       -1.66972        -6.84389         6.29294
|102>    H       -3.76568       -10.92880         8.22455
|103>    H       -1.90418        -9.83107         9.37432
|104>    H       -4.40678        -6.51034         3.57845
|105>    H       -2.78904        -7.17852         3.27543
|106>    H       -3.06496        -6.09001         4.65024
|107>    H       -5.71997        -8.27123         2.81846
|108>    H       -7.42455       -11.75456         4.64982
|109>    H       -5.79489       -11.63981         6.49387
|110>    H      -13.22327       -14.96235         2.19568
|111>    H      -11.85662       -15.41656         4.19137
|112>    H       -7.94960        -7.71126        -0.97962
|113>    H      -12.19756        -9.51947        -2.86020
|114>    H      -11.25911       -10.42844        -0.77199
|115>    H       -7.18157        -5.75779        -4.19065
|116>    H       -7.03281        -6.39220        -2.54669
|117>    H       -7.89303        -4.86525        -2.82824
|118>    H       -8.92337        -4.85212        -5.62082
|119>    H      -12.60893        -6.51377        -7.04900
|120>    H      -12.71615        -8.05690        -5.13559
|121>    H      -10.26046        -3.74545        -7.41463
|122>    H      -12.74742        -2.53310       -11.96008
|123>    H      -13.42960        -7.44897       -11.41971
|124> *
|125> 
|126>                          ****END OF INPUT****
================================================================================

                       ****************************
                       * Single Point Calculation *
                       ****************************

---------------------------------
CARTESIAN COORDINATES (ANGSTROEM)
---------------------------------
  C      1.763830   -7.099690   11.305110
  C      2.775480   -6.550140   12.077250
  C      3.145320   -7.203730   13.253820
  C      4.176880   -6.656490   14.056830
  N      5.011870   -6.208660   14.699350
  C      2.513890   -8.395480   13.659570
  C      2.910040   -9.033090   14.859670
  N      3.215160   -9.562980   15.827910
  C      1.498490   -8.946740   12.877800
  C      1.143560   -8.290460   11.718460
  C      0.105070   -8.686170   10.738860
  O     -0.582230   -9.678810   10.836960
  C      0.131200   -7.647660    9.683970
  C      1.149750   -6.666800   10.049960
  C      1.489450   -5.516900    9.386740
  C      2.491070   -4.618440    9.819220
  N      3.286070   -3.842660   10.106520
  C      0.921400   -5.017060    8.193530
  N      0.534860   -4.511540    7.236500
  C     -0.598390   -7.532400    8.531850
  C     -1.664700   -8.260590    7.922120
  C     -2.135000   -7.727400    6.704770
  C     -3.188250   -8.342880    6.065570
  C     -3.793010   -9.511270    6.610420
  C     -3.315250  -10.041920    7.807120
  C     -2.271010   -9.423250    8.449430
  C     -4.837410   -9.878460    5.715540
  C     -4.822620   -8.919700    4.665390
  N     -3.830200   -8.001540    4.899390
  C     -3.502130   -6.888750    4.053220
  C     -5.727670   -8.991060    3.623600
  C     -6.674490  -10.020230    3.629970
  C     -6.684720  -10.972190    4.674210
  C     -5.778290  -10.907040    5.702670
  C     -7.648030  -10.101840    2.577620
  C     -8.720080  -10.983380    2.426780
  C     -9.511520  -10.730040    1.242520
  N    -10.582660  -11.483750    0.966670
  C    -10.881320  -12.452290    1.798160
  C    -12.077400  -13.270480    1.479420
  O    -12.779660  -13.057060    0.513810
  C    -12.357050  -14.359320    2.432960
  C    -11.615190  -14.605440    3.517540
  C    -10.427370  -13.817660    3.893280
  O     -9.775110  -14.060570    4.886620
  C    -10.092240  -12.709670    2.964540
  N     -9.042350  -11.981950    3.258660
  C     -9.039270   -9.662440    0.475870
  S     -7.637470   -8.995100    1.243820
  C     -9.554240   -9.123350   -0.751420
  C     -8.866960   -8.093920   -1.402680
  C     -9.386210   -7.594230   -2.581720
  C    -10.602880   -8.100120   -3.115800
  C    -11.277140   -9.126620   -2.458070
  C    -10.755260   -9.632050   -1.293410
  C    -10.856320   -7.363670   -4.308810
  C     -9.780960   -6.444820   -4.448630
  N     -8.905390   -6.607020   -3.406200
  C     -7.690650   -5.861970   -3.231730
  C     -9.732900   -5.556310   -5.505930
  C    -10.736290   -5.625350   -6.475730
  C    -11.808450   -6.530220   -6.324130
  C    -11.882230   -7.382100   -5.250080
  C    -10.682860   -4.728760   -7.597590
  C    -11.163610   -4.926270   -8.850540
  C    -11.393590   -3.768640   -9.754400
  O    -10.990010   -2.639260   -9.615590
  C    -12.274350   -4.290630  -10.827700
  C    -12.894040   -3.596350  -11.845080
  C    -13.719110   -4.306030  -12.719370
  C    -13.905290   -5.691950  -12.550560
  C    -13.262970   -6.388310  -11.525310
  C    -12.441570   -5.680620  -10.664330
  C    -11.630200   -6.120680   -9.529930
  C    -11.186780   -7.397380   -9.320140
  C    -10.183120   -7.725910   -8.382440
  N     -9.322700   -8.035580   -7.689850
  C    -11.609180   -8.508240  -10.080400
  N    -11.943170   -9.436300  -10.666170
  C    -14.766190   -6.390380  -13.433560
  N    -15.463320   -6.962990  -14.138290
  C    -14.378410   -3.629270  -13.773870
  N    -14.904410   -3.064530  -14.619770
  H      3.285980   -5.640950   11.804110
  H      1.002310   -9.859970   13.169560
  H     -0.318630   -6.673850    7.932630
  H     -1.669720   -6.843890    6.292940
  H     -3.765680  -10.928800    8.224550
  H     -1.904180   -9.831070    9.374320
  H     -4.406780   -6.510340    3.578450
  H     -2.789040   -7.178520    3.275430
  H     -3.064960   -6.090010    4.650240
  H     -5.719970   -8.271230    2.818460
  H     -7.424550  -11.754560    4.649820
  H     -5.794890  -11.639810    6.493870
  H    -13.223270  -14.962350    2.195680
  H    -11.856620  -15.416560    4.191370
  H     -7.949600   -7.711260   -0.979620
  H    -12.197560   -9.519470   -2.860200
  H    -11.259110  -10.428440   -0.771990
  H     -7.181570   -5.757790   -4.190650
  H     -7.032810   -6.392200   -2.546690
  H     -7.893030   -4.865250   -2.828240
  H     -8.923370   -4.852120   -5.620820
  H    -12.608930   -6.513770   -7.049000
  H    -12.716150   -8.056900   -5.135590
  H    -10.260460   -3.745450   -7.414630
  H    -12.747420   -2.533100  -11.960080
  H    -13.429600   -7.448970  -11.419710

----------------------------
CARTESIAN COORDINATES (A.U.)
----------------------------
  NO LB      ZA    FRAG     MASS         X           Y           Z
   0 C     6.0000    0    12.011    3.333156  -13.416470   21.363562
   1 C     6.0000    0    12.011    5.244897  -12.377971   22.822695
   2 C     6.0000    0    12.011    5.943793  -13.613077   25.046090
   3 C     6.0000    0    12.011    7.893159  -12.578943   26.563559
   4 N     7.0000    0    14.007    9.471062  -11.732667   27.777746
   5 C     6.0000    0    12.011    4.750564  -15.865158   25.812846
   6 C     6.0000    0    12.011    5.499179  -17.070066   28.080707
   7 N     7.0000    0    14.007    6.075772  -18.071413   29.910415
   8 C     6.0000    0    12.011    2.831736  -16.906888   24.335515
   9 C     6.0000    0    12.011    2.161015  -15.666699   22.144680
  10 C     6.0000    0    12.011    0.198554  -16.414482   20.293504
  11 O     8.0000    0    15.999   -1.100255  -18.290300   20.478887
  12 C     6.0000    0    12.011    0.247932  -14.451983   18.300051
  13 C     6.0000    0    12.011    2.172713  -12.598426   18.991672
  14 C     6.0000    0    12.011    2.814653  -10.425430   17.738368
  15 C     6.0000    0    12.011    4.707440   -8.727587   18.555637
  16 N     7.0000    0    14.007    6.209772   -7.261575   19.098555
  17 C     6.0000    0    12.011    1.741194   -9.480869   15.483528
  18 N     7.0000    0    14.007    1.010739   -8.525575   13.675003
  19 C     6.0000    0    12.011   -1.130793  -14.234173   16.122860
  20 C     6.0000    0    12.011   -3.145827  -15.610253   14.970637
  21 C     6.0000    0    12.011   -4.034565  -14.602670   12.670179
  22 C     6.0000    0    12.011   -6.024919  -15.765758   11.462266
  23 C     6.0000    0    12.011   -7.167750  -17.973695   12.491883
  24 C     6.0000    0    12.011   -6.264915  -18.976479   14.753319
  25 C     6.0000    0    12.011   -4.291587  -17.807362   15.967109
  26 C     6.0000    0    12.011   -9.141380  -18.667584   10.800805
  27 C     6.0000    0    12.011   -9.113431  -16.855790    8.816309
  28 N     7.0000    0    14.007   -7.238029  -15.120719    9.258505
  29 C     6.0000    0    12.011   -6.618067  -13.017851    7.659476
  30 C     6.0000    0    12.011  -10.823728  -16.990641    6.847612
  31 C     6.0000    0    12.011  -12.612958  -18.935490    6.859649
  32 C     6.0000    0    12.011  -12.632290  -20.734434    8.832977
  33 C     6.0000    0    12.011  -10.919386  -20.611319   10.776485
  34 C     6.0000    0    12.011  -14.452682  -19.089711    4.870996
  35 C     6.0000    0    12.011  -16.478563  -20.755580    4.585950
  36 C     6.0000    0    12.011  -17.974168  -20.276837    2.348023
  37 N     7.0000    0    14.007  -19.998329  -21.701142    1.826742
  38 C     6.0000    0    12.011  -20.562715  -23.531418    3.398030
  39 C     6.0000    0    12.011  -22.822978  -25.077573    2.795699
  40 O     8.0000    0    15.999  -24.150057  -24.674268    0.970960
  41 C     6.0000    0    12.011  -23.351440  -27.135182    4.597628
  42 C     6.0000    0    12.011  -21.949528  -27.600282    6.647187
  43 C     6.0000    0    12.011  -19.704874  -26.111593    7.357233
  44 O     8.0000    0    15.999  -18.472281  -26.570627    9.234374
  45 C     6.0000    0    12.011  -19.071570  -24.017796    5.602169
  46 N     7.0000    0    14.007  -17.087565  -22.642604    6.157975
  47 C     6.0000    0    12.011  -17.081745  -18.259365    0.899264
  48 S    16.0000    0    32.060  -14.432727  -16.998276    2.350479
  49 C     6.0000    0    12.011  -18.054897  -17.240633   -1.419978
  50 C     6.0000    0    12.011  -16.756126  -15.295292   -2.650681
  51 C     6.0000    0    12.011  -17.737366  -14.351015   -4.878744
  52 C     6.0000    0    12.011  -20.036539  -15.307008   -5.888009
  53 C     6.0000    0    12.011  -21.310706  -17.246812   -4.645079
  54 C     6.0000    0    12.011  -20.324496  -18.201937   -2.444191
  55 C     6.0000    0    12.011  -20.515472  -13.915320   -8.142471
  56 C     6.0000    0    12.011  -18.483336  -12.178945   -8.406692
  57 N     7.0000    0    14.007  -16.828748  -12.485458   -6.436785
  58 C     6.0000    0    12.011  -14.533222  -11.077518   -6.107085
  59 C     6.0000    0    12.011  -18.392515  -10.499904  -10.404700
  60 C     6.0000    0    12.011  -20.288648  -10.630371  -12.237356
  61 C     6.0000    0    12.011  -22.314737  -12.340327  -11.950874
  62 C     6.0000    0    12.011  -22.454161  -13.950147   -9.921213
  63 C     6.0000    0    12.011  -20.187680   -8.936061  -14.357364
  64 C     6.0000    0    12.011  -21.096166   -9.309301  -16.725097
  65 C     6.0000    0    12.011  -21.530765   -7.121697  -18.433145
  66 O     8.0000    0    15.999  -20.768109   -4.987479  -18.170832
  67 C     6.0000    0    12.011  -23.195160   -8.108116  -20.461388
  68 C     6.0000    0    12.011  -24.366204   -6.796117  -22.383957
  69 C     6.0000    0    12.011  -25.925361   -8.137217  -24.036126
  70 C     6.0000    0    12.011  -26.277190  -10.756227  -23.717121
  71 C     6.0000    0    12.011  -25.063381  -12.072156  -21.779680
  72 C     6.0000    0    12.011  -23.511160  -10.734816  -20.152663
  73 C     6.0000    0    12.011  -21.977893  -11.566409  -18.008958
  74 C     6.0000    0    12.011  -21.139951  -13.979022  -17.612512
  75 C     6.0000    0    12.011  -19.243308  -14.599854  -15.840516
  76 N     7.0000    0    14.007  -17.617350  -15.185046  -14.531711
  77 C     6.0000    0    12.011  -21.938171  -16.078243  -19.049195
  78 N     7.0000    0    14.007  -22.569320  -17.832023  -20.156140
  79 C     6.0000    0    12.011  -27.904055  -12.076068  -25.385749
  80 N     7.0000    0    14.007  -29.221440  -13.158144  -26.717496
  81 C     6.0000    0    12.011  -27.171257   -6.858326  -26.028842
  82 N     7.0000    0    14.007  -28.165253   -5.791122  -27.627361
  83 H     1.0000    0     1.008    6.209602  -10.659851   22.306535
  84 H     1.0000    0     1.008    1.894091  -18.632643   24.886862
  85 H     1.0000    0     1.008   -0.602123  -12.611749   14.990498
  86 H     1.0000    0     1.008   -3.155314  -12.933078   11.891933
  87 H     1.0000    0     1.008   -7.116104  -20.652439   15.542147
  88 H     1.0000    0     1.008   -3.598379  -18.578030   17.714897
  89 H     1.0000    0     1.008   -8.327607  -12.302760    6.762290
  90 H     1.0000    0     1.008   -5.270522  -13.565437    6.189666
  91 H     1.0000    0     1.008   -5.791935  -11.508451    8.787680
  92 H     1.0000    0     1.008  -10.809177  -15.630359    5.326118
  93 H     1.0000    0     1.008  -14.030366  -22.212899    8.786886
  94 H     1.0000    0     1.008  -10.950755  -21.996053   12.271636
  95 H     1.0000    0     1.008  -24.988359  -28.274744    4.149234
  96 H     1.0000    0     1.008  -22.405765  -29.133076    7.920541
  97 H     1.0000    0     1.008  -15.022567  -14.572170   -1.851214
  98 H     1.0000    0     1.008  -23.050048  -17.989191   -5.404995
  99 H     1.0000    0     1.008  -21.276634  -19.706896   -1.458850
 100 H     1.0000    0     1.008  -13.571201  -10.880646   -7.919181
 101 H     1.0000    0     1.008  -13.290085  -12.079507   -4.812547
 102 H     1.0000    0     1.008  -14.915665   -9.193990   -5.344599
 103 H     1.0000    0     1.008  -16.862725   -9.169178  -10.621810
 104 H     1.0000    0     1.008  -23.827425  -12.309241  -13.320680
 105 H     1.0000    0     1.008  -24.030041  -15.225334   -9.704859
 106 H     1.0000    0     1.008  -19.389459   -7.077875  -14.011620
 107 H     1.0000    0     1.008  -24.089133   -4.786865  -22.601276
 108 H     1.0000    0     1.008  -25.378266  -14.076513  -21.580124

--------------------------------
INTERNAL COORDINATES (ANGSTROEM)
--------------------------------
 C      0   0   0     0.000000000000     0.00000000     0.00000000
 C      1   0   0     1.386232702182     0.00000000     0.00000000
 C      2   1   0     1.395807464731   118.50619557     0.00000000
 C      3   2   1     1.417184783753   119.31937344   180.04566070
 N      4   3   2     1.144810883683   179.56945464   351.92033514
 C      3   2   1     1.408405115689   121.35042818     0.00000000
 C      6   3   2     1.415528644924   119.99510215   180.12353501
 N      7   6   3     1.145150786622   178.94946758   175.61289505
 C      6   3   2     1.395022967732   119.95072180     0.14054789
 C      9   6   3     1.378676168975   118.06833367   359.86055331
 C     10   9   6     1.481439855073   127.54365020   179.88550036
 O     11  10   9     1.211337719053   124.26877663   359.56996842
 C     11  10   9     1.480533251602   105.74809135   180.16501787
 C     13  11  10     1.460643393235   107.74693735   359.43044613
 C     14  13  11     1.370228764988   127.96244489   182.09593722
 C     15  14  13     1.413333628836   124.12973159   179.75320680
 N     16  15  14     1.147345152254   175.95732789   181.52551513
 C     15  14  13     1.412894522673   127.29901267     0.27280440
 N     18  15  14     1.149291113208   173.75495769   177.03955839
 C     13  11  10     1.368563820251   130.50297325   178.57502003
 C     20  13  11     1.427952507999   135.61114814     3.72541271
 C     21  20  13     1.409756960827   115.14826552   178.38758703
 C     22  21  20     1.377217423975   119.13598599   181.86432974
 C     23  22  21     1.423984330040   120.92355661   359.33837562
 C     24  23  22     1.393533254035   119.69750476     0.00000000
 C     25  24  23     1.373226813968   119.39448581     0.42517039
 C     24  23  22     1.423520309128   106.42154032   179.76520033
 C     27  24  23     1.422059950987   106.42100339     0.04848595
 N     28  27  24     1.372104676036   109.43487297   359.58825492
 C     29  28  27     1.435944002355   125.68451790   179.46674276
 C     28  27  24     1.381858949459   121.00471859   180.21859855
 C     31  28  27     1.398463291688   118.55485476     0.77994991
 C     32  31  28     1.413071007452   120.26828154   359.13113965
 C     33  32  31     1.372439375346   121.13191955     0.34075801
 C     32  31  28     1.435925083770   119.83573200   178.53180856
 C     35  32  31     1.396122014618   129.47035902   184.22590441
 C     36  35  32     1.446730858453   113.44956548   178.31665079
 N     37  36  35     1.338474088729   120.52311423   180.66713995
 C     38  37  36     1.310970307558   117.88012763   359.76091316
 C     39  38  37     1.483791572324   117.05080549   179.60588324
 O     40  39  38     1.212897306494   122.73239769   358.55837294
 C     40  39  38     1.474115056466   114.91465520   179.05173981
 C     42  40  39     1.336878861528   123.74457829     0.66106068
 C     43  42  40     1.474006183298   123.75136590     0.04577041
 O     44  43  42     1.212919095117   122.34943164   179.72406469
 C     39  38  37     1.431549515455   121.60269702   359.74913039
 N     46  39  38     1.310859254421   121.63267571     0.54598100
 C     37  36  35     1.396618074135   113.46712013     0.63240774
 S     48  37  36     1.732089235028   108.95321713   359.64468902
 C     48  37  36     1.435984983591   129.41010878   179.88400258
 C     50  48  37     1.398649173631   119.87135473   184.18819505
 C     51  50  48     1.381827044243   118.60755566   180.02475014
 C     52  51  50     1.421777770047   120.89116662     0.85435411
 C     53  52  51     1.393175348081   119.93237645   359.06868544
 C     54  53  52     1.372680274099   119.19992264     0.30790165
 C     53  52  51     1.424732710441   106.43028410   179.19604019
 C     56  53  52     1.421349388609   106.37643371     0.12647209
 N     57  56  53     1.370982118702   109.38438093     0.34593667
 C     58  57  56     1.435664498064   124.84598992   178.97415137
 C     57  56  53     1.381898358672   121.14656758   180.99966064
 C     60  57  56     1.397165005896   118.31559946   356.90379555
 C     61  60  57     1.411134062554   120.18310564     3.72313754
 C     62  61  60     1.372853388130   121.51888844   358.44380009
 C     61  60  57     1.437114557925   118.96821392   181.43216560
 C     64  61  60     1.356471328521   128.10036948   151.32155031
 C     65  64  61     1.486593729605   120.20197571   161.32474165
 O     66  65  64     1.207329373825   127.35986052    14.13942843
 C     66  65  64     1.483301934098   104.93774596   196.56835521
 C     68  66  65     1.378804728343   128.57836997   172.89093986
 C     69  68  66     1.395983241805   118.14921149   182.08639899
 C     70  69  68     1.408521939801   120.21712184     0.16354994
 C     71  70  69     1.395933305893   121.20131052   359.18951627
 C     72  71  70     1.384488951382   118.34262866     0.53990318
 C     65  64  61     1.451169269348   131.77712083   346.68733707
 C     74  65  64     1.367697346089   126.31699429   329.03515208
 C     75  74  65     1.412284194665   123.32545755     0.00000000
 N     76  75  74     1.147126406897   175.35462974   233.56426288
 C     75  74  65     1.410824924362   123.72933823   184.81171520
 N     78  75  74     1.147157869083   177.90740143   204.80970018
 C     71  70  69     1.417265774264   119.37445969   178.84507398
 N     80  71  70     1.144778066657   179.39328124   204.55762695
 C     70  69  68     1.415856926953   119.91194349   179.72931441
 N     82  70  69     1.145056364377   178.99541227   355.73046005
 H      2   1   3     1.077887826121   122.60715801   179.95267322
 H      9   6   3     1.079494105079   121.15785850   179.91670951
 H     20  13  11     1.083715077177   113.23999273   182.61221987
 H     22  21  20     1.080129319758   119.66336087     1.52077925
 H     25  24  23     1.078745161843   120.14667604   180.21989573
 H     26  25  24     1.075315262330   119.39664946   179.82461978
 H     30  29  28     1.089491763851   109.64827366    33.40073487
 H     30  29  28     1.094267465065   111.25514437   272.91903402
 H     30  29  28     1.088823253288   109.70105214   152.47713551
 H     31  28  27     1.080030063702   121.52919347   180.39958731
 H     33  32  31     1.077054370912   118.52872906   180.16324093
 H     34  33  32     1.078529032015   120.48493324   180.06423327
 H     42  40  39     1.081796685011   114.94607099   180.58330333
 H     43  42  40     1.081781386510   121.30065163   180.02524299
 H     51  50  48     1.080258213947   119.71280043     0.16828001
 H     54  53  52     1.078523358950   120.35658232   180.35996315
 H     55  54  53     1.077023988127   120.34259343   180.25353906
 H     59  58  57     1.090661948176   109.73437370   318.06348953
 H     59  58  57     1.087739454143   109.58928064   198.96948427
 H     59  58  57     1.094172108445   111.16483452    78.55959253
 H     60  57  56     1.079083911983   121.81224635   179.80199454
 H     62  61  60     1.080034883603   118.76735703   175.52260569
 H     63  62  61     1.078835282376   120.84348917   178.86967659
 H     64  61  60     1.085723112815   116.61219497   327.27888541
 H     69  68  66     1.079454948990   120.89999745     1.89924083
 H     72  71  70     1.078849643138   119.42339648   179.73141290

---------------------------
INTERNAL COORDINATES (A.U.)
---------------------------
 C      0   0   0     0.000000000000     0.00000000     0.00000000
 C      1   0   0     2.619600165010     0.00000000     0.00000000
 C      2   1   0     2.637693844025   118.50619557     0.00000000
 C      3   2   1     2.678091122453   119.31937344   180.04566070
 N      4   3   2     2.163379045294   179.56945464   351.92033514
 C      3   2   1     2.661499954267   121.35042818     0.00000000
 C      6   3   2     2.674961473627   119.99510215   180.12353501
 N      7   6   3     2.164021368759   178.94946758   175.61289505
 C      6   3   2     2.636211359544   119.95072180     0.14054789
 C      9   6   3     2.605320386727   118.06833367   359.86055331
 C     10   9   6     2.799515609965   127.54365020   179.88550036
 O     11  10   9     2.289096544699   124.26877663   359.56996842
 C     11  10   9     2.797802377692   105.74809135   180.16501787
 C     13  11  10     2.760215992535   107.74693735   359.43044613
 C     14  13  11     2.589357106648   127.96244489   182.09593722
 C     15  14  13     2.670813494362   124.12973159   179.75320680
 N     16  15  14     2.168168118842   175.95732789   181.52551513
 C     15  14  13     2.669983703970   127.29901267     0.27280440
 N     18  15  14     2.171845452114   173.75495769   177.03955839
 C     13  11  10     2.586210817067   130.50297325   178.57502003
 C     20  13  11     2.698439172364   135.61114814     3.72541271
 C     21  20  13     2.664054571352   115.14826552   178.38758703
 C     22  21  20     2.602563758177   119.13598599   181.86432974
 C     23  22  21     2.690940402771   120.92355661   359.33837562
 C     24  23  22     2.633396208637   119.69750476     0.00000000
 C     25  24  23     2.595022598156   119.39448581     0.42517039
 C     24  23  22     2.690063530327   106.42154032   179.76520033
 C     27  24  23     2.687303853382   106.42100339     0.04848595
 N     28  27  24     2.592902064781   109.43487297   359.58825492
 C     29  28  27     2.713540908098   125.68451790   179.46674276
 C     28  27  24     2.611334970186   121.00471859   180.21859855
 C     31  28  27     2.642712629633   118.55485476     0.77994991
 C     32  31  28     2.670317211868   120.26828154   359.13113965
 C     33  32  31     2.593534554814   121.13191955     0.34075801
 C     32  31  28     2.713505157153   119.83573200   178.53180856
 C     35  32  31     2.638288257166   129.47035902   184.22590441
 C     36  35  32     2.733925111969   113.44956548   178.31665079
 N     37  36  35     2.529349465048   120.52311423   180.66713995
 C     38  37  36     2.477374850988   117.88012763   359.76091316
 C     39  38  37     2.803959711513   117.05080549   179.60588324
 O     40  39  38     2.292043737844   122.73239769   358.55837294
 C     40  39  38     2.785673746611   114.91465520   179.05173981
 C     42  40  39     2.526334922516   123.74457829     0.66106068
 C     43  42  40     2.785468006139   123.75136590     0.04577041
 O     44  43  42     2.292084912375   122.34943164   179.72406469
 C     39  38  37     2.705236531358   121.60269702   359.74913039
 N     46  39  38     2.477164990971   121.63267571     0.54598100
 C     37  36  35     2.639225673799   113.46712013     0.63240774
 S     48  37  36     3.273174293716   108.95321713   359.64468902
 C     48  37  36     2.713618351411   129.41010878   179.88400258
 C     50  48  37     2.643063895599   119.87135473   184.18819505
 C     51  50  48     2.611274678064   118.60755566   180.02475014
 C     52  51  50     2.686770608686   120.89116662     0.85435411
 C     53  52  51     2.632719864403   119.93237645   359.06868544
 C     54  53  52     2.593989787483   119.19992264     0.30790165
 C     53  52  51     2.692354636772   106.43028410   179.19604019
 C     56  53  52     2.685961085088   106.37643371     0.12647209
 N     57  56  53     2.590780738849   109.38438093     0.34593667
 C     58  57  56     2.713012721534   124.84598992   178.97415137
 C     57  56  53     2.611409442805   121.14656758   180.99966064
 C     60  57  56     2.640259225042   118.31559946   356.90379555
 C     61  60  57     2.666656916475   120.18310564     3.72313754
 C     62  61  60     2.594316925592   121.51888844   358.44380009
 C     61  60  57     2.715752937550   118.96821392   181.43216560
 C     64  61  60     2.563359319421   128.10036948   151.32155031
 C     65  64  61     2.809255021357   120.20197571   161.32474165
 O     66  65  64     2.281521869967   127.35986052    14.13942843
 C     66  65  64     2.803034429362   104.93774596   196.56835521
 C     68  66  65     2.605563328723   128.57836997   172.89093986
 C     69  68  66     2.638026014555   118.14921149   182.08639899
 C     70  69  68     2.661720719843   120.21712184     0.16354994
 C     71  70  69     2.637931649356   121.20131052   359.18951627
 C     72  71  70     2.616304953553   118.34262866     0.53990318
 C     65  64  61     2.742312493030   131.77712083   346.68733707
 C     74  65  64     2.584573418200   126.31699429   329.03515208
 C     75  74  65     2.668830351182   123.32545755     0.00000000
 N     76  75  74     2.167754750024   175.35462974   233.56426288
 C     75  74  65     2.666072729954   123.72933823   184.81171520
 N     78  75  74     2.167814204940   177.90740143   204.80970018
 C     71  70  69     2.678244172339   119.37445969   178.84507398
 N     80  71  70     2.163317030102   179.39328124   204.55762695
 C     70  69  68     2.675581836756   119.91194349   179.72931441
 N     82  70  69     2.163842936576   178.99541227   355.73046005
 H      2   1   3     2.036912794457   122.60715801   179.95267322
 H      9   6   3     2.039948221781   121.15785850   179.91670951
 H     20  13  11     2.047924703065   113.23999273   182.61221987
 H     22  21  20     2.041148603561   119.66336087     1.52077925
 H     25  24  23     2.038532924176   120.14667604   180.21989573
 H     26  25  24     2.032051353430   119.39664946   179.82461978
 H     30  29  28     2.058841058842   109.64827366    33.40073487
 H     30  29  28     2.067865826233   111.25514437   272.91903402
 H     30  29  28     2.057577756959   109.70105214   152.47713551
 H     31  28  27     2.040961036798   121.52919347   180.39958731
 H     33  32  31     2.035337792366   118.52872906   180.16324093
 H     34  33  32     2.038124497992   120.48493324   180.06423327
 H     42  40  39     2.044299467254   114.94607099   180.58330333
 H     43  42  40     2.044270557278   121.30065163   180.02524299
 H     51  50  48     2.041392178279   119.71280043     0.16828001
 H     54  53  52     2.038113777452   120.35658232   180.35996315
 H     55  54  53     2.035280377223   120.34259343   180.25353906
 H     59  58  57     2.061052386742   109.73437370   318.06348953
 H     59  58  57     2.055529673392   109.58928064   198.96948427
 H     59  58  57     2.067685628337   111.16483452    78.55959253
 H     60  57  56     2.039173069168   121.81224635   179.80199454
 H     62  61  60     2.040970145092   118.76735703   175.52260569
 H     63  62  61     2.038703227303   120.84348917   178.86967659
 H     64  61  60     2.051719340488   116.61219497   327.27888541
 H     69  68  66     2.039874227498   120.89999745     1.89924083
 H     72  71  70     2.038730365210   119.42339648   179.73141290

---------------------
BASIS SET INFORMATION
---------------------
There are 5 groups of distinct atoms

 Group   1 Type C   : 7s4p1d contracted to 3s2p1d pattern {511/31/1}
 Group   2 Type N   : 7s4p1d contracted to 3s2p1d pattern {511/31/1}
 Group   3 Type O   : 7s4p1d contracted to 3s2p1d pattern {511/31/1}
 Group   4 Type S   : 10s7p1d contracted to 4s3p1d pattern {5311/511/1}
 Group   5 Type H   : 4s1p contracted to 2s1p pattern {31/1}

Atom   0C    basis set group =>   1
Atom   1C    basis set group =>   1
Atom   2C    basis set group =>   1
Atom   3C    basis set group =>   1
Atom   4N    basis set group =>   2
Atom   5C    basis set group =>   1
Atom   6C    basis set group =>   1
Atom   7N    basis set group =>   2
Atom   8C    basis set group =>   1
Atom   9C    basis set group =>   1
Atom  10C    basis set group =>   1
Atom  11O    basis set group =>   3
Atom  12C    basis set group =>   1
Atom  13C    basis set group =>   1
Atom  14C    basis set group =>   1
Atom  15C    basis set group =>   1
Atom  16N    basis set group =>   2
Atom  17C    basis set group =>   1
Atom  18N    basis set group =>   2
Atom  19C    basis set group =>   1
Atom  20C    basis set group =>   1
Atom  21C    basis set group =>   1
Atom  22C    basis set group =>   1
Atom  23C    basis set group =>   1
Atom  24C    basis set group =>   1
Atom  25C    basis set group =>   1
Atom  26C    basis set group =>   1
Atom  27C    basis set group =>   1
Atom  28N    basis set group =>   2
Atom  29C    basis set group =>   1
Atom  30C    basis set group =>   1
Atom  31C    basis set group =>   1
Atom  32C    basis set group =>   1
Atom  33C    basis set group =>   1
Atom  34C    basis set group =>   1
Atom  35C    basis set group =>   1
Atom  36C    basis set group =>   1
Atom  37N    basis set group =>   2
Atom  38C    basis set group =>   1
Atom  39C    basis set group =>   1
Atom  40O    basis set group =>   3
Atom  41C    basis set group =>   1
Atom  42C    basis set group =>   1
Atom  43C    basis set group =>   1
Atom  44O    basis set group =>   3
Atom  45C    basis set group =>   1
Atom  46N    basis set group =>   2
Atom  47C    basis set group =>   1
Atom  48S    basis set group =>   4
Atom  49C    basis set group =>   1
Atom  50C    basis set group =>   1
Atom  51C    basis set group =>   1
Atom  52C    basis set group =>   1
Atom  53C    basis set group =>   1
Atom  54C    basis set group =>   1
Atom  55C    basis set group =>   1
Atom  56C    basis set group =>   1
Atom  57N    basis set group =>   2
Atom  58C    basis set group =>   1
Atom  59C    basis set group =>   1
Atom  60C    basis set group =>   1
Atom  61C    basis set group =>   1
Atom  62C    basis set group =>   1
Atom  63C    basis set group =>   1
Atom  64C    basis set group =>   1
Atom  65C    basis set group =>   1
Atom  66O    basis set group =>   3
Atom  67C    basis set group =>   1
Atom  68C    basis set group =>   1
Atom  69C    basis set group =>   1
Atom  70C    basis set group =>   1
Atom  71C    basis set group =>   1
Atom  72C    basis set group =>   1
Atom  73C    basis set group =>   1
Atom  74C    basis set group =>   1
Atom  75C    basis set group =>   1
Atom  76N    basis set group =>   2
Atom  77C    basis set group =>   1
Atom  78N    basis set group =>   2
Atom  79C    basis set group =>   1
Atom  80N    basis set group =>   2
Atom  81C    basis set group =>   1
Atom  82N    basis set group =>   2
Atom  83H    basis set group =>   5
Atom  84H    basis set group =>   5
Atom  85H    basis set group =>   5
Atom  86H    basis set group =>   5
Atom  87H    basis set group =>   5
Atom  88H    basis set group =>   5
Atom  89H    basis set group =>   5
Atom  90H    basis set group =>   5
Atom  91H    basis set group =>   5
Atom  92H    basis set group =>   5
Atom  93H    basis set group =>   5
Atom  94H    basis set group =>   5
Atom  95H    basis set group =>   5
Atom  96H    basis set group =>   5
Atom  97H    basis set group =>   5
Atom  98H    basis set group =>   5
Atom  99H    basis set group =>   5
Atom 100H    basis set group =>   5
Atom 101H    basis set group =>   5
Atom 102H    basis set group =>   5
Atom 103H    basis set group =>   5
Atom 104H    basis set group =>   5
Atom 105H    basis set group =>   5
Atom 106H    basis set group =>   5
Atom 107H    basis set group =>   5
Atom 108H    basis set group =>   5
---------------------------------
AUXILIARY/J BASIS SET INFORMATION
---------------------------------
There are 5 groups of distinct atoms

 Group   1 Type C   : 12s5p4d2f1g contracted to 6s4p3d1f1g pattern {711111/2111/211/2/1}
 Group   2 Type N   : 12s5p4d2f1g contracted to 6s4p3d1f1g pattern {711111/2111/211/2/1}
 Group   3 Type O   : 12s5p4d2f1g contracted to 6s4p3d1f1g pattern {711111/2111/211/2/1}
 Group   4 Type S   : 14s5p5d2f1g contracted to 8s4p3d1f1g pattern {71111111/2111/311/2/1}
 Group   5 Type H   : 5s2p1d contracted to 3s1p1d pattern {311/2/1}

Atom   0C    basis set group =>   1
Atom   1C    basis set group =>   1
Atom   2C    basis set group =>   1
Atom   3C    basis set group =>   1
Atom   4N    basis set group =>   2
Atom   5C    basis set group =>   1
Atom   6C    basis set group =>   1
Atom   7N    basis set group =>   2
Atom   8C    basis set group =>   1
Atom   9C    basis set group =>   1
Atom  10C    basis set group =>   1
Atom  11O    basis set group =>   3
Atom  12C    basis set group =>   1
Atom  13C    basis set group =>   1
Atom  14C    basis set group =>   1
Atom  15C    basis set group =>   1
Atom  16N    basis set group =>   2
Atom  17C    basis set group =>   1
Atom  18N    basis set group =>   2
Atom  19C    basis set group =>   1
Atom  20C    basis set group =>   1
Atom  21C    basis set group =>   1
Atom  22C    basis set group =>   1
Atom  23C    basis set group =>   1
Atom  24C    basis set group =>   1
Atom  25C    basis set group =>   1
Atom  26C    basis set group =>   1
Atom  27C    basis set group =>   1
Atom  28N    basis set group =>   2
Atom  29C    basis set group =>   1
Atom  30C    basis set group =>   1
Atom  31C    basis set group =>   1
Atom  32C    basis set group =>   1
Atom  33C    basis set group =>   1
Atom  34C    basis set group =>   1
Atom  35C    basis set group =>   1
Atom  36C    basis set group =>   1
Atom  37N    basis set group =>   2
Atom  38C    basis set group =>   1
Atom  39C    basis set group =>   1
Atom  40O    basis set group =>   3
Atom  41C    basis set group =>   1
Atom  42C    basis set group =>   1
Atom  43C    basis set group =>   1
Atom  44O    basis set group =>   3
Atom  45C    basis set group =>   1
Atom  46N    basis set group =>   2
Atom  47C    basis set group =>   1
Atom  48S    basis set group =>   4
Atom  49C    basis set group =>   1
Atom  50C    basis set group =>   1
Atom  51C    basis set group =>   1
Atom  52C    basis set group =>   1
Atom  53C    basis set group =>   1
Atom  54C    basis set group =>   1
Atom  55C    basis set group =>   1
Atom  56C    basis set group =>   1
Atom  57N    basis set group =>   2
Atom  58C    basis set group =>   1
Atom  59C    basis set group =>   1
Atom  60C    basis set group =>   1
Atom  61C    basis set group =>   1
Atom  62C    basis set group =>   1
Atom  63C    basis set group =>   1
Atom  64C    basis set group =>   1
Atom  65C    basis set group =>   1
Atom  66O    basis set group =>   3
Atom  67C    basis set group =>   1
Atom  68C    basis set group =>   1
Atom  69C    basis set group =>   1
Atom  70C    basis set group =>   1
Atom  71C    basis set group =>   1
Atom  72C    basis set group =>   1
Atom  73C    basis set group =>   1
Atom  74C    basis set group =>   1
Atom  75C    basis set group =>   1
Atom  76N    basis set group =>   2
Atom  77C    basis set group =>   1
Atom  78N    basis set group =>   2
Atom  79C    basis set group =>   1
Atom  80N    basis set group =>   2
Atom  81C    basis set group =>   1
Atom  82N    basis set group =>   2
Atom  83H    basis set group =>   5
Atom  84H    basis set group =>   5
Atom  85H    basis set group =>   5
Atom  86H    basis set group =>   5
Atom  87H    basis set group =>   5
Atom  88H    basis set group =>   5
Atom  89H    basis set group =>   5
Atom  90H    basis set group =>   5
Atom  91H    basis set group =>   5
Atom  92H    basis set group =>   5
Atom  93H    basis set group =>   5
Atom  94H    basis set group =>   5
Atom  95H    basis set group =>   5
Atom  96H    basis set group =>   5
Atom  97H    basis set group =>   5
Atom  98H    basis set group =>   5
Atom  99H    basis set group =>   5
Atom 100H    basis set group =>   5
Atom 101H    basis set group =>   5
Atom 102H    basis set group =>   5
Atom 103H    basis set group =>   5
Atom 104H    basis set group =>   5
Atom 105H    basis set group =>   5
Atom 106H    basis set group =>   5
Atom 107H    basis set group =>   5
Atom 108H    basis set group =>   5


           ************************************************************
           *        Program running with 6 parallel MPI-processes     *
           *              working on a common directory               *
           ************************************************************
------------------------------------------------------------------------------
                           ORCA GTO INTEGRAL CALCULATION
                           -- RI-GTO INTEGRALS CHOSEN --
------------------------------------------------------------------------------

                         BASIS SET STATISTICS AND STARTUP INFO

Gaussian basis set:
 # of primitive gaussian shells          ... 1132
 # of primitive gaussian functions       ... 2186
 # of contracted shells                  ...  578
 # of contracted basis functions         ... 1296
 Highest angular momentum                ...    2
 Maximum contraction depth               ...    5
Auxiliary gaussian basis set:
 # of primitive gaussian shells          ... 2203
 # of primitive gaussian functions       ... 6233
 # of contracted shells                  ... 1377
 # of contracted aux-basis functions     ... 4355
 Highest angular momentum                ...    4
 Maximum contraction depth               ...    7
Ratio of auxiliary to basis functions    ...  3.36
Integral package used                  ... LIBINT
 One Electron integrals                  ... done
 Ordering auxiliary basis shells         ... done
 Integral threshhold             Thresh  ...  2.500e-11
 Primitive cut-off               TCut    ...  2.500e-12
 Pre-screening matrix                    ... done
 Shell pair data                         ... 
 Ordering of the shell pairs             ... done (   0.010 sec) 47112 of 167331 pairs
 Determination of significant pairs      ... done (   0.000 sec)
 Creation of shell pair data             ... done (   0.007 sec)
 Storage of shell pair data              ... done (   0.013 sec)
 Shell pair data done in (   0.029 sec)
 Computing two index integrals           ... done
 Cholesky decomposition of the V-matrix  ... done


Timings:
 Total evaluation time                   ...   2.824 sec (  0.047 min)
 One electron matrix time                ...   0.646 sec (  0.011 min) = 22.9%
 Schwartz matrix evaluation time         ...   0.871 sec (  0.015 min) = 30.8%
 Two index repulsion integral time       ...   0.463 sec (  0.008 min) = 16.4%
 Cholesky decomposition of V             ...   0.798 sec (  0.013 min) = 28.3%
 Three index repulsion integral time     ...   0.000 sec (  0.000 min) =  0.0%



           ************************************************************
           *        Program running with 6 parallel MPI-processes     *
           *              working on a common directory               *
           ************************************************************
-------------------------------------------------------------------------------
                                 ORCA SCF
-------------------------------------------------------------------------------

------------
SCF SETTINGS
------------
Hamiltonian:
 Density Functional     Method          .... DFT(GTOs)
 Exchange Functional    Exchange        .... WB88
 Correlation Functional Correlation     .... LYP
 LDA part of GGA corr.  LDAOpt          .... VWN-5
 Gradients option       PostSCFGGA      .... off
 Hybrid DFT is turned on
   Fraction HF Exchange ScalHFX         ....  0.190000
   Scaling of DF-GGA-X  ScalDFX         ....  0.350000
   Scaling of DF-GGA-C  ScalDFC         ....  0.810000
   Scaling of DF-LDA-C  ScalLDAC        ....  1.000000
   Perturbative correction              ....  0.000000
   Density functional embedding theory  .... OFF
 Long-range corrected/Screened/Range-Separated Hybrid DFT is turned on
   Amount of maximum screened exact exchange              ....  0.460000
   Range separation parameter mu (erf(mu*r12)/r12)        ....  0.330000
 RI-approximation to the Coulomb term is turned on
   Number of auxiliary basis functions  .... 4355
   RIJ-COSX (HFX calculated with COS-X)).... on


General Settings:
 Integral files         IntName         .... xtbopt
 Hartree-Fock type      HFTyp           .... RHF
 Total Charge           Charge          ....    0
 Multiplicity           Mult            ....    1
 Number of Electrons    NEL             ....  554
 Basis Dimension        Dim             .... 1296
 Nuclear Repulsion      ENuc            ....  10801.6105055671 Eh

Convergence Acceleration:
 DIIS                   CNVDIIS         .... on
   Start iteration      DIISMaxIt       ....    12
   Startup error        DIISStart       ....  0.200000
   # of expansion vecs  DIISMaxEq       ....     5
   Bias factor          DIISBfac        ....   1.050
   Max. coefficient     DIISMaxC        ....  10.000
 Newton-Raphson         CNVNR           .... off
 SOSCF                  CNVSOSCF        .... on
   Start iteration      SOSCFMaxIt      ....   150
   Startup grad/error   SOSCFStart      ....  0.003300
 Level Shifting         CNVShift        .... on
   Level shift para.    LevelShift      ....    0.2500
   Turn off err/grad.   ShiftErr        ....    0.0010
 Zerner damping         CNVZerner       .... off
 Static damping         CNVDamp         .... on
   Fraction old density DampFac         ....    0.7000
   Max. Damping (<1)    DampMax         ....    0.9800
   Min. Damping (>=0)   DampMin         ....    0.0000
   Turn off err/grad.   DampErr         ....    0.1000
 Fernandez-Rico         CNVRico         .... off

SCF Procedure:
 Maximum # iterations   MaxIter         ....   125
 SCF integral mode      SCFMode         .... Direct
   Integral package                     .... LIBINT
 Reset frequency        DirectResetFreq ....    20
 Integral Threshold     Thresh          ....  2.500e-11 Eh
 Primitive CutOff       TCut            ....  2.500e-12 Eh

Convergence Tolerance:
 Convergence Check Mode ConvCheckMode   .... Total+1el-Energy
 Convergence forced     ConvForced      .... 1
 Energy Change          TolE            ....  1.000e-08 Eh
 1-El. energy change                    ....  1.000e-05 Eh
 Orbital Gradient       TolG            ....  1.000e-05
 Orbital Rotation angle TolX            ....  1.000e-05
 DIIS Error             TolErr          ....  5.000e-07


Diagonalization of the overlap matrix:
Smallest eigenvalue                        ... 1.482e-04
Time for diagonalization                   ...    0.236 sec
Threshold for overlap eigenvalues          ... 1.000e-08
Number of eigenvalues below threshold      ... 0
Time for construction of square roots      ...    0.188 sec
Total time needed                          ...    0.429 sec

-------------------
DFT GRID GENERATION
-------------------

General Integration Accuracy     IntAcc      ...  4.670
Radial Grid Type                 RadialGrid  ... Gauss-Chebyshev
Angular Grid (max. acc.)         AngularGrid ... Lebedev-302
Angular grid pruning method      GridPruning ... 3 (G Style)
Weight generation scheme         WeightScheme... Becke
Basis function cutoff            BFCut       ...    1.0000e-11
Integration weight cutoff        WCut        ...    1.0000e-14
Grids for H and He will be reduced by one unit

# of grid points (after initial pruning)     ... 604474 (   0.0 sec)
# of grid points (after weights+screening)   ... 520778 (   8.8 sec)
nearest neighbour list constructed           ...    0.0 sec
Grid point re-assignment to atoms done       ...    0.1 sec
Grid point division into batches done        ...    1.8 sec
Reduced shell lists constructed in    2.8 sec

Total number of grid points                  ...   520778
Total number of batches                      ...     8194
Average number of points per batch           ...       63
Average number of grid points per atom       ...     4778
Average number of shells per batch           ...    77.06 (13.33%)
Average number of basis functions per batch  ...   167.19 (12.90%)
Average number of large shells per batch     ...    50.31 (65.29%)
Average number of large basis fcns per batch ...   110.12 (65.87%)
Maximum spatial batch extension              ...  18.13, 25.40, 20.46 au
Average spatial batch extension              ...   0.40,  0.40,  0.38 au

Time for grid setup =   12.066 sec

------------------------------
INITIAL GUESS: MODEL POTENTIAL
------------------------------
Loading Hartree-Fock densities                     ... done
Calculating cut-offs                               ... done
Setting up the integral package                    ... done
Initializing the effective Hamiltonian             ... done
Starting the Coulomb interaction                   ... done (   1.5 sec)
Reading the grid                                   ... done
Mapping shells                                     ... done
Starting the XC term evaluation                    ... done (   1.4 sec)
  promolecular density results
     # of electrons  =    553.986293400
     EX              =   -481.237901229
     EC              =    -18.848366005
     EX+EC           =   -500.086267234
Transforming the Hamiltonian                       ... done (   0.1 sec)
Diagonalizing the Hamiltonian                      ... done (   0.2 sec)
Back transforming the eigenvectors                 ... done (   0.1 sec)
Now organizing SCF variables                       ... done
                      ------------------
                      INITIAL GUESS DONE (  15.5 sec)
                      ------------------
--------------------
COSX GRID GENERATION
--------------------

General Integration Accuracy     IntAcc      ...  3.340
Radial Grid Type                 RadialGrid  ... Gauss-Chebyshev
Angular Grid (max. acc.)         AngularGrid ... Lebedev-50
Angular grid pruning method      GridPruning ... 3 (G Style)
Weight generation scheme         WeightScheme... Becke
Basis function cutoff            BFCut       ...    1.0000e-11
Integration weight cutoff        WCut        ...    1.0000e-14
Grids for H and He will be reduced by one unit

# of grid points (after initial pruning)     ...  56418 (   0.0 sec)
# of grid points (after weights+screening)   ...  50681 (   0.8 sec)
nearest neighbour list constructed           ...    0.0 sec
Grid point re-assignment to atoms done       ...    0.0 sec
Grid point division into batches done        ...    0.0 sec
Reduced shell lists constructed in    0.1 sec

Total number of grid points                  ...    50681
Total number of batches                      ...      851
Average number of points per batch           ...       59
Average number of grid points per atom       ...      465
Average number of shells per batch           ...    93.08 (16.10%)
Average number of basis functions per batch  ...   204.10 (15.75%)
Average number of large shells per batch     ...    61.14 (65.69%)
Average number of large basis fcns per batch ...   135.81 (66.54%)
Maximum spatial batch extension              ...  17.67, 20.68, 15.73 au
Average spatial batch extension              ...   0.94,  0.91,  0.88 au

Overlap Fitting                  UseSFitting ... on
Constructing numerical overlap ... done (      0.1 sec)
Inverting numerical overlap    ... done (      0.1 sec)
Obtaining analytic overlap     ... done (      0.0 sec)
Final contraction and storage  ... done (      0.1 sec)


General Integration Accuracy     IntAcc      ...  3.670
Radial Grid Type                 RadialGrid  ... Gauss-Chebyshev
Angular Grid (max. acc.)         AngularGrid ... Lebedev-50
Angular grid pruning method      GridPruning ... 3 (G Style)
Weight generation scheme         WeightScheme... Becke
Basis function cutoff            BFCut       ...    1.0000e-11
Integration weight cutoff        WCut        ...    1.0000e-14
Grids for H and He will be reduced by one unit

# of grid points (after initial pruning)     ...  70194 (   0.0 sec)
# of grid points (after weights+screening)   ...  62767 (   1.0 sec)
nearest neighbour list constructed           ...    0.0 sec
Grid point re-assignment to atoms done       ...    0.0 sec
Grid point division into batches done        ...    0.0 sec
Reduced shell lists constructed in    0.2 sec

Total number of grid points                  ...    62767
Total number of batches                      ...     1032
Average number of points per batch           ...       60
Average number of grid points per atom       ...      576
Average number of shells per batch           ...    91.64 (15.85%)
Average number of basis functions per batch  ...   200.68 (15.48%)
Average number of large shells per batch     ...    60.18 (65.67%)
Average number of large basis fcns per batch ...   133.35 (66.45%)
Maximum spatial batch extension              ...  18.67, 22.63, 17.92 au
Average spatial batch extension              ...   0.85,  0.81,  0.80 au

Overlap Fitting                  UseSFitting ... on
Constructing numerical overlap ... done (      0.1 sec)
Inverting numerical overlap    ... done (      0.1 sec)
Obtaining analytic overlap     ... done (      0.0 sec)
Final contraction and storage  ... done (      0.1 sec)


General Integration Accuracy     IntAcc      ...  4.010
Radial Grid Type                 RadialGrid  ... Gauss-Chebyshev
Angular Grid (max. acc.)         AngularGrid ... Lebedev-110
Angular grid pruning method      GridPruning ... 3 (G Style)
Weight generation scheme         WeightScheme... Becke
Basis function cutoff            BFCut       ...    1.0000e-11
Integration weight cutoff        WCut        ...    1.0000e-14
Grids for H and He will be reduced by one unit

# of grid points (after initial pruning)     ... 139192 (   0.0 sec)
# of grid points (after weights+screening)   ... 123460 (   2.1 sec)
nearest neighbour list constructed           ...    0.0 sec
Grid point re-assignment to atoms done       ...    0.0 sec
Grid point division into batches done        ...    0.1 sec
Reduced shell lists constructed in    0.4 sec

Total number of grid points                  ...   123460
Total number of batches                      ...     1984
Average number of points per batch           ...       62
Average number of grid points per atom       ...     1133
Average number of shells per batch           ...    86.52 (14.97%)
Average number of basis functions per batch  ...   189.31 (14.61%)
Average number of large shells per batch     ...    57.34 (66.27%)
Average number of large basis fcns per batch ...   126.63 (66.89%)
Maximum spatial batch extension              ...  24.54, 20.49, 19.30 au
Average spatial batch extension              ...   0.70,  0.69,  0.64 au

Overlap Fitting                  UseSFitting ... on
Constructing numerical overlap ... done (      0.2 sec)
Inverting numerical overlap    ... done (      0.1 sec)
Obtaining analytic overlap     ... done (      0.0 sec)
Final contraction and storage  ... done (      0.1 sec)

Time for X-Grid setup             =    5.692 sec
--------------
SCF ITERATIONS
--------------
ITER       Energy         Delta-E        Max-DP      RMS-DP      [F,P]     Damp
               ***  Starting incremental Fock matrix formation  ***
  0  -3880.6257783341   0.000000000000 0.15229371  0.00112703  0.2219728 0.7000
  1  -3881.3217110359  -0.695932701828 0.10871231  0.00078389  0.0914355 0.7000
                               ***Turning on DIIS***
  2  -3881.5933797087  -0.271668672767 0.13054110  0.00134467  0.0343522 0.0000
  3  -3882.0839173357  -0.490537627060 0.08346670  0.00055751  0.0494275 0.0000
  4  -3882.1540180412  -0.070100705469 0.01504104  0.00015769  0.0241360 0.0000
  5  -3882.1634765452  -0.009458503971 0.01098447  0.00005458  0.0038680 0.0000
                      *** Initiating the SOSCF procedure ***
                           *** Shutting down DIIS ***
                      *** Re-Reading the Fockian *** 
                      *** Removing any level shift *** 
ITER      Energy       Delta-E        Grad      Rot      Max-DP    RMS-DP
  6  -3882.16417815  -0.0007016034  0.001860  0.001860  0.002722  0.000027
               *** Restarting incremental Fock matrix formation ***
  7  -3882.16443371  -0.0002555580  0.001323  0.008841  0.001585  0.000026
  8  -3882.16459071  -0.0001569989  0.000616  0.008191  0.002086  0.000030
  9  -3882.16459382  -0.0000031128  0.000960  0.003424  0.001463  0.000013
 10  -3882.16463856  -0.0000447462  0.000164  0.000830  0.000473  0.000006
 11  -3882.16463782   0.0000007406  0.000118  0.000580  0.000297  0.000003
 12  -3882.16464113  -0.0000033021  0.000015  0.000081  0.000128  0.000001
 13  -3882.16464100   0.0000001253  0.000018  0.000054  0.000066  0.000001
 14  -3882.16464122  -0.0000002145  0.000004  0.000026  0.000027  0.000000
 15  -3882.16464125  -0.0000000325  0.000007  0.000012  0.000016  0.000000
                  ***Gradient check signals convergence***
              ***Rediagonalizing the Fockian in SOSCF/NRSCF***

               *****************************************************
               *                     SUCCESS                       *
               *           SCF CONVERGED AFTER  16 CYCLES          *
               *****************************************************

Setting up the final grid:

General Integration Accuracy     IntAcc      ...  5.010
Radial Grid Type                 RadialGrid  ... Gauss-Chebyshev
Angular Grid (max. acc.)         AngularGrid ... Lebedev-434
Angular grid pruning method      GridPruning ... 3 (G Style)
Weight generation scheme         WeightScheme... Becke
Basis function cutoff            BFCut       ...    1.0000e-11
Integration weight cutoff        WCut        ...    1.0000e-14
Grids for H and He will be reduced by one unit

# of grid points (after initial pruning)     ... 1062248 (   0.1 sec)
# of grid points (after weights+screening)   ... 911876 (  15.1 sec)
nearest neighbour list constructed           ...    0.0 sec
Grid point re-assignment to atoms done       ...    0.1 sec
Grid point division into batches done        ...    6.0 sec
Reduced shell lists constructed in    7.6 sec

Total number of grid points                  ...   911876
Total number of batches                      ...    14306
Average number of points per batch           ...       63
Average number of grid points per atom       ...     8366
Average number of shells per batch           ...    74.31 (12.86%)
Average number of basis functions per batch  ...   160.71 (12.40%)
Average number of large shells per batch     ...    48.41 (65.14%)
Average number of large basis fcns per batch ...   105.74 (65.80%)
Maximum spatial batch extension              ...  19.53, 18.86, 18.07 au
Average spatial batch extension              ...   0.33,  0.32,  0.32 au

Final grid set up in   23.3 sec
Final integration                            ... done (   3.1 sec)
Change in XC energy                          ...     0.000002727
Integrated number of electrons               ...   553.999998305
Previous integrated no of electrons          ...   553.999567536
Old exchange energy                            =   -136.170519232 Eh
New exchange energy                            =   -136.167545593 Eh
Exchange energy change after final integration =      0.002973639 Eh
Total energy after final integration           =  -3882.161664878 Eh
Final COS-X integration done in                =    70.004 sec

----------------
TOTAL SCF ENERGY
----------------

Total Energy       :        -3882.16166488 Eh         -105638.98948 eV

Components:
Nuclear Repulsion  :        10801.61050557 Eh          293926.76480 eV
Electronic Energy  :       -14683.77217045 Eh         -399565.75429 eV
One Electron Energy:       -26779.08838131 Eh         -728696.04105 eV
Two Electron Energy:        12095.31621086 Eh          329130.28676 eV

Virial components:
Potential Energy   :        -7731.48721320 Eh         -210384.46281 eV
Kinetic Energy     :         3849.32554832 Eh          104745.47333 eV
Virial Ratio       :            2.00853036


DFT components:
N(Alpha)           :      276.999999152495 electrons
N(Beta)            :      276.999999152495 electrons
N(Total)           :      553.999998304991 electrons
E(XC)              :     -372.558550555384 Eh       
DFET-embed. en.    :        0.000000000000 Eh       

---------------
SCF CONVERGENCE
---------------

  Last Energy change         ...    2.9704e-09  Tolerance :   1.0000e-08
  Last MAX-Density change    ...    9.3259e-15  Tolerance :   1.0000e-07
  Last RMS-Density change    ...    3.5031e-17  Tolerance :   5.0000e-09
  Last Orbital Gradient      ...    1.5874e-06  Tolerance :   1.0000e-05
  Last Orbital Rotation      ...    6.6037e-06  Tolerance :   1.0000e-05

             **** THE GBW FILE WAS UPDATED (xtbopt.gbw) ****
             **** DENSITY FILE WAS UPDATED (xtbopt.scfp) ****
             **** ENERGY FILE WAS UPDATED (xtbopt.en.tmp) ****
             **** THE GBW FILE WAS UPDATED (xtbopt.gbw) ****
             **** DENSITY FILE WAS UPDATED (xtbopt.scfp) ****
----------------
ORBITAL ENERGIES
----------------

  NO   OCC          E(Eh)            E(eV) 
   0   2.0000     -89.000526     -2421.8274 
   1   2.0000     -19.240434      -523.5588 
   2   2.0000     -19.239219      -523.5258 
   3   2.0000     -19.233809      -523.3786 
   4   2.0000     -19.233415      -523.3678 
   5   2.0000     -14.474891      -393.8818 
   6   2.0000     -14.474201      -393.8630 
   7   2.0000     -14.452210      -393.2646 
   8   2.0000     -14.452061      -393.2606 
   9   2.0000     -14.437771      -392.8717 
  10   2.0000     -14.435019      -392.7968 
  11   2.0000     -14.431979      -392.7141 
  12   2.0000     -14.430958      -392.6863 
  13   2.0000     -14.430482      -392.6734 
  14   2.0000     -14.430364      -392.6702 
  15   2.0000     -14.429489      -392.6464 
  16   2.0000     -14.427910      -392.6034 
  17   2.0000     -10.392024      -282.7814 
  18   2.0000     -10.390520      -282.7404 
  19   2.0000     -10.382401      -282.5195 
  20   2.0000     -10.382022      -282.5092 
  21   2.0000     -10.367078      -282.1025 
  22   2.0000     -10.364676      -282.0372 
  23   2.0000     -10.363586      -282.0075 
  24   2.0000     -10.362932      -281.9897 
  25   2.0000     -10.362885      -281.9884 
  26   2.0000     -10.362390      -281.9750 
  27   2.0000     -10.360555      -281.9250 
  28   2.0000     -10.360190      -281.9151 
  29   2.0000     -10.345674      -281.5201 
  30   2.0000     -10.345049      -281.5031 
  31   2.0000     -10.343625      -281.4643 
  32   2.0000     -10.340385      -281.3762 
  33   2.0000     -10.340149      -281.3697 
  34   2.0000     -10.337528      -281.2984 
  35   2.0000     -10.337385      -281.2945 
  36   2.0000     -10.337125      -281.2875 
  37   2.0000     -10.336732      -281.2768 
  38   2.0000     -10.336106      -281.2598 
  39   2.0000     -10.335003      -281.2297 
  40   2.0000     -10.334583      -281.2183 
  41   2.0000     -10.334454      -281.2148 
  42   2.0000     -10.334266      -281.2097 
  43   2.0000     -10.334218      -281.2084 
  44   2.0000     -10.333957      -281.2013 
  45   2.0000     -10.333868      -281.1988 
  46   2.0000     -10.333455      -281.1876 
  47   2.0000     -10.333406      -281.1863 
  48   2.0000     -10.331289      -281.1287 
  49   2.0000     -10.329212      -281.0721 
  50   2.0000     -10.328665      -281.0573 
  51   2.0000     -10.328598      -281.0554 
  52   2.0000     -10.327835      -281.0347 
  53   2.0000     -10.327531      -281.0264 
  54   2.0000     -10.327505      -281.0257 
  55   2.0000     -10.326754      -281.0053 
  56   2.0000     -10.325972      -280.9840 
  57   2.0000     -10.324764      -280.9511 
  58   2.0000     -10.324264      -280.9375 
  59   2.0000     -10.316784      -280.7340 
  60   2.0000     -10.315472      -280.6983 
  61   2.0000     -10.314984      -280.6850 
  62   2.0000     -10.314773      -280.6793 
  63   2.0000     -10.309224      -280.5282 
  64   2.0000     -10.306758      -280.4611 
  65   2.0000     -10.306442      -280.4525 
  66   2.0000     -10.306215      -280.4464 
  67   2.0000     -10.302551      -280.3467 
  68   2.0000     -10.300237      -280.2837 
  69   2.0000     -10.296916      -280.1933 
  70   2.0000     -10.294021      -280.1145 
  71   2.0000     -10.293432      -280.0985 
  72   2.0000     -10.293324      -280.0956 
  73   2.0000     -10.292557      -280.0747 
  74   2.0000     -10.290737      -280.0252 
  75   2.0000     -10.289282      -279.9856 
  76   2.0000     -10.287955      -279.9495 
  77   2.0000     -10.287520      -279.9377 
  78   2.0000     -10.286293      -279.9043 
  79   2.0000     -10.285300      -279.8772 
  80   2.0000     -10.280581      -279.7488 
  81   2.0000     -10.273160      -279.5469 
  82   2.0000     -10.271679      -279.5066 
  83   2.0000      -8.094729      -220.2688 
  84   2.0000      -6.063439      -164.9946 
  85   2.0000      -6.059560      -164.8890 
  86   2.0000      -6.058032      -164.8474 
  87   2.0000      -1.156070       -31.4583 
  88   2.0000      -1.154730       -31.4218 
  89   2.0000      -1.150200       -31.2985 
  90   2.0000      -1.145900       -31.1815 
  91   2.0000      -1.106063       -30.0975 
  92   2.0000      -1.105356       -30.0783 
  93   2.0000      -1.103589       -30.0302 
  94   2.0000      -1.046008       -28.4633 
  95   2.0000      -1.044380       -28.4190 
  96   2.0000      -1.031408       -28.0661 
  97   2.0000      -1.030656       -28.0456 
  98   2.0000      -1.030186       -28.0328 
  99   2.0000      -1.014021       -27.5929 
 100   2.0000      -1.013992       -27.5921 
 101   2.0000      -1.012102       -27.5407 
 102   2.0000      -1.011445       -27.5228 
 103   2.0000      -1.010435       -27.4953 
 104   2.0000      -1.009898       -27.4807 
 105   2.0000      -1.007872       -27.4256 
 106   2.0000      -0.984119       -26.7792 
 107   2.0000      -0.982195       -26.7269 
 108   2.0000      -0.971215       -26.4281 
 109   2.0000      -0.970523       -26.4093 
 110   2.0000      -0.968645       -26.3582 
 111   2.0000      -0.959707       -26.1149 
 112   2.0000      -0.944573       -25.7032 
 113   2.0000      -0.928973       -25.2786 
 114   2.0000      -0.927896       -25.2493 
 115   2.0000      -0.927319       -25.2336 
 116   2.0000      -0.922456       -25.1013 
 117   2.0000      -0.907847       -24.7038 
 118   2.0000      -0.905895       -24.6507 
 119   2.0000      -0.901665       -24.5355 
 120   2.0000      -0.893099       -24.3025 
 121   2.0000      -0.878897       -23.9160 
 122   2.0000      -0.872321       -23.7371 
 123   2.0000      -0.864464       -23.5233 
 124   2.0000      -0.863327       -23.4923 
 125   2.0000      -0.859223       -23.3807 
 126   2.0000      -0.858389       -23.3579 
 127   2.0000      -0.849098       -23.1051 
 128   2.0000      -0.836395       -22.7595 
 129   2.0000      -0.816571       -22.2200 
 130   2.0000      -0.812565       -22.1110 
 131   2.0000      -0.810758       -22.0619 
 132   2.0000      -0.808365       -21.9967 
 133   2.0000      -0.801153       -21.8005 
 134   2.0000      -0.799270       -21.7492 
 135   2.0000      -0.791683       -21.5428 
 136   2.0000      -0.787857       -21.4387 
 137   2.0000      -0.763166       -20.7668 
 138   2.0000      -0.757663       -20.6171 
 139   2.0000      -0.755586       -20.5605 
 140   2.0000      -0.751309       -20.4442 
 141   2.0000      -0.734566       -19.9885 
 142   2.0000      -0.726613       -19.7722 
 143   2.0000      -0.722078       -19.6487 
 144   2.0000      -0.718576       -19.5535 
 145   2.0000      -0.717649       -19.5282 
 146   2.0000      -0.711861       -19.3707 
 147   2.0000      -0.709350       -19.3024 
 148   2.0000      -0.700121       -19.0513 
 149   2.0000      -0.692260       -18.8373 
 150   2.0000      -0.688847       -18.7445 
 151   2.0000      -0.686035       -18.6680 
 152   2.0000      -0.683234       -18.5917 
 153   2.0000      -0.680360       -18.5136 
 154   2.0000      -0.677037       -18.4231 
 155   2.0000      -0.671210       -18.2645 
 156   2.0000      -0.660825       -17.9820 
 157   2.0000      -0.660107       -17.9624 
 158   2.0000      -0.653760       -17.7897 
 159   2.0000      -0.647790       -17.6273 
 160   2.0000      -0.634365       -17.2620 
 161   2.0000      -0.630723       -17.1629 
 162   2.0000      -0.622564       -16.9408 
 163   2.0000      -0.620200       -16.8765 
 164   2.0000      -0.616850       -16.7854 
 165   2.0000      -0.616158       -16.7665 
 166   2.0000      -0.608876       -16.5684 
 167   2.0000      -0.603776       -16.4296 
 168   2.0000      -0.603174       -16.4132 
 169   2.0000      -0.598704       -16.2916 
 170   2.0000      -0.594409       -16.1747 
 171   2.0000      -0.587167       -15.9776 
 172   2.0000      -0.582377       -15.8473 
 173   2.0000      -0.579011       -15.7557 
 174   2.0000      -0.578403       -15.7392 
 175   2.0000      -0.572807       -15.5869 
 176   2.0000      -0.571464       -15.5503 
 177   2.0000      -0.570908       -15.5352 
 178   2.0000      -0.570185       -15.5155 
 179   2.0000      -0.569956       -15.5093 
 180   2.0000      -0.565793       -15.3960 
 181   2.0000      -0.564507       -15.3610 
 182   2.0000      -0.563932       -15.3454 
 183   2.0000      -0.561713       -15.2850 
 184   2.0000      -0.560335       -15.2475 
 185   2.0000      -0.554131       -15.0787 
 186   2.0000      -0.547983       -14.9114 
 187   2.0000      -0.546488       -14.8707 
 188   2.0000      -0.545323       -14.8390 
 189   2.0000      -0.543162       -14.7802 
 190   2.0000      -0.540407       -14.7052 
 191   2.0000      -0.538193       -14.6450 
 192   2.0000      -0.536845       -14.6083 
 193   2.0000      -0.535782       -14.5794 
 194   2.0000      -0.534253       -14.5378 
 195   2.0000      -0.532986       -14.5033 
 196   2.0000      -0.530321       -14.4308 
 197   2.0000      -0.526285       -14.3209 
 198   2.0000      -0.525985       -14.3128 
 199   2.0000      -0.525198       -14.2914 
 200   2.0000      -0.519570       -14.1382 
[...]
  40   4.428     280.0   0.020542   0.018021  -338.141864  -317.966847     0.20 ( 106-> 114)    0.15 ( 102-> 110)    0.05 ( 101-> 107)
  41   4.442     279.1   0.001153   0.001113  -17.801512  -17.103028     0.31 ( 104-> 111)    0.26 ( 104-> 112)    0.17 ( 104-> 110)
  42   4.482     276.6   0.143810   0.125642  74.998037  84.119031     0.31 ( 106-> 114)    0.10 (  99-> 108)    0.07 ( 102-> 110)
  43   4.505     275.2   0.089115   0.077301  86.646278  61.572469     0.32 (  90-> 109)    0.25 (  90-> 107)    0.16 (  90-> 112)
  44   4.511     274.9   0.631115   0.538429  247.834937  240.383463     0.12 ( 102-> 109)    0.10 ( 103-> 108)    0.08 (  99-> 109)
  45   4.544     272.8   0.218588   0.178701  -543.918752  -492.535827     0.16 ( 102-> 111)    0.10 ( 102-> 110)    0.06 (  99-> 108)
  46   4.557     272.1   0.000472   0.000610  19.940731  17.127949     0.28 ( 105-> 113)    0.13 ( 105-> 114)    0.05 ( 106-> 114)
  47   4.601     269.4   0.017869   0.014308  -2.319493  -2.256290     0.29 ( 104-> 113)    0.12 ( 104-> 114)    0.05 (  97-> 109)
  48   4.629     267.8   0.131695   0.101036  17.441224  15.653615     0.27 (  96-> 110)    0.20 (  96-> 111)    0.11 (  98-> 110)
  49   4.646     266.8   0.478991   0.402960  -180.642082  -165.711501     0.17 (  98-> 109)    0.14 ( 102-> 110)    0.08 (  96-> 107)
  50   4.707     263.4   0.075725   0.055126  20.916404  20.458061     0.09 (  91-> 107)    0.06 ( 102-> 112)    0.05 ( 101-> 109)
  51   4.758     260.6   0.016206   0.013512  -150.999196  -141.078642     0.09 (  89-> 108)    0.06 (  97-> 109)    0.06 ( 101-> 109)
  52   4.778     259.5   0.168418   0.135493  138.398079  126.576006     0.11 (  97-> 109)    0.08 ( 102-> 111)    0.07 (  88-> 108)
  53   4.822     257.1   0.031395   0.028102  -86.059302  -83.053493     0.11 ( 102-> 111)    0.09 ( 101-> 107)    0.06 (  88-> 108)
  54   4.867     254.7   0.069302   0.049829  70.552580  60.146217     0.16 ( 106-> 115)    0.10 ( 102-> 112)    0.06 ( 103-> 114)
  55   4.877     254.2   0.015507   0.008880   8.283933   9.911954     0.13 (  97-> 109)    0.08 (  98-> 109)    0.07 ( 102-> 112)
  56   4.905     252.8   0.013133   0.009954   5.050011   5.271866     0.57 ( 100-> 107)    0.15 ( 100-> 112)    0.11 ( 100-> 113)
  57   4.917     252.1   0.233282   0.179664  336.666070  292.570438     0.18 ( 106-> 115)    0.06 (  94-> 108)    0.05 ( 102-> 112)
  58   4.965     249.7   0.030689   0.023691  -360.591821  -319.158534     0.09 (  89-> 107)    0.09 (  96-> 107)    0.08 ( 102-> 111)
  59   4.988     248.6   0.002251   0.001844  -5.169230  -4.602290     0.37 (  84-> 109)    0.32 (  84-> 107)    0.17 (  84-> 112)

-----------------------------------------------------------------------------
         ABSORPTION SPECTRUM VIA TRANSITION ELECTRIC DIPOLE MOMENTS
-----------------------------------------------------------------------------
State   Energy  Wavelength   fosc         T2         TX        TY        TZ  
        (cm-1)    (nm)                  (au**2)     (au)      (au)      (au) 
-----------------------------------------------------------------------------
   0   15815.5    632.3   1.356915604  28.24524  -2.94506   0.26719  -4.41593
   1   19081.0    524.1   0.327397191   5.64871   1.45738   1.58112  -1.01233
   2   19889.7    502.8   0.311478227   5.15555  -1.41806  -1.15817  -1.34286
   3   20878.8    479.0   0.218256508   3.44141  -1.35827  -0.42699  -1.18919
   4   21434.2    466.5   0.025688863   0.39456  -0.51845  -0.16812  -0.31227
   5   21642.8    462.0   0.052719238   0.80192  -0.52725  -0.71205   0.13003
   6   23919.4    418.1   0.299377378   4.12044   0.92693  -0.42510   1.75514
   7   23958.3    417.4   0.161663956   2.22143   0.82030  -0.26473   1.21592
   8   24445.9    409.1   0.157269572   2.11795   0.37704   1.03220  -0.95412
   9   24682.3    405.1   0.003433646   0.04580   0.04382  -0.20430  -0.04626
  10   24851.6    402.4   0.001790519   0.02372   0.13536   0.00177   0.07344
  11   25654.4    389.8   0.168468371   2.16188   1.08396   0.98336  -0.14109
  12   25990.8    384.8   0.000045558   0.00058   0.00258   0.00793  -0.02253
  13   26688.0    374.7   0.000644238   0.00795  -0.04922   0.06626   0.03367
  14   27151.2    368.3   0.206676220   2.50597   0.70872   1.05088   0.94834
  15   27540.5    363.1   0.009298637   0.11115  -0.12434  -0.30934   0.00014
  16   27868.8    358.8   0.006512542   0.07693  -0.08954  -0.11170   0.23757
  17   28516.7    350.7   0.009437712   0.10895  -0.26464   0.18508  -0.06829
  18   28880.7    346.3   0.008099302   0.09232   0.08905  -0.15942   0.24286
  19   29188.8    342.6   0.006280322   0.07083  -0.19074  -0.17864  -0.05039
  20   30237.4    330.7   0.020606556   0.22436   0.04371  -0.23229   0.41047
  21   30578.9    327.0   0.005664424   0.06098  -0.01776  -0.22091   0.10894
  22   30672.5    326.0   0.020142333   0.21619   0.11974  -0.27222   0.35742
  23   31070.8    321.8   0.000134253   0.00142  -0.00488   0.03725  -0.00334
  24   31240.1    320.1   0.092858163   0.97855   0.47340  -0.46346   0.73461
  25   31343.9    319.0   0.122321579   1.28477  -0.40245   0.93088  -0.50623
  26   31368.9    318.8   0.008381325   0.08796   0.13337  -0.13939   0.22527
  27   31611.2    316.3   0.050964035   0.53076  -0.33454   0.14792  -0.63005
  28   31629.2    316.2   0.218192880   2.27105   0.76838  -0.13789   1.28904
  29   31894.1    313.5   0.002555545   0.02638   0.10834  -0.02837   0.11763
  30   32259.7    310.0   0.087813873   0.89615  -0.45520   0.41492  -0.71888
  31   32974.1    303.3   0.716436231   7.15287  -1.02949   1.02685  -2.24468
  32   33246.9    300.8   0.044627202   0.44190  -0.27557   0.36873  -0.47958
  33   33667.8    297.0   0.191733457   1.87482   0.67140  -0.79293   0.89179
  34   34530.9    289.6   0.021051115   0.20070   0.11912   0.12217  -0.41422
  35   34698.0    288.2   0.023602286   0.22394  -0.43362   0.04250  -0.18467
  36   34767.6    287.6   0.000619113   0.00586  -0.07049   0.00127  -0.02986
  37   34982.2    285.9   0.070178405   0.66044   0.09809  -0.80420   0.06392
  38   35041.7    285.4   0.277753500   2.60946  -0.22521   1.31541  -0.91019
  39   35458.8    282.0   0.001439880   0.01337   0.06061   0.09327  -0.03156
  40   35715.4    280.0   0.020542462   0.18935  -0.21931  -0.01179   0.37565
  41   35827.1    279.1   0.001153286   0.01060  -0.09942  -0.01243   0.02362
  42   36153.3    276.6   0.143810252   1.30954  -0.07673   1.05451  -0.43780
  43   36337.1    275.2   0.089114883   0.80738  -0.36586   0.44503  -0.68955
  44   36380.8    274.9   0.631115388   5.71100   1.08707  -1.09831   1.82291
  45   36650.6    272.8   0.218588431   1.96346  -0.57249  -0.94495   0.86185
  46   36752.7    272.1   0.000472284   0.00423   0.02125  -0.06126  -0.00517
  47   37113.5    269.4   0.017869169   0.15851  -0.23761   0.08092  -0.30903
  48   37339.1    267.8   0.131695202   1.16113  -0.56905   0.15962  -0.90102
  49   37474.5    266.8   0.478990824   4.20792  -1.37338  -1.49644   0.28706
  50   37964.3    263.4   0.075724964   0.65666   0.27818   0.70045  -0.29773
  51   38375.2    260.6   0.016206379   0.13903   0.24028  -0.04006  -0.28230
  52   38537.8    259.5   0.168418147   1.43873  -0.52879  -1.00267   0.39213
  53   38891.0    257.1   0.031395281   0.26576  -0.44624  -0.20746  -0.15358
  54   39255.5    254.7   0.069301826   0.58119   0.52154   0.55391   0.04870
  55   39333.5    254.2   0.015507008   0.12979   0.01914  -0.18080   0.31102
  56   39561.2    252.8   0.013133436   0.10929   0.12600   0.25450  -0.16925
  57   39662.1    252.1   0.233282382   1.93634   0.35512   1.26325  -0.46308
  58   40046.3    249.7   0.030688595   0.25228  -0.47283  -0.14055   0.09465
  59   40232.1    248.6   0.002250707   0.01842  -0.00484  -0.01747  -0.13449

-----------------------------------------------------------------------------
         ABSORPTION SPECTRUM VIA TRANSITION VELOCITY DIPOLE MOMENTS
-----------------------------------------------------------------------------
State   Energy  Wavelength   fosc         P2         PX        PY        PZ  
        (cm-1)    (nm)                  (au**2)     (au)      (au)      (au) 
-----------------------------------------------------------------------------
   0   15815.5    632.3   1.637672012   0.17702  -0.23301   0.02176  -0.34964
   1   19081.0    524.1   0.366277072   0.04777   0.13539   0.14515  -0.09148
   2   19889.7    502.8   0.332561152   0.04521  -0.13295  -0.11566  -0.11897
   3   20878.8    479.0   0.211609372   0.03020  -0.12738  -0.04188  -0.11053
   4   21434.2    466.5   0.022055163   0.00323  -0.04553  -0.01370  -0.03114
   5   21642.8    462.0   0.046921451   0.00694  -0.05010  -0.06579   0.01013
   6   23919.4    418.1   0.286935273   0.04691   0.09979  -0.04453   0.18699
   7   23958.3    417.4   0.148049532   0.02424   0.08352  -0.03181   0.12749
   8   24445.9    409.1   0.149535694   0.02498   0.04289   0.11251  -0.10240
   9   24682.3    405.1   0.004274827   0.00072   0.00848  -0.02414  -0.00813
  10   24851.6    402.4   0.001762360   0.00030   0.01458  -0.00288   0.00886
  11   25654.4    389.8   0.176055423   0.03087   0.12952   0.11752  -0.01680
  12   25990.8    384.8   0.000052916   0.00001   0.00039   0.00079  -0.00294
  13   26688.0    374.7   0.000917748   0.00017  -0.00746   0.00956   0.00451
  14   27151.2    368.3   0.210238786   0.03901   0.08965   0.13067   0.11790
  15   27540.5    363.1   0.008162149   0.00154  -0.01419  -0.03654  -0.00048
  16   27868.8    358.8   0.005600489   0.00107  -0.00943  -0.01233   0.02873
  17   28516.7    350.7   0.008683097   0.00169  -0.03090   0.02560  -0.00909
  18   28880.7    346.3   0.007258256   0.00143   0.01203  -0.01901   0.03044
  19   29188.8    342.6   0.005354139   0.00107  -0.02331  -0.02211  -0.00599
  20   30237.4    330.7   0.016703503   0.00345   0.00542  -0.02731   0.05174
  21   30578.9    327.0   0.005945972   0.00124  -0.00429  -0.03173   0.01474
  22   30672.5    326.0   0.018551903   0.00389   0.01605  -0.03762   0.04708
  23   31070.8    321.8   0.000133547   0.00003  -0.00090   0.00514  -0.00105
  24   31240.1    320.1   0.084443382   0.01803   0.06221  -0.06622   0.09886
  25   31343.9    319.0   0.119043932   0.02550  -0.05454   0.13201  -0.07141
  26   31368.9    318.8   0.007131447   0.00153   0.01686  -0.01877   0.02987
  27   31611.2    316.3   0.043948701   0.00949  -0.04454   0.01991  -0.08435
  28   31629.2    316.2   0.188493769   0.04075   0.10315  -0.01711   0.17267
  29   31894.1    313.5   0.002234612   0.00049   0.01502  -0.00361   0.01577
  30   32259.7    310.0   0.079466928   0.01752  -0.06265   0.05952  -0.10027
  31   32974.1    303.3   0.651535635   0.14683  -0.14605   0.14949  -0.32117
  32   33246.9    300.8   0.040544332   0.00921  -0.04000   0.05253  -0.06967
  33   33667.8    297.0   0.168658513   0.03881   0.09699  -0.11451   0.12762
  34   34530.9    289.6   0.019101209   0.00451   0.01779   0.01939  -0.06177
  35   34698.0    288.2   0.019669805   0.00466  -0.06244   0.00549  -0.02712
  36   34767.6    287.6   0.000479400   0.00011  -0.00959  -0.00032  -0.00467
  37   34982.2    285.9   0.064084738   0.01532   0.01688  -0.12183   0.01392
  38   35041.7    285.4   0.242846227   0.05816  -0.03361   0.19647  -0.13575
  39   35458.8    282.0   0.001187357   0.00029   0.00896   0.01367  -0.00453
  40   35715.4    280.0   0.018020916   0.00440  -0.03508  -0.00476   0.05609
  41   35827.1    279.1   0.001112817   0.00027  -0.01584  -0.00287   0.00367
  42   36153.3    276.6   0.125641690   0.03104  -0.00865   0.16284  -0.06673
  43   36337.1    275.2   0.077301446   0.01920  -0.06049   0.07038  -0.10288
  44   36380.8    274.9   0.538428591   0.13388   0.16715  -0.16515   0.28047
  45   36650.6    272.8   0.178700861   0.04476  -0.08478  -0.14176   0.13221
  46   36752.7    272.1   0.000609631   0.00015   0.00025  -0.01230  -0.00132
  47   37113.5    269.4   0.014307829   0.00363  -0.03508   0.01375  -0.04701
  48   37339.1    267.8   0.101036311   0.02578  -0.08441   0.02420  -0.13443
  49   37474.5    266.8   0.402959624   0.10321  -0.21566  -0.23393   0.04440
  50   37964.3    263.4   0.055125705   0.01430   0.04008   0.10370  -0.04408
  51   38375.2    260.6   0.013512424   0.00354   0.03656  -0.00271  -0.04691
  52   38537.8    259.5   0.135493018   0.03569  -0.08352  -0.15767   0.06205
  53   38891.0    257.1   0.028102041   0.00747  -0.07484  -0.03567  -0.02441
  54   39255.5    254.7   0.049829430   0.01337   0.07780   0.08524   0.00705
  55   39333.5    254.2   0.008880413   0.00239   0.00320  -0.02247   0.04327
  56   39561.2    252.8   0.009954481   0.00269   0.02255   0.03847  -0.02652
  57   39662.1    252.1   0.179664463   0.04870   0.05971   0.20061  -0.06994
  58   40046.3    249.7   0.023690933   0.00648  -0.07520  -0.02337   0.01682
  59   40232.1    248.6   0.001843640   0.00051  -0.00077  -0.00272  -0.02234

-------------------------------------------------------------------
                             CD SPECTRUM
-------------------------------------------------------------------
State   Energy Wavelength       R         MX        MY        MZ   
        (cm-1)   (nm)       (1e40*cgs)   (au)      (au)      (au)  
-------------------------------------------------------------------
   0   15815.5    632.3    374.59282  -6.74849   6.86091   5.27568
   1   19081.0    524.1    -633.78044   0.24359   1.04464  -0.67367
   2   19889.7    502.8    385.21786  -1.71645   2.59714   0.78958
   3   20878.8    479.0    -136.50160  -3.36257   2.51390   2.45107
   4   21434.2    466.5     -4.17756  -0.26301   0.22057   0.26115
   5   21642.8    462.0    -13.39444  -0.64442   0.47018   0.39876
   6   23919.4    418.1      1.52262   3.15294  -3.12528  -2.42577
   7   23958.3    417.4     15.71269   1.78218  -1.67931  -1.62275
   8   24445.9    409.1    -27.88940  -1.72005   1.91069   1.26334
   9   24682.3    405.1      0.71019  -0.16688   0.07035  -0.40362
  10   24851.6    402.4     -5.10685   0.41545  -0.41417  -0.46075
  11   25654.4    389.8    -316.33872   1.47139  -0.44335  -1.29743
  12   25990.8    384.8     -0.53765   0.00837   0.17160  -0.03990
  13   26688.0    374.7      1.67740   0.56918  -0.17536   0.96581
  14   27151.2    368.3    458.34800   1.35958  -2.84566   0.08694
  15   27540.5    363.1     15.66430   0.26178   0.10942  -0.38117
  16   27868.8    358.8     29.63518   1.13427  -0.95203  -0.54931
  17   28516.7    350.7    -151.41786  -2.39846   0.83275   2.14534
  18   28880.7    346.3     -1.25139   0.79088  -0.65463  -0.69785
  19   29188.8    342.6      5.00360  -0.08574   0.18940   0.07435
  20   30237.4    330.7    -12.96559   0.18594  -0.23003  -0.01597
  21   30578.9    327.0    -13.07158   0.01370  -0.38218  -0.26371
  22   30672.5    326.0     19.09264   0.70586  -0.27977  -0.67617
  23   31070.8    321.8      1.20225  -0.31516  -0.15669   0.24070
  24   31240.1    320.1     -1.14290   1.65459  -1.28260  -1.86884
  25   31343.9    319.0     69.76098  -2.86879   0.17355   3.18440
  26   31368.9    318.8     -4.76044   0.88195  -0.33033  -0.63690
  27   31611.2    316.3      3.70767  -1.55497   1.59097   1.22415
  28   31629.2    316.2     48.05202   3.28543  -3.51358  -2.49237
  29   31894.1    313.5     -1.01963   0.33209  -0.25556  -0.33072
  30   32259.7    310.0    -28.19034  -2.44275   1.75521   2.39347
  31   32974.1    303.3     32.49735  -3.45135   3.46760   3.23061
  32   33246.9    300.8    -62.93860  -2.53701   1.95684   2.40555
  33   33667.8    297.0     -0.83720   3.53286  -1.13993  -3.66935
  34   34530.9    289.6    -259.43774   2.39139  -0.68748  -2.17209
  35   34698.0    288.2    -68.02672  -1.19749   0.31523   1.32168
  36   34767.6    287.6     -4.86878  -0.43175   0.10490   0.33196
  37   34982.2    285.9    382.97155  -0.18371   1.91607  -1.02870
  38   35041.7    285.4    411.57681  -1.99303   0.14941   2.62739
  39   35458.8    282.0      2.89838  -0.47862   0.29497   0.34216
  40   35715.4    280.0    -338.14186  -2.42731   0.11027   2.40502
  41   35827.1    279.1    -17.80151  -0.63413   0.14545   0.60452
  42   36153.3    276.6     74.99804  -4.15262   1.11541   4.14119
  43   36337.1    275.2     86.64628  -1.49192   0.69926   1.77595
  44   36380.8    274.9    247.83494   3.79868  -1.78675  -3.91860
  45   36650.6    272.8    -543.91875  -1.29414  -0.34459   1.43988
  46   36752.7    272.1     19.94073  -1.24921   0.88734   0.71439
  47   37113.5    269.4     -2.31949  -0.97224   0.79876   0.92484
  48   37339.1    267.8     17.44122  -2.70084   2.74391   2.27395
  49   37474.5    266.8    -180.64208  -0.65920   0.25492   0.84471
  50   37964.3    263.4     20.91640   1.70900  -1.18655  -0.89671
  51   38375.2    260.6    -150.99920   1.00087   0.39971  -1.47400
  52   38537.8    259.5    138.39808   2.90522  -1.84420  -2.29515
  53   38891.0    257.1    -86.05930  -1.64468   0.75866   1.37677
  54   39255.5    254.7     70.55258  -0.19029  -0.37018   0.10240
  55   39333.5    254.2      8.28393   1.32424  -1.25533  -0.92421
  56   39561.2    252.8      5.05001  -0.26375  -0.04638  -0.13951
  57   39662.1    252.1    336.66607  -0.25566  -0.71615   0.93453
  58   40046.3    249.7    -360.59182  -3.01024   1.10427   2.76386
  59   40232.1    248.6     -5.16923  -0.28979  -0.29015  -0.11493

sTD-DFT done

Total run time:        4.499 sec

           *** ORCA-CIS/TD-DFT FINISHED WITHOUT ERROR ***

-------------------------   --------------------
FINAL SINGLE POINT ENERGY     -3882.161664878286
-------------------------   --------------------


                            ***************************************
                            *     ORCA property calculations      *
                            ***************************************

                                    ---------------------
                                    Active property flags
                                    ---------------------
   (+) Dipole Moment


------------------------------------------------------------------------------
                       ORCA ELECTRIC PROPERTIES CALCULATION
------------------------------------------------------------------------------

Dipole Moment Calculation                       ... on
Quadrupole Moment Calculation                   ... off
Polarizability Calculation                      ... off
GBWName                                         ... xtbopt.gbw
Electron density file                           ... xtbopt.scfp
The origin for moment calculation is the CENTER OF MASS  = (-12.879411, -15.271957  1.729012)

-------------
DIPOLE MOMENT
-------------
                                X             Y             Z
Electronic contribution:      3.09906      -0.54673      -1.79363
Nuclear contribution   :     -4.38312       0.61270       1.96596
                        -----------------------------------------
Total Dipole Moment    :     -1.28405       0.06597       0.17233
                        -----------------------------------------
Magnitude (a.u.)       :      1.29724
Magnitude (Debye)      :      3.29733



--------------------
Rotational spectrum 
--------------------
 
Rotational constants in cm-1:     0.001313     0.000158     0.000142 
Rotational constants in MHz :    39.368839     4.724786     4.254651 

 Dipole components along the rotational axes: 
x,y,z [a.u.] :    -0.555278     0.699066    -0.941175 
x,y,z [Debye]:    -1.411403     1.776885    -2.392276 

 

Timings for individual modules:

Sum of individual times         ...      692.658 sec (=  11.544 min)
GTO integral calculation        ...        3.563 sec (=   0.059 min)   0.5 %
SCF iterations                  ...      683.846 sec (=  11.397 min)  98.7 %
CIS module                      ...        5.249 sec (=   0.087 min)   0.8 %
                             ****ORCA TERMINATED NORMALLY****
TOTAL RUN TIME: 0 days 0 hours 11 minutes 33 seconds 730 msec
