
                                 *****************
                                 * O   R   C   A *
                                 *****************

           --- An Ab Initio, DFT and Semiempirical electronic structure package ---

                  #######################################################
                  #                        -***-                        #
                  #          Department of theory and spectroscopy      #
                  #               Directorship: Frank Neese             #
                  #        Max Planck Institute fuer Kohlenforschung    #
                  #                Kaiser Wilhelm Platz 1               #
                  #                 D-45470 Muelheim/Ruhr               #
                  #                      Germany                        #
                  #                                                     #
                  #                  All rights reserved                #
                  #                        -***-                        #
                  #######################################################


                         Program Version 4.2.0 -  RELEASE  -


 With contributions from (in alphabetic order):
   Daniel Aravena         : Magnetic Suceptibility
   Michael Atanasov       : Ab Initio Ligand Field Theory (pilot matlab implementation)
   Alexander A. Auer      : GIAO ZORA, VPT2
   Ute Becker             : Parallelization
   Giovanni Bistoni       : ED, misc. LED, open-shell LED, HFLED
   Martin Brehm           : Molecular dynamics
   Dmytro Bykov           : SCF Hessian
   Vijay G. Chilkuri      : MRCI spin determinant printing, contributions to CSF-ICE
   Dipayan Datta          : RHF DLPNO-CCSD density
   Achintya Kumar Dutta   : EOM-CC, STEOM-CC
   Dmitry Ganyushin       : Spin-Orbit,Spin-Spin,Magnetic field MRCI
   Miquel Garcia          : C-PCM Hessian, Gaussian charge scheme
   Yang Guo               : DLPNO-NEVPT2, CIM, IAO-localization
   Andreas Hansen         : Spin unrestricted coupled pair/coupled cluster methods
   Benjamin Helmich-Paris : CASSCF linear response (MC-RPA)
   Lee Huntington         : MR-EOM, pCC
   Robert Izsak           : Overlap fitted RIJCOSX, COSX-SCS-MP3, EOM
   Christian Kollmar      : KDIIS, OOCD, Brueckner-CCSD(T), CCSD density
   Simone Kossmann        : Meta GGA functionals, TD-DFT gradient, OOMP2, MP2 Hessian
   Martin Krupicka        : AUTO-CI
   Lucas Lang             : DCDCAS
   Dagmar Lenk            : GEPOL surface, SMD
   Dimitrios Liakos       : Extrapolation schemes; Compound Job, initial MDCI parallelization
   Dimitrios Manganas     : Further ROCIS development; embedding schemes
   Dimitrios Pantazis     : SARC Basis sets
   Taras Petrenko         : DFT Hessian,TD-DFT gradient, ASA, ECA, R-Raman, ABS, FL, XAS/XES, NRVS
   Peter Pinski           : DLPNO-MP2, DLPNO-MP2 Gradient
   Christoph Reimann      : Effective Core Potentials
   Marius Retegan         : Local ZFS, SOC
   Christoph Riplinger    : Optimizer, TS searches, QM/MM, DLPNO-CCSD(T), (RO)-DLPNO pert. Triples
   Tobias Risthaus        : Range-separated hybrids, TD-DFT gradient, RPA, STAB
   Michael Roemelt        : Original ROCIS implementation
   Masaaki Saitow         : Open-shell DLPNO-CCSD energy and density
   Barbara Sandhoefer     : DKH picture change effects
   Avijit Sen             : IP-ROCIS
   Kantharuban Sivalingam : CASSCF convergence, NEVPT2, FIC-MRCI
   Bernardo de Souza      : ESD, SOC TD-DFT
   Georgi Stoychev        : AutoAux, RI-MP2 NMR
   Willem Van den Heuvel  : Paramagnetic NMR
   Boris Wezisla          : Elementary symmetry handling
   Frank Wennmohs         : Technical directorship


 We gratefully acknowledge several colleagues who have allowed us to
 interface, adapt or use parts of their codes:
   Stefan Grimme, W. Hujo, H. Kruse,             : VdW corrections, initial TS optimization,
                  C. Bannwarth                     DFT functionals, gCP, sTDA/sTD-DF
   Ed Valeev, F. Pavosevic, A. Kumar             : LibInt (2-el integral package), F12 methods
   Garnet Chan, S. Sharma, J. Yang, R. Olivares  : DMRG
   Ulf Ekstrom                                   : XCFun DFT Library
   Mihaly Kallay                                 : mrcc  (arbitrary order and MRCC methods)
   Andreas Klamt, Michael Diedenhofen            : otool_cosmo (COSMO solvation model)
   Jiri Pittner, Ondrej Demel                    : Mk-CCSD
   Frank Weinhold                                : gennbo (NPA and NBO analysis)
   Christopher J. Cramer and Donald G. Truhlar   : smd solvation model
   Lars Goerigk                                  : TD-DFT with DH, B97 family of functionals
   V. Asgeirsson, H. Jonsson                     : NEB implementation
   FAccTs GmbH                                   : IRC, NEB, NEB-TS, Multilevel, MM, QM/MM, CI optimization
   S Lehtola, MJT Oliveira, MAL Marques          : LibXC Library


 Your calculation uses the libint2 library for the computation of 2-el integrals
 For citations please refer to: http://libint.valeyev.net

 Your ORCA version has been built with support for libXC version: 4.2.3
 For citations please refer to: https://tddft.org/programs/libxc/

 This ORCA versions uses:
   CBLAS   interface :  Fast vector & matrix operations
   LAPACKE interface :  Fast linear algebra routines
   SCALAPACK package :  Parallel linear algebra routines


XCFun DFT library Copyright 2009-2010 Ulf Ekstrom and contributors.
See http://admol.org/xcfun for more information. This is free soft-
ware; see the source code for copying conditions. There is ABSOLUTELY
NO WARRANTY; not even for MERCHANTABILITY or FITNESS FOR A PARTICULAR
PURPOSE. For details see the documentation. Scientific users of this 
library should cite U. Ekstrom, L. Visscher, R. Bast, A. J. Thorvald-
sen and K. Ruud; J.Chem.Theor.Comp. 2010, DOI: 10.1021/ct100117s
XCFun Version 0.99 
----- Orbital basis set information -----
Your calculation utilizes the basis: def2-SVP
   F. Weigend and R. Ahlrichs, Phys. Chem. Chem. Phys. 7, 3297 (2005).

----- AuxJ basis set information -----
Your calculation utilizes the auxiliary basis: def2/J
   F. Weigend, Phys. Chem. Chem. Phys. 8, 1057 (2006).

================================================================================
                                        WARNINGS
                       Please study these warnings very carefully!
================================================================================

INFO   : Checking CIS options ...

WARNING: CIS/ROCIS methods need fully converged wavefunctions
  ===> : Setting SCFConvForced true
         You can overwrite this default with %scf ConvForced false 


INFO   : the flag for use of LIBINT has been found!

================================================================================
                                       INPUT FILE
================================================================================
NAME = xtbopt.inp
|  1> # ORCA input file
|  2> # SCF done       -148.935614984534          0.000896693795
|  3> ! CAM-B3LYP def2-SVP def2/J RIJCOSX Grid4 TightSCF
|  4> %maxcore 5000
|  5> %tddft
|  6>     Mode sTDDFT
|  7>     Ethresh 5.0
|  8>     maxcore 5000
|  9> end
| 10> 
| 11> %pal
| 12>   nprocs 6
| 13>   end
| 14> * xyz 0 1
| 15>    C        5.22488         9.61462         9.00285
| 16>    S        4.37305        10.49337        10.18754
| 17>    C        3.92999        11.66426         8.99300
| 18>    N        3.13591        12.76032         9.37920
| 19>    O        2.83950        13.56735         8.52111
| 20>    O        2.80261        12.81537        10.54719
| 21>    C        4.42422        11.37442         7.75054
| 22>    C        5.18188        10.17905         7.74203
| 23>    C        5.79773         9.66156         6.54558
| 24>    C        6.49948         8.51693         6.46704
| 25>    C        7.09137         7.99753         5.27274
| 26>    C        7.12225         8.51325         4.00812
| 27>    C        7.79038         7.68716         3.07125
| 28>    C        8.28406         6.49576         3.66772
| 29>    S        7.91086         6.44591         5.36561
| 30>    C        8.95340         5.52955         2.95031
| 31>    C        9.13974         5.74334         1.58550
| 32>    C        8.65152         6.93678         0.98913
| 33>    C        7.98790         7.90542         1.70714
| 34>    S        8.99004         6.97252        -0.72050
| 35>    C        9.76062         5.39695        -0.63027
| 36>    C        9.76388         4.89496         0.63777
| 37>    C       10.26318         4.77844        -1.81316
| 38>    C       10.24153         5.26449        -3.08782
| 39>    C       10.78018         4.36950        -4.04475
| 40>    C       11.22742         3.15957        -3.44649
| 41>    S       10.97593         3.17672        -1.72237
| 42>    C       11.76541         2.12651        -4.17766
| 43>    C       11.86106         2.28729        -5.56134
| 44>    C       11.42030         3.49972        -6.15947
| 45>    C       10.88901         4.53654        -5.42492
| 46>    S       11.62701         3.46167        -7.88723
| 47>    C       12.27888         1.83094        -7.79977
| 48>    C       12.34368         1.36259        -6.51580
| 49>    C       12.65040         1.14752        -8.98947
| 50>    S       12.50838         1.93400       -10.54632
| 51>    C       13.11796        -0.13673        -9.16570
| 52>    C       13.39720        -1.32013        -8.34089
| 53>    O       13.35287        -1.47846        -7.14409
| 54>    N       13.74330        -2.31491        -9.24752
| 55>    C       14.05987        -3.66459        -8.85099
| 56>    C       13.71107        -1.91060       -10.57711
| 57>    O       13.90954        -2.63636       -11.51854
| 58>    C       13.35295        -0.48245       -10.52139
| 59>    C       13.08426         0.52391       -11.41542
| 60>    C       13.19065         0.53838       -12.83841
| 61>    S       12.01541         1.40330       -13.77537
| 62>    C       12.78704         0.86689       -15.22356
| 63>    N       12.25030         1.27830       -16.45712
| 64>    O       12.80257         0.89304       -17.46798
| 65>    O       11.26912         1.99656       -16.41543
| 66>    C       13.88690         0.08162       -14.99840
| 67>    C       14.14102        -0.10983       -13.62733
| 68>    C       15.30337        -0.79433       -13.09570
| 69>    C       16.01246        -1.69717       -13.76213
| 70>    H        5.72565         8.71154         9.29070
| 71>    H        4.24581        11.99463         6.89084
| 72>    H        5.65411        10.26455         5.66097
| 73>    H        6.63807         7.90782         7.34924
| 74>    H        6.68149         9.45547         3.73777
| 75>    H        9.31733         4.63005         3.42058
| 76>    H        7.62221         8.80330         1.23508
| 77>    H       10.19268         3.94010         0.88637
| 78>    H        9.84157         6.23164        -3.33677
| 79>    H       12.09634         1.21347        -3.70973
| 80>    H       10.55613         5.44760        -5.89591
| 81>    H       12.71375         0.38421        -6.26651
| 82>    H       13.88935        -3.74593        -7.77948
| 83>    H       15.10228        -3.88986        -9.07895
| 84>    H       13.42287        -4.36581        -9.38953
| 85>    H       14.48994        -0.31222       -15.79568
| 86>    H       15.58735        -0.51187       -12.09111
| 87>    H       15.73842        -2.02759       -14.74880
| 88>    H       16.88064        -2.15793       -13.32595
| 89> *
| 90> 
| 91>                          ****END OF INPUT****
================================================================================

                       ****************************
                       * Single Point Calculation *
                       ****************************

---------------------------------
CARTESIAN COORDINATES (ANGSTROEM)
---------------------------------
  C      5.224880    9.614620    9.002850
  S      4.373050   10.493370   10.187540
  C      3.929990   11.664260    8.993000
  N      3.135910   12.760320    9.379200
  O      2.839500   13.567350    8.521110
  O      2.802610   12.815370   10.547190
  C      4.424220   11.374420    7.750540
  C      5.181880   10.179050    7.742030
  C      5.797730    9.661560    6.545580
  C      6.499480    8.516930    6.467040
  C      7.091370    7.997530    5.272740
  C      7.122250    8.513250    4.008120
  C      7.790380    7.687160    3.071250
  C      8.284060    6.495760    3.667720
  S      7.910860    6.445910    5.365610
  C      8.953400    5.529550    2.950310
  C      9.139740    5.743340    1.585500
  C      8.651520    6.936780    0.989130
  C      7.987900    7.905420    1.707140
  S      8.990040    6.972520   -0.720500
  C      9.760620    5.396950   -0.630270
  C      9.763880    4.894960    0.637770
  C     10.263180    4.778440   -1.813160
  C     10.241530    5.264490   -3.087820
  C     10.780180    4.369500   -4.044750
  C     11.227420    3.159570   -3.446490
  S     10.975930    3.176720   -1.722370
  C     11.765410    2.126510   -4.177660
  C     11.861060    2.287290   -5.561340
  C     11.420300    3.499720   -6.159470
  C     10.889010    4.536540   -5.424920
  S     11.627010    3.461670   -7.887230
  C     12.278880    1.830940   -7.799770
  C     12.343680    1.362590   -6.515800
  C     12.650400    1.147520   -8.989470
  S     12.508380    1.934000  -10.546320
  C     13.117960   -0.136730   -9.165700
  C     13.397200   -1.320130   -8.340890
  O     13.352870   -1.478460   -7.144090
  N     13.743300   -2.314910   -9.247520
  C     14.059870   -3.664590   -8.850990
  C     13.711070   -1.910600  -10.577110
  O     13.909540   -2.636360  -11.518540
  C     13.352950   -0.482450  -10.521390
  C     13.084260    0.523910  -11.415420
  C     13.190650    0.538380  -12.838410
  S     12.015410    1.403300  -13.775370
  C     12.787040    0.866890  -15.223560
  N     12.250300    1.278300  -16.457120
  O     12.802570    0.893040  -17.467980
  O     11.269120    1.996560  -16.415430
  C     13.886900    0.081620  -14.998400
  C     14.141020   -0.109830  -13.627330
  C     15.303370   -0.794330  -13.095700
  C     16.012460   -1.697170  -13.762130
  H      5.725650    8.711540    9.290700
  H      4.245810   11.994630    6.890840
  H      5.654110   10.264550    5.660970
  H      6.638070    7.907820    7.349240
  H      6.681490    9.455470    3.737770
  H      9.317330    4.630050    3.420580
  H      7.622210    8.803300    1.235080
  H     10.192680    3.940100    0.886370
  H      9.841570    6.231640   -3.336770
  H     12.096340    1.213470   -3.709730
  H     10.556130    5.447600   -5.895910
  H     12.713750    0.384210   -6.266510
  H     13.889350   -3.745930   -7.779480
  H     15.102280   -3.889860   -9.078950
  H     13.422870   -4.365810   -9.389530
  H     14.489940   -0.312220  -15.795680
  H     15.587350   -0.511870  -12.091110
  H     15.738420   -2.027590  -14.748800
  H     16.880640   -2.157930  -13.325950

----------------------------
CARTESIAN COORDINATES (A.U.)
----------------------------
  NO LB      ZA    FRAG     MASS         X           Y           Z
   0 C     6.0000    0    12.011    9.873592   18.168999   17.012921
   1 S    16.0000    0    32.060    8.263867   19.829596   19.251661
   2 C     6.0000    0    12.011    7.426605   22.042257   16.994307
   3 N     7.0000    0    14.007    5.926011   24.113510   17.724119
   4 O     8.0000    0    15.999    5.365877   25.638576   16.102564
   5 O     8.0000    0    15.999    5.296165   24.217540   19.931301
   6 C     6.0000    0    12.011    8.360564   21.494539   14.646398
   7 C     6.0000    0    12.011    9.792334   19.235617   14.630316
   8 C     6.0000    0    12.011   10.956122   18.257702   12.369354
   9 C     6.0000    0    12.011   12.282237   16.094665   12.220934
  10 C     6.0000    0    12.011   13.400747   15.113141    9.964035
  11 C     6.0000    0    12.011   13.459102   16.087711    7.574249
  12 C     6.0000    0    12.011   14.721685   14.526627    5.803821
  13 C     6.0000    0    12.011   15.654605   12.275207    6.930986
  14 S    16.0000    0    32.060   14.949359   12.181005   10.139533
  15 C     6.0000    0    12.011   16.919474   10.449335    5.575278
  16 C     6.0000    0    12.011   17.271606   10.853340    2.996161
  17 C     6.0000    0    12.011   16.349003   13.108614    1.869185
  18 C     6.0000    0    12.011   15.094943   14.939079    3.226027
  19 S    16.0000    0    32.060   16.988714   13.176153   -1.361548
  20 C     6.0000    0    12.011   18.444899   10.198757   -1.191038
  21 C     6.0000    0    12.011   18.451059    9.250134    1.205211
  22 C     6.0000    0    12.011   19.394599    9.029943   -3.426376
  23 C     6.0000    0    12.011   19.353687    9.948444   -5.835134
  24 C     6.0000    0    12.011   20.371588    8.257158   -7.643470
  25 C     6.0000    0    12.011   21.216749    5.970722   -6.512922
  26 S    16.0000    0    32.060   20.741502    6.003131   -3.254808
  27 C     6.0000    0    12.011   22.233403    4.018522   -7.894633
  28 C     6.0000    0    12.011   22.414155    4.322352  -10.509410
  29 C     6.0000    0    12.011   21.581239    6.613512  -11.639711
  30 C     6.0000    0    12.011   20.577247    8.572818  -10.251613
  31 S    16.0000    0    32.060   21.971865    6.541608  -14.904705
  32 C     6.0000    0    12.011   23.203720    3.459975  -14.739429
  33 C     6.0000    0    12.011   23.326175    2.574922  -12.313078
  34 C     6.0000    0    12.011   23.905791    2.168499  -16.987636
  35 S    16.0000    0    32.060   23.637413    3.654730  -19.929657
  36 C     6.0000    0    12.011   24.789352   -0.258382  -17.320663
  37 C     6.0000    0    12.011   25.317039   -2.494684  -15.761998
  38 O     8.0000    0    15.999   25.233267   -2.793884  -13.500374
  39 N     7.0000    0    14.007   25.971073   -4.374546  -17.475280
  40 C     6.0000    0    12.011   26.569304   -6.925071  -16.725947
  41 C     6.0000    0    12.011   25.910167   -3.610511  -19.987841
  42 O     8.0000    0    15.999   26.285221   -4.981998  -21.766886
  43 C     6.0000    0    12.011   25.233419   -0.911698  -19.882546
  44 C     6.0000    0    12.011   24.725668    0.990046  -21.572018
  45 C     6.0000    0    12.011   24.926716    1.017391  -24.261079
  46 S    16.0000    0    32.060   22.705834    2.651853  -26.031677
  47 C     6.0000    0    12.011   24.164004    1.638185  -28.768359
  48 N     7.0000    0    14.007   23.149712    2.415637  -31.099450
  49 O     8.0000    0    15.999   24.193351    1.687601  -33.009698
  50 O     8.0000    0    15.999   21.295551    3.772952  -31.020667
  51 C     6.0000    0    12.011   26.242438    0.154239  -28.342868
  52 C     6.0000    0    12.011   26.722655   -0.207549  -25.751922
  53 C     6.0000    0    12.011   28.919178   -1.501066  -24.747287
  54 C     6.0000    0    12.011   30.259164   -3.207187  -26.006657
  55 H     1.0000    0     1.008   10.819910   16.462425   17.556879
  56 H     1.0000    0     1.008    8.023418   22.666566   13.021800
  57 H     1.0000    0     1.008   10.684719   19.397188   10.697683
  58 H     1.0000    0     1.008   12.544134   14.943614   13.888051
  59 H     1.0000    0     1.008   12.626186   17.868249    7.063362
  60 H     1.0000    0     1.008   17.607202    8.749526    6.463959
  61 H     1.0000    0     1.008   14.403889   16.635826    2.333963
  62 H     1.0000    0     1.008   19.261374    7.445710    1.674997
  63 H     1.0000    0     1.008   18.597872   11.776093   -6.305581
  64 H     1.0000    0     1.008   22.858770    2.293126   -7.010374
  65 H     1.0000    0     1.008   19.948195   10.294472  -11.141655
  66 H     1.0000    0     1.008   24.025506    0.726052  -11.841988
  67 H     1.0000    0     1.008   26.247068   -7.078782  -14.701087
  68 H     1.0000    0     1.008   28.539173   -7.350770  -17.156729
  69 H     1.0000    0     1.008   25.365548   -8.250185  -17.743640
  70 H     1.0000    0     1.008   27.382018   -0.590010  -29.849509
  71 H     1.0000    0     1.008   29.455823   -0.967294  -22.848887
  72 H     1.0000    0     1.008   29.741304   -3.831590  -27.871193
  73 H     1.0000    0     1.008   31.899787   -4.077897  -25.182396

--------------------------------
INTERNAL COORDINATES (ANGSTROEM)
--------------------------------
 C      0   0   0     0.000000000000     0.00000000     0.00000000
 S      1   0   0     1.703322138499     0.00000000     0.00000000
 C      2   1   0     1.730378966383    89.82838403     0.00000000
 N      3   2   1     1.407501690940   118.81457568   179.84842119
 O      4   3   2     1.214691218829   117.46561868   179.99112449
 O      4   3   2     1.215861847662   116.96829910   359.83422234
 C      3   2   1     1.368202240204   113.02010473   359.97203174
 C      1   2   3     1.382062696588   114.09491758     0.00000000
 C      8   1   2     1.441721098236   126.66924545   180.41636159
 C      9   8   1     1.344916142739   125.22812805     1.35283979
 C     10   9   8     1.430546267025   125.00505697   178.99305264
 C     11  10   9     1.366083612814   130.17564031     1.85934330
 C     12  11  10     1.416526661203   113.75105497   181.13967845
 C     13  12  11     1.420890693650   112.03836577   359.93054036
 S     14  13  12     1.739135910330   111.05761577   359.70246950
 C     14  13  12     1.377045717396   122.58237760   179.11304710
 C     16  14  13     1.393963807206   117.86864725   359.72853098
 C     17  16  14     1.420674128328   119.59718967     0.52717164
 C     18  17  16     1.376296957092   122.54313281   359.75295952
 S     18  17  16     1.743188995749   111.23446825   180.46340185
 C     20  18  17     1.756233416776    90.94115716     0.55581967
 C     21  20  18     1.363792516954   112.27409164   359.35690012
 C     21  20  18     1.426306392680   120.06797663   177.79901392
 C     23  21  20     1.364357519347   127.93289354     0.53397367
 C     24  23  21     1.416638961592   113.57714101   182.38182036
 C     25  24  23     1.421924488185   111.89873823   359.81680275
 S     26  25  24     1.742449745904   111.25638373   359.61176265
 C     26  25  24     1.375229352726   122.58469222   178.73178366
 C     28  26  25     1.396269842581   117.85118691   359.62466221
 C     29  28  26     1.421975871596   119.58982810     0.68395892
 C     30  29  28     1.377253963146   122.48707383   359.67651015
 S     30  29  28     1.740497470323   111.22934193   180.43541154
 C     32  30  29     1.758369722612    90.85536592     0.60248502
 C     33  32  30     1.368257915526   112.43789848   359.29235764
 C     33  32  30     1.421434520757   120.07682907   178.39234206
 S     35  33  32     1.750000683800   120.48443119     1.78912902
 C     35  33  32     1.378030271438   130.07532056   183.29058746
 C     37  35  33     1.469259021990   138.01495817     2.24877919
 O     38  37  35     1.208041298052   130.90023083   354.99185691
 N     38  37  35     1.389730339059   104.93012487   174.62649193
 C     40  38  37     1.441904541986   123.04480949   181.81019246
 C     40  38  37     1.390077306160   114.20615204   359.57672027
 O     42  40  38     1.205159061452   124.62488648   183.98635270
 C     37  35  33     1.418674731783   113.92352222   178.44997144
 C     44  37  35     1.372677823307   114.28686452     0.49971886
 C     45  44  37     1.427034951604   129.96340823   180.53086430
 S     46  45  44     1.734119288169   119.55829964   143.13170593
 C     47  46  45     1.726384320220    89.73385866   182.60944962
 N     48  47  46     1.406775848989   118.30515938   180.15388472
 O     49  48  47     1.214605022260   117.61543753   180.03888979
 O     49  48  47     1.216696213564   116.76176415     0.23149987
 C     48  47  46     1.370050370643   113.51855904   359.47415048
 C     46  45  44     1.394910071438   127.59307831   325.00706382
 C     53  46  45     1.449906282971   123.93125273   352.08923790
 C     54  53  46     1.327425191338   124.41989171   161.33085531
 H      1   2   3     1.071998928078   118.78126505   179.95060737
 H      7   3   2     1.074976586815   122.96092106   179.97541183
 H      9   8   1     1.080165957897   114.99023183   180.75890977
 H     10   9   8     1.080971331812   119.92108622   359.85621047
 H     12  11  10     1.074773012547   123.67945402     0.97274993
 H     16  14  13     1.078285290542   121.47698470   180.23419588
 H     19  18  17     1.078312716284   121.41079646   180.19401836
 H     22  21  20     1.075838751672   122.85377812   179.98342779
 H     24  23  21     1.075789582865   122.84508107     1.71685196
 H     28  26  25     1.078014467157   121.70477091   180.25620949
 H     31  30  29     1.078272228197   121.47992903   180.24765795
 H     34  33  32     1.075325408144   123.04393728   179.88915394
 H     41  40  38     1.088038117944   107.84212575     4.85833028
 H     41  40  38     1.090564506391   110.22590701   244.89252151
 H     41  40  38     1.089726488620   109.75999383   125.05289130
 H     52  48  47     1.074440591936   122.59648053   181.46411655
 H     54  53  46     1.081494040714   115.32771036   340.42653276
 H     55  54  53     1.076007893512   122.22019803   356.80592414
 H     55  54  53     1.075308924170   121.27037948   178.58201280

---------------------------
INTERNAL COORDINATES (A.U.)
---------------------------
 C      0   0   0     0.000000000000     0.00000000     0.00000000
 S      1   0   0     3.218812359608     0.00000000     0.00000000
 C      2   1   0     3.269942354361    89.82838403     0.00000000
 N      3   2   1     2.659792728908   118.81457568   179.84842119
 O      4   3   2     2.295433740866   117.46561868   179.99112449
 O      4   3   2     2.297645908765   116.96829910   359.83422234
 C      3   2   1     2.585527529804   113.02010473   359.97203174
 C      1   2   3     2.611719996460   114.09491758     0.00000000
 C      8   1   2     2.724458037163   126.66924545   180.41636159
 C      9   8   1     2.541523182866   125.22812805     1.35283979
 C     10   9   8     2.703340666581   125.00505697   178.99305264
 C     11  10   9     2.581523904257   130.17564031     1.85934330
 C     12  11  10     2.676847451072   113.75105497   181.13967845
 C     13  12  11     2.685094277235   112.03836577   359.93054036
 S     14  13  12     3.286490580192   111.05761577   359.70246950
 C     14  13  12     2.602239279768   122.58237760   179.11304710
 C     16  14  13     2.634209836217   117.86864725   359.72853098
 C     17  16  14     2.684685028087   119.59718967     0.52717164
 C     18  17  16     2.600824327853   122.54313281   359.75295952
 S     18  17  16     3.294149801631   111.23446825   180.46340185
 C     20  18  17     3.318800184947    90.94115716     0.55581967
 C     21  20  18     2.577194360534   112.27409164   359.35690012
 C     21  20  18     2.695328465226   120.06797663   177.79901392
 C     23  21  20     2.578262060323   127.93289354     0.53397367
 C     24  23  21     2.677059668051   113.57714101   182.38182036
 C     25  24  23     2.687047865786   111.89873823   359.81680275
 S     26  25  24     3.292752821879   111.25638373   359.61176265
 C     26  25  24     2.598806847982   122.58469222   178.73178366
 C     28  26  25     2.638567611531   117.85118691   359.62466221
 C     29  28  26     2.687144966360   119.58982810     0.68395892
 C     30  29  28     2.602632807203   122.48707383   359.67651015
 S     30  29  28     3.289063555693   111.22934193   180.43541154
 C     32  30  29     3.322837217917    90.85536592     0.60248502
 C     33  32  30     2.585632740914   112.43789848   359.29235764
 C     33  32  30     2.686121961533   120.07682907   178.39234206
 S     35  33  32     3.307022026557   120.48443119     1.78912902
 C     35  33  32     2.604099817271   130.07532056   183.29058746
 C     37  35  33     2.776497171355   138.01495817     2.24877919
 O     38  37  35     2.282867211786   130.90023083   354.99185691
 N     38  37  35     2.626209740822   104.93012487   174.62649193
 C     40  38  37     2.724804695611   123.04480949   181.81019246
 C     40  38  37     2.626865413621   114.20615204   359.57672027
 O     42  40  38     2.277420573958   124.62488648   183.98635270
 C     37  35  33     2.680906716184   113.92352222   178.44997144
 C     44  37  35     2.593985156158   114.28686452     0.49971886
 C     45  44  37     2.696705242066   129.96340823   180.53086430
 S     46  45  44     3.277010538190   119.55829964   143.13170593
 C     47  46  45     3.262393567111    89.73385866   182.60944962
 N     48  47  46     2.658421086405   118.30515938   180.15388472
 O     49  48  47     2.295270852957   117.61543753   180.03888979
 O     49  48  47     2.299222631814   116.76176415     0.23149987
 C     48  47  46     2.589019990193   113.51855904   359.47415048
 C     46  45  44     2.635998016467   127.59307831   325.00706382
 C     53  46  45     2.739925794668   123.93125273   352.08923790
 C     54  53  46     2.508470074898   124.41989171   161.33085531
 H      1   2   3     2.025784389924   118.78126505   179.95060737
 H      7   3   2     2.031411349457   122.96092106   179.97541183
 H      9   8   1     2.041217839610   114.99023183   180.75890977
 H     10   9   8     2.042739775745   119.92108622   359.85621047
 H     12  11  10     2.031026649844   123.67945402     0.97274993
 H     16  14  13     2.037663893361   121.47698470   180.23419588
 H     19  18  17     2.037715720502   121.41079646   180.19401836
 H     22  21  20     2.033040604921   122.85377812   179.98342779
 H     24  23  21     2.032947689339   122.84508107     1.71685196
 H     28  26  25     2.037152111332   121.70477091   180.25620949
 H     31  30  29     2.037639209105   121.47992903   180.24765795
 H     34  33  32     2.032070526239   123.04393728   179.88915394
 H     41  40  38     2.056094066182   107.84212575     4.85833028
 H     41  40  38     2.060868248454   110.22590701   244.89252151
 H     41  40  38     2.059284624371   109.75999383   125.05289130
 H     52  48  47     2.030398465927   122.59648053   181.46411655
 H     54  53  46     2.043727552417   115.32771036   340.42653276
 H     55  54  53     2.033360236675   122.22019803   356.80592414
 H     55  54  53     2.032039376043   121.27037948   178.58201280

---------------------
BASIS SET INFORMATION
---------------------
There are 5 groups of distinct atoms

 Group   1 Type C   : 7s4p1d contracted to 3s2p1d pattern {511/31/1}
 Group   2 Type S   : 10s7p1d contracted to 4s3p1d pattern {5311/511/1}
 Group   3 Type N   : 7s4p1d contracted to 3s2p1d pattern {511/31/1}
 Group   4 Type O   : 7s4p1d contracted to 3s2p1d pattern {511/31/1}
 Group   5 Type H   : 4s1p contracted to 2s1p pattern {31/1}

Atom   0C    basis set group =>   1
Atom   1S    basis set group =>   2
Atom   2C    basis set group =>   1
Atom   3N    basis set group =>   3
Atom   4O    basis set group =>   4
Atom   5O    basis set group =>   4
Atom   6C    basis set group =>   1
Atom   7C    basis set group =>   1
Atom   8C    basis set group =>   1
Atom   9C    basis set group =>   1
Atom  10C    basis set group =>   1
Atom  11C    basis set group =>   1
Atom  12C    basis set group =>   1
Atom  13C    basis set group =>   1
Atom  14S    basis set group =>   2
Atom  15C    basis set group =>   1
Atom  16C    basis set group =>   1
Atom  17C    basis set group =>   1
Atom  18C    basis set group =>   1
Atom  19S    basis set group =>   2
Atom  20C    basis set group =>   1
Atom  21C    basis set group =>   1
Atom  22C    basis set group =>   1
Atom  23C    basis set group =>   1
Atom  24C    basis set group =>   1
Atom  25C    basis set group =>   1
Atom  26S    basis set group =>   2
Atom  27C    basis set group =>   1
Atom  28C    basis set group =>   1
Atom  29C    basis set group =>   1
Atom  30C    basis set group =>   1
Atom  31S    basis set group =>   2
Atom  32C    basis set group =>   1
Atom  33C    basis set group =>   1
Atom  34C    basis set group =>   1
Atom  35S    basis set group =>   2
Atom  36C    basis set group =>   1
Atom  37C    basis set group =>   1
Atom  38O    basis set group =>   4
Atom  39N    basis set group =>   3
Atom  40C    basis set group =>   1
Atom  41C    basis set group =>   1
Atom  42O    basis set group =>   4
Atom  43C    basis set group =>   1
Atom  44C    basis set group =>   1
Atom  45C    basis set group =>   1
Atom  46S    basis set group =>   2
Atom  47C    basis set group =>   1
Atom  48N    basis set group =>   3
Atom  49O    basis set group =>   4
Atom  50O    basis set group =>   4
Atom  51C    basis set group =>   1
Atom  52C    basis set group =>   1
Atom  53C    basis set group =>   1
Atom  54C    basis set group =>   1
Atom  55H    basis set group =>   5
Atom  56H    basis set group =>   5
Atom  57H    basis set group =>   5
Atom  58H    basis set group =>   5
Atom  59H    basis set group =>   5
Atom  60H    basis set group =>   5
Atom  61H    basis set group =>   5
Atom  62H    basis set group =>   5
Atom  63H    basis set group =>   5
Atom  64H    basis set group =>   5
Atom  65H    basis set group =>   5
Atom  66H    basis set group =>   5
Atom  67H    basis set group =>   5
Atom  68H    basis set group =>   5
Atom  69H    basis set group =>   5
Atom  70H    basis set group =>   5
Atom  71H    basis set group =>   5
Atom  72H    basis set group =>   5
Atom  73H    basis set group =>   5
---------------------------------
AUXILIARY/J BASIS SET INFORMATION
---------------------------------
There are 5 groups of distinct atoms

 Group   1 Type C   : 12s5p4d2f1g contracted to 6s4p3d1f1g pattern {711111/2111/211/2/1}
 Group   2 Type S   : 14s5p5d2f1g contracted to 8s4p3d1f1g pattern {71111111/2111/311/2/1}
 Group   3 Type N   : 12s5p4d2f1g contracted to 6s4p3d1f1g pattern {711111/2111/211/2/1}
 Group   4 Type O   : 12s5p4d2f1g contracted to 6s4p3d1f1g pattern {711111/2111/211/2/1}
 Group   5 Type H   : 5s2p1d contracted to 3s1p1d pattern {311/2/1}

Atom   0C    basis set group =>   1
Atom   1S    basis set group =>   2
Atom   2C    basis set group =>   1
Atom   3N    basis set group =>   3
Atom   4O    basis set group =>   4
Atom   5O    basis set group =>   4
Atom   6C    basis set group =>   1
Atom   7C    basis set group =>   1
Atom   8C    basis set group =>   1
Atom   9C    basis set group =>   1
Atom  10C    basis set group =>   1
Atom  11C    basis set group =>   1
Atom  12C    basis set group =>   1
Atom  13C    basis set group =>   1
Atom  14S    basis set group =>   2
Atom  15C    basis set group =>   1
Atom  16C    basis set group =>   1
Atom  17C    basis set group =>   1
Atom  18C    basis set group =>   1
Atom  19S    basis set group =>   2
Atom  20C    basis set group =>   1
Atom  21C    basis set group =>   1
Atom  22C    basis set group =>   1
Atom  23C    basis set group =>   1
Atom  24C    basis set group =>   1
Atom  25C    basis set group =>   1
Atom  26S    basis set group =>   2
Atom  27C    basis set group =>   1
Atom  28C    basis set group =>   1
Atom  29C    basis set group =>   1
Atom  30C    basis set group =>   1
Atom  31S    basis set group =>   2
Atom  32C    basis set group =>   1
Atom  33C    basis set group =>   1
Atom  34C    basis set group =>   1
Atom  35S    basis set group =>   2
Atom  36C    basis set group =>   1
Atom  37C    basis set group =>   1
Atom  38O    basis set group =>   4
Atom  39N    basis set group =>   3
Atom  40C    basis set group =>   1
Atom  41C    basis set group =>   1
Atom  42O    basis set group =>   4
Atom  43C    basis set group =>   1
Atom  44C    basis set group =>   1
Atom  45C    basis set group =>   1
Atom  46S    basis set group =>   2
Atom  47C    basis set group =>   1
Atom  48N    basis set group =>   3
Atom  49O    basis set group =>   4
Atom  50O    basis set group =>   4
Atom  51C    basis set group =>   1
Atom  52C    basis set group =>   1
Atom  53C    basis set group =>   1
Atom  54C    basis set group =>   1
Atom  55H    basis set group =>   5
Atom  56H    basis set group =>   5
Atom  57H    basis set group =>   5
Atom  58H    basis set group =>   5
Atom  59H    basis set group =>   5
Atom  60H    basis set group =>   5
Atom  61H    basis set group =>   5
Atom  62H    basis set group =>   5
Atom  63H    basis set group =>   5
Atom  64H    basis set group =>   5
Atom  65H    basis set group =>   5
Atom  66H    basis set group =>   5
Atom  67H    basis set group =>   5
Atom  68H    basis set group =>   5
Atom  69H    basis set group =>   5
Atom  70H    basis set group =>   5
Atom  71H    basis set group =>   5
Atom  72H    basis set group =>   5
Atom  73H    basis set group =>   5


           ************************************************************
           *        Program running with 6 parallel MPI-processes     *
           *              working on a common directory               *
           ************************************************************
------------------------------------------------------------------------------
                           ORCA GTO INTEGRAL CALCULATION
                           -- RI-GTO INTEGRALS CHOSEN --
------------------------------------------------------------------------------

                         BASIS SET STATISTICS AND STARTUP INFO

Gaussian basis set:
 # of primitive gaussian shells          ...  797
 # of primitive gaussian functions       ... 1537
 # of contracted shells                  ...  401
 # of contracted basis functions         ...  893
 Highest angular momentum                ...    2
 Maximum contraction depth               ...    5
Auxiliary gaussian basis set:
 # of primitive gaussian shells          ... 1493
 # of primitive gaussian functions       ... 4203
 # of contracted shells                  ...  934
 # of contracted aux-basis functions     ... 2918
 Highest angular momentum                ...    4
 Maximum contraction depth               ...    7
Ratio of auxiliary to basis functions    ...  3.27
Integral package used                  ... LIBINT
 One Electron integrals                  ... done
 Ordering auxiliary basis shells         ... done
 Integral threshhold             Thresh  ...  2.500e-11
 Primitive cut-off               TCut    ...  2.500e-12
 Pre-screening matrix                    ... done
 Shell pair data                         ... 
 Ordering of the shell pairs             ... done (   0.005 sec) 26400 of 80601 pairs
 Determination of significant pairs      ... done (   0.000 sec)
 Creation of shell pair data             ... done (   0.003 sec)
 Storage of shell pair data              ... done (   0.055 sec)
 Shell pair data done in (   0.064 sec)
 Computing two index integrals           ... done
 Cholesky decomposition of the V-matrix  ... done


Timings:
 Total evaluation time                   ...   1.483 sec (  0.025 min)
 One electron matrix time                ...   0.296 sec (  0.005 min) = 19.9%
 Schwartz matrix evaluation time         ...   0.442 sec (  0.007 min) = 29.8%
 Two index repulsion integral time       ...   0.260 sec (  0.004 min) = 17.6%
 Cholesky decomposition of V             ...   0.405 sec (  0.007 min) = 27.3%
 Three index repulsion integral time     ...   0.000 sec (  0.000 min) =  0.0%



           ************************************************************
           *        Program running with 6 parallel MPI-processes     *
           *              working on a common directory               *
           ************************************************************
-------------------------------------------------------------------------------
                                 ORCA SCF
-------------------------------------------------------------------------------

------------
SCF SETTINGS
------------
Hamiltonian:
 Density Functional     Method          .... DFT(GTOs)
 Exchange Functional    Exchange        .... WB88
 Correlation Functional Correlation     .... LYP
 LDA part of GGA corr.  LDAOpt          .... VWN-5
 Gradients option       PostSCFGGA      .... off
 Hybrid DFT is turned on
   Fraction HF Exchange ScalHFX         ....  0.190000
   Scaling of DF-GGA-X  ScalDFX         ....  0.350000
   Scaling of DF-GGA-C  ScalDFC         ....  0.810000
   Scaling of DF-LDA-C  ScalLDAC        ....  1.000000
   Perturbative correction              ....  0.000000
   Density functional embedding theory  .... OFF
 Long-range corrected/Screened/Range-Separated Hybrid DFT is turned on
   Amount of maximum screened exact exchange              ....  0.460000
   Range separation parameter mu (erf(mu*r12)/r12)        ....  0.330000
 RI-approximation to the Coulomb term is turned on
   Number of auxiliary basis functions  .... 2918
   RIJ-COSX (HFX calculated with COS-X)).... on


General Settings:
 Integral files         IntName         .... xtbopt
 Hartree-Fock type      HFTyp           .... RHF
 Total Charge           Charge          ....    0
 Multiplicity           Mult            ....    1
 Number of Electrons    NEL             ....  434
 Basis Dimension        Dim             ....  893
 Nuclear Repulsion      ENuc            ....   7306.5790942095 Eh

Convergence Acceleration:
 DIIS                   CNVDIIS         .... on
   Start iteration      DIISMaxIt       ....    12
   Startup error        DIISStart       ....  0.200000
   # of expansion vecs  DIISMaxEq       ....     5
   Bias factor          DIISBfac        ....   1.050
   Max. coefficient     DIISMaxC        ....  10.000
 Newton-Raphson         CNVNR           .... off
 SOSCF                  CNVSOSCF        .... on
   Start iteration      SOSCFMaxIt      ....   150
   Startup grad/error   SOSCFStart      ....  0.003300
 Level Shifting         CNVShift        .... on
   Level shift para.    LevelShift      ....    0.2500
   Turn off err/grad.   ShiftErr        ....    0.0010
 Zerner damping         CNVZerner       .... off
 Static damping         CNVDamp         .... on
   Fraction old density DampFac         ....    0.7000
   Max. Damping (<1)    DampMax         ....    0.9800
   Min. Damping (>=0)   DampMin         ....    0.0000
   Turn off err/grad.   DampErr         ....    0.1000
 Fernandez-Rico         CNVRico         .... off

SCF Procedure:
 Maximum # iterations   MaxIter         ....   125
 SCF integral mode      SCFMode         .... Direct
   Integral package                     .... LIBINT
 Reset frequency        DirectResetFreq ....    20
 Integral Threshold     Thresh          ....  2.500e-11 Eh
 Primitive CutOff       TCut            ....  2.500e-12 Eh

Convergence Tolerance:
 Convergence Check Mode ConvCheckMode   .... Total+1el-Energy
 Convergence forced     ConvForced      .... 1
 Energy Change          TolE            ....  1.000e-08 Eh
 1-El. energy change                    ....  1.000e-05 Eh
 Orbital Gradient       TolG            ....  1.000e-05
 Orbital Rotation angle TolX            ....  1.000e-05
 DIIS Error             TolErr          ....  5.000e-07


Diagonalization of the overlap matrix:
Smallest eigenvalue                        ... 2.339e-04
Time for diagonalization                   ...    0.131 sec
Threshold for overlap eigenvalues          ... 1.000e-08
Number of eigenvalues below threshold      ... 0
Time for construction of square roots      ...    0.119 sec
Total time needed                          ...    0.252 sec

-------------------
DFT GRID GENERATION
-------------------

General Integration Accuracy     IntAcc      ...  4.670
Radial Grid Type                 RadialGrid  ... Gauss-Chebyshev
Angular Grid (max. acc.)         AngularGrid ... Lebedev-302
Angular grid pruning method      GridPruning ... 3 (G Style)
Weight generation scheme         WeightScheme... Becke
Basis function cutoff            BFCut       ...    1.0000e-11
Integration weight cutoff        WCut        ...    1.0000e-14
Grids for H and He will be reduced by one unit

# of grid points (after initial pruning)     ... 410584 (   0.0 sec)
# of grid points (after weights+screening)   ... 361089 (   3.1 sec)
nearest neighbour list constructed           ...    0.0 sec
Grid point re-assignment to atoms done       ...    0.1 sec
Grid point division into batches done        ...    1.3 sec
Reduced shell lists constructed in    1.8 sec

Total number of grid points                  ...   361089
Total number of batches                      ...     5679
Average number of points per batch           ...       63
Average number of grid points per atom       ...     4880
Average number of shells per batch           ...    61.21 (15.27%)
Average number of basis functions per batch  ...   132.13 (14.80%)
Average number of large shells per batch     ...    43.11 (70.43%)
Average number of large basis fcns per batch ...    93.91 (71.07%)
Maximum spatial batch extension              ...  19.67, 19.24, 17.93 au
Average spatial batch extension              ...   0.40,  0.37,  0.34 au

Time for grid setup =    5.303 sec

------------------------------
INITIAL GUESS: MODEL POTENTIAL
------------------------------
Loading Hartree-Fock densities                     ... done
Calculating cut-offs                               ... done
Setting up the integral package                    ... done
Initializing the effective Hamiltonian             ... done
Starting the Coulomb interaction                   ... done (   0.6 sec)
Reading the grid                                   ... done
Mapping shells                                     ... done
Starting the XC term evaluation                    ... done (   0.9 sec)
  promolecular density results
     # of electrons  =    433.991225777
     EX              =   -448.355485708
     EC              =    -15.417587046
     EX+EC           =   -463.773072754
Transforming the Hamiltonian                       ... done (   0.1 sec)
Diagonalizing the Hamiltonian                      ... done (   0.1 sec)
Back transforming the eigenvectors                 ... done (   0.0 sec)
Now organizing SCF variables                       ... done
                      ------------------
                      INITIAL GUESS DONE (   7.1 sec)
                      ------------------
--------------------
COSX GRID GENERATION
--------------------

General Integration Accuracy     IntAcc      ...  3.340
Radial Grid Type                 RadialGrid  ... Gauss-Chebyshev
Angular Grid (max. acc.)         AngularGrid ... Lebedev-50
Angular grid pruning method      GridPruning ... 3 (G Style)
Weight generation scheme         WeightScheme... Becke
Basis function cutoff            BFCut       ...    1.0000e-11
Integration weight cutoff        WCut        ...    1.0000e-14
Grids for H and He will be reduced by one unit

# of grid points (after initial pruning)     ...  38820 (   0.0 sec)
# of grid points (after weights+screening)   ...  35461 (   0.3 sec)
nearest neighbour list constructed           ...    0.0 sec
Grid point re-assignment to atoms done       ...    0.0 sec
Grid point division into batches done        ...    0.0 sec
Reduced shell lists constructed in    0.1 sec

Total number of grid points                  ...    35461
Total number of batches                      ...      592
Average number of points per batch           ...       59
Average number of grid points per atom       ...      479
Average number of shells per batch           ...    71.92 (17.94%)
Average number of basis functions per batch  ...   155.96 (17.46%)
Average number of large shells per batch     ...    51.01 (70.93%)
Average number of large basis fcns per batch ...   112.55 (72.17%)
Maximum spatial batch extension              ...  20.39, 14.00, 15.15 au
Average spatial batch extension              ...   0.99,  0.80,  0.64 au

Overlap Fitting                  UseSFitting ... on
Constructing numerical overlap ... done (      0.1 sec)
Inverting numerical overlap    ... done (      0.0 sec)
Obtaining analytic overlap     ... done (      0.0 sec)
Final contraction and storage  ... done (      0.0 sec)


General Integration Accuracy     IntAcc      ...  3.670
Radial Grid Type                 RadialGrid  ... Gauss-Chebyshev
Angular Grid (max. acc.)         AngularGrid ... Lebedev-50
Angular grid pruning method      GridPruning ... 3 (G Style)
Weight generation scheme         WeightScheme... Becke
Basis function cutoff            BFCut       ...    1.0000e-11
Integration weight cutoff        WCut        ...    1.0000e-14
Grids for H and He will be reduced by one unit

# of grid points (after initial pruning)     ...  48406 (   0.0 sec)
# of grid points (after weights+screening)   ...  44085 (   0.3 sec)
nearest neighbour list constructed           ...    0.0 sec
Grid point re-assignment to atoms done       ...    0.0 sec
Grid point division into batches done        ...    0.0 sec
Reduced shell lists constructed in    0.1 sec

Total number of grid points                  ...    44085
Total number of batches                      ...      732
Average number of points per batch           ...       60
Average number of grid points per atom       ...      596
Average number of shells per batch           ...    71.20 (17.76%)
Average number of basis functions per batch  ...   154.63 (17.32%)
Average number of large shells per batch     ...    50.55 (71.00%)
Average number of large basis fcns per batch ...   111.30 (71.98%)
Maximum spatial batch extension              ...  23.63, 19.46, 16.14 au
Average spatial batch extension              ...   0.93,  0.72,  0.59 au

Overlap Fitting                  UseSFitting ... on
Constructing numerical overlap ... done (      0.1 sec)
Inverting numerical overlap    ... done (      0.0 sec)
Obtaining analytic overlap     ... done (      0.0 sec)
Final contraction and storage  ... done (      0.0 sec)


General Integration Accuracy     IntAcc      ...  4.010
Radial Grid Type                 RadialGrid  ... Gauss-Chebyshev
Angular Grid (max. acc.)         AngularGrid ... Lebedev-110
Angular grid pruning method      GridPruning ... 3 (G Style)
Weight generation scheme         WeightScheme... Becke
Basis function cutoff            BFCut       ...    1.0000e-11
Integration weight cutoff        WCut        ...    1.0000e-14
Grids for H and He will be reduced by one unit

# of grid points (after initial pruning)     ...  94304 (   0.0 sec)
# of grid points (after weights+screening)   ...  84978 (   0.7 sec)
nearest neighbour list constructed           ...    0.0 sec
Grid point re-assignment to atoms done       ...    0.0 sec
Grid point division into batches done        ...    0.1 sec
Reduced shell lists constructed in    0.2 sec

Total number of grid points                  ...    84978
Total number of batches                      ...     1365
Average number of points per batch           ...       62
Average number of grid points per atom       ...     1148
Average number of shells per batch           ...    67.15 (16.75%)
Average number of basis functions per batch  ...   145.70 (16.32%)
Average number of large shells per batch     ...    47.71 (71.05%)
Average number of large basis fcns per batch ...   104.52 (71.74%)
Maximum spatial batch extension              ...  19.31, 18.96, 17.02 au
Average spatial batch extension              ...   0.68,  0.59,  0.51 au

Overlap Fitting                  UseSFitting ... on
Constructing numerical overlap ... done (      0.1 sec)
Inverting numerical overlap    ... done (      0.0 sec)
Obtaining analytic overlap     ... done (      0.0 sec)
Final contraction and storage  ... done (      0.0 sec)

Time for X-Grid setup             =    2.342 sec
--------------
SCF ITERATIONS
--------------
ITER       Energy         Delta-E        Max-DP      RMS-DP      [F,P]     Damp
               ***  Starting incremental Fock matrix formation  ***
  0  -4895.6640870000   0.000000000000 0.08261396  0.00118578  0.2366630 0.7000
  1  -4896.2409623046  -0.576875304634 0.05119948  0.00080781  0.1029886 0.7000
                               ***Turning on DIIS***
  2  -4896.4749165686  -0.233954263920 0.09419516  0.00134506  0.0350503 0.0000
  3  -4896.8275968082  -0.352680239690 0.04374849  0.00065019  0.0532917 0.0000
  4  -4896.9190788197  -0.091482011498 0.01182504  0.00019481  0.0107970 0.0000
  5  -4896.9240054791  -0.004926659346 0.00706139  0.00007652  0.0085758 0.0000
                      *** Initiating the SOSCF procedure ***
                           *** Shutting down DIIS ***
                      *** Re-Reading the Fockian *** 
                      *** Removing any level shift *** 
ITER      Energy       Delta-E        Grad      Rot      Max-DP    RMS-DP
  6  -4896.92505151  -0.0010460326  0.001406  0.001406  0.002212  0.000037
               *** Restarting incremental Fock matrix formation ***
  7  -4896.92527151  -0.0002199984  0.000820  0.004467  0.001873  0.000032
  8  -4896.92537713  -0.0001056163  0.000668  0.004445  0.002197  0.000033
  9  -4896.92540196  -0.0000248337  0.000666  0.001946  0.001275  0.000014
 10  -4896.92542362  -0.0000216616  0.000185  0.000611  0.000483  0.000007
 11  -4896.92542313   0.0000004931  0.000122  0.000497  0.000256  0.000004
 12  -4896.92542614  -0.0000030096  0.000023  0.000087  0.000106  0.000001
 13  -4896.92542615  -0.0000000092  0.000024  0.000039  0.000058  0.000001
 14  -4896.92542624  -0.0000000904  0.000004  0.000014  0.000024  0.000000
 15  -4896.92542619   0.0000000443  0.000004  0.000008  0.000013  0.000000
                  ***Gradient check signals convergence***
              ***Rediagonalizing the Fockian in SOSCF/NRSCF***

               *****************************************************
               *                     SUCCESS                       *
               *           SCF CONVERGED AFTER  16 CYCLES          *
               *****************************************************

Setting up the final grid:

General Integration Accuracy     IntAcc      ...  5.010
Radial Grid Type                 RadialGrid  ... Gauss-Chebyshev
Angular Grid (max. acc.)         AngularGrid ... Lebedev-434
Angular grid pruning method      GridPruning ... 3 (G Style)
Weight generation scheme         WeightScheme... Becke
Basis function cutoff            BFCut       ...    1.0000e-11
Integration weight cutoff        WCut        ...    1.0000e-14
Grids for H and He will be reduced by one unit

# of grid points (after initial pruning)     ... 723372 (   0.0 sec)
# of grid points (after weights+screening)   ... 634408 (   5.3 sec)
nearest neighbour list constructed           ...    0.0 sec
Grid point re-assignment to atoms done       ...    0.1 sec
Grid point division into batches done        ...    4.2 sec
Reduced shell lists constructed in    5.0 sec

Total number of grid points                  ...   634408
Total number of batches                      ...     9946
Average number of points per batch           ...       63
Average number of grid points per atom       ...     8573
Average number of shells per batch           ...    59.88 (14.93%)
Average number of basis functions per batch  ...   129.04 (14.45%)
Average number of large shells per batch     ...    42.10 (70.31%)
Average number of large basis fcns per batch ...    91.52 (70.92%)
Maximum spatial batch extension              ...  20.31, 17.54, 15.21 au
Average spatial batch extension              ...   0.32,  0.30,  0.28 au

Final grid set up in   11.0 sec
Final integration                            ... done (   2.1 sec)
Change in XC energy                          ...    -0.000044812
Integrated number of electrons               ...   434.000000057
Previous integrated no of electrons          ...   434.000380595
Old exchange energy                            =   -120.332225411 Eh
New exchange energy                            =   -120.328918336 Eh
Exchange energy change after final integration =      0.003307075 Eh
Total energy after final integration           =  -4896.922163983 Eh
Final COS-X integration done in                =    32.472 sec

----------------
TOTAL SCF ENERGY
----------------

Total Energy       :        -4896.92216398 Eh         -133252.02648 eV

Components:
Nuclear Repulsion  :         7306.57909421 Eh          198822.12507 eV
Electronic Energy  :       -12203.50125819 Eh         -332074.15156 eV
One Electron Energy:       -21267.61717230 Eh         -578721.28488 eV
Two Electron Energy:         9064.11591410 Eh          246647.13332 eV

Virial components:
Potential Energy   :        -9769.01690399 Eh         -265828.46442 eV
Kinetic Energy     :         4872.09474001 Eh          132576.43793 eV
Virial Ratio       :            2.00509584


DFT components:
N(Alpha)           :      217.000000028746 electrons
N(Beta)            :      217.000000028746 electrons
N(Total)           :      434.000000057492 electrons
E(XC)              :     -349.673481554780 Eh       
DFET-embed. en.    :        0.000000000000 Eh       

---------------
SCF CONVERGENCE
---------------

  Last Energy change         ...   -5.3023e-08  Tolerance :   1.0000e-08
  Last MAX-Density change    ...    1.0214e-14  Tolerance :   1.0000e-07
  Last RMS-Density change    ...    4.0938e-17  Tolerance :   5.0000e-09
  Last Orbital Gradient      ...    5.4570e-07  Tolerance :   1.0000e-05
  Last Orbital Rotation      ...    3.7706e-06  Tolerance :   1.0000e-05

             **** THE GBW FILE WAS UPDATED (xtbopt.gbw) ****
             **** DENSITY FILE WAS UPDATED (xtbopt.scfp) ****
             **** ENERGY FILE WAS UPDATED (xtbopt.en.tmp) ****
             **** THE GBW FILE WAS UPDATED (xtbopt.gbw) ****
             **** DENSITY FILE WAS UPDATED (xtbopt.scfp) ****
----------------
ORBITAL ENERGIES
----------------

  NO   OCC          E(Eh)            E(eV) 
   0   2.0000     -88.987355     -2421.4690 
   1   2.0000     -88.986972     -2421.4586 
   2   2.0000     -88.985105     -2421.4078 
   3   2.0000     -88.958236     -2420.6767 
   4   2.0000     -88.954740     -2420.5815 
   5   2.0000     -88.953240     -2420.5407 
   6   2.0000     -88.952250     -2420.5138 
   7   2.0000     -19.242153      -523.6056 
   8   2.0000     -19.242128      -523.6049 
   9   2.0000     -19.241840      -523.5971 
  10   2.0000     -19.241622      -523.5911 
  11   2.0000     -19.219373      -522.9857 
  12   2.0000     -19.215534      -522.8813 
  13   2.0000     -14.653299      -398.7365 
  14   2.0000     -14.653161      -398.7328 
  15   2.0000     -14.462634      -393.5483 
  16   2.0000     -10.402660      -283.0708 
  17   2.0000     -10.398579      -282.9597 
  18   2.0000     -10.348998      -281.6105 
  19   2.0000     -10.347000      -281.5562 
  20   2.0000     -10.345940      -281.5274 
  21   2.0000     -10.344142      -281.4784 
  22   2.0000     -10.334016      -281.2029 
  23   2.0000     -10.320823      -280.8439 
  24   2.0000     -10.320360      -280.8313 
  25   2.0000     -10.317686      -280.7585 
  26   2.0000     -10.315435      -280.6973 
  27   2.0000     -10.311295      -280.5846 
  28   2.0000     -10.310120      -280.5526 
  29   2.0000     -10.308507      -280.5087 
  30   2.0000     -10.307503      -280.4814 
  31   2.0000     -10.307459      -280.4802 
  32   2.0000     -10.306687      -280.4592 
  33   2.0000     -10.305651      -280.4310 
  34   2.0000     -10.305324      -280.4221 
  35   2.0000     -10.305199      -280.4187 
  36   2.0000     -10.304808      -280.4081 
  37   2.0000     -10.304642      -280.4036 
  38   2.0000     -10.301383      -280.3149 
  39   2.0000     -10.295825      -280.1636 
  40   2.0000     -10.294277      -280.1215 
  41   2.0000     -10.291835      -280.0551 
  42   2.0000     -10.289555      -279.9930 
  43   2.0000     -10.289026      -279.9786 
  44   2.0000     -10.288264      -279.9579 
  45   2.0000     -10.287927      -279.9487 
  46   2.0000     -10.287840      -279.9464 
  47   2.0000     -10.285964      -279.8953 
  48   2.0000     -10.285442      -279.8811 
  49   2.0000     -10.284091      -279.8443 
  50   2.0000     -10.282890      -279.8117 
  51   2.0000     -10.282541      -279.8022 
  52   2.0000     -10.282034      -279.7884 
  53   2.0000     -10.279586      -279.7218 
  54   2.0000     -10.270091      -279.4634 
  55   2.0000      -8.082797      -219.9441 
  56   2.0000      -8.082585      -219.9383 
  57   2.0000      -8.080579      -219.8837 
  58   2.0000      -8.054304      -219.1688 
  59   2.0000      -8.050616      -219.0684 
  60   2.0000      -8.049109      -219.0274 
  61   2.0000      -8.048436      -219.0091 
  62   2.0000      -6.052236      -164.6897 
  63   2.0000      -6.051905      -164.6807 
  64   2.0000      -6.050021      -164.6295 
  65   2.0000      -6.047864      -164.5707 
  66   2.0000      -6.047264      -164.5544 
  67   2.0000      -6.045605      -164.5093 
  68   2.0000      -6.045005      -164.4930 
  69   2.0000      -6.044713      -164.4850 
  70   2.0000      -6.042501      -164.4248 
  71   2.0000      -6.024002      -163.9214 
  72   2.0000      -6.020294      -163.8205 
  73   2.0000      -6.019951      -163.8112 
  74   2.0000      -6.018789      -163.7796 
  75   2.0000      -6.017987      -163.7578 
  76   2.0000      -6.016296      -163.7117 
  77   2.0000      -6.015385      -163.6869 
  78   2.0000      -6.014809      -163.6713 
  79   2.0000      -6.014073      -163.6512 
  80   2.0000      -6.011702      -163.5867 
  81   2.0000      -6.010174      -163.5452 
  82   2.0000      -6.009686      -163.5319 
  83   2.0000      -1.324253       -36.0347 
  84   2.0000      -1.324058       -36.0294 
  85   2.0000      -1.164703       -31.6932 
  86   2.0000      -1.143178       -31.1075 
  87   2.0000      -1.143111       -31.1056 
  88   2.0000      -1.140676       -31.0394 
  89   2.0000      -1.056038       -28.7363 
  90   2.0000      -1.025503       -27.9054 
  91   2.0000      -1.015609       -27.6361 
  92   2.0000      -1.011593       -27.5268 
  93   2.0000      -1.006269       -27.3820 
  94   2.0000      -1.000152       -27.2155 
  95   2.0000      -0.986103       -26.8332 
  96   2.0000      -0.973974       -26.5032 
  97   2.0000      -0.930962       -25.3328 
  98   2.0000      -0.923110       -25.1191 
  99   2.0000      -0.915744       -24.9187 
 100   2.0000      -0.904800       -24.6209 
 101   2.0000      -0.902001       -24.5447 
 102   2.0000      -0.888016       -24.1641 
 103   2.0000      -0.882677       -24.0189 
 104   2.0000      -0.881610       -23.9898 
 105   2.0000      -0.878174       -23.8963 
 106   2.0000      -0.863559       -23.4986 
 107   2.0000      -0.855160       -23.2701 
 108   2.0000      -0.840176       -22.8624 
 109   2.0000      -0.837664       -22.7940 
 110   2.0000      -0.832172       -22.6446 
 111   2.0000      -0.822626       -22.3848 
 112   2.0000      -0.806696       -21.9513 
 113   2.0000      -0.800710       -21.7884 
 114   2.0000      -0.790937       -21.5225 
 115   2.0000      -0.781990       -21.2790 
 116   2.0000      -0.780221       -21.2309 
 117   2.0000      -0.771844       -21.0029 
 118   2.0000      -0.756130       -20.5754 
 119   2.0000      -0.740133       -20.1400 
 120   2.0000      -0.723834       -19.6965 
 121   2.0000      -0.708804       -19.2875 
 122   2.0000      -0.699030       -19.0216 
 123   2.0000      -0.694143       -18.8886 
 124   2.0000      -0.686429       -18.6787 
 125   2.0000      -0.682789       -18.5796 
 126   2.0000      -0.672831       -18.3087 
 127   2.0000      -0.663792       -18.0627 
 128   2.0000      -0.658486       -17.9183 
 129   2.0000      -0.650151       -17.6915 
 130   2.0000      -0.648927       -17.6582 
 131   2.0000      -0.646529       -17.5930 
 132   2.0000      -0.635873       -17.3030 
 133   2.0000      -0.634480       -17.2651 
 134   2.0000      -0.634445       -17.2641 
 135   2.0000      -0.628450       -17.1010 
 136   2.0000      -0.627150       -17.0656 
 137   2.0000      -0.625557       -17.0223 
 138   2.0000      -0.618073       -16.8186 
 139   2.0000      -0.608151       -16.5486 
 140   2.0000      -0.596804       -16.2399 
 141   2.0000      -0.585750       -15.9391 
 142   2.0000      -0.585221       -15.9247 
 143   2.0000      -0.583770       -15.8852 
 144   2.0000      -0.577940       -15.7266 
 145   2.0000      -0.575635       -15.6638 
 146   2.0000      -0.573310       -15.6006 
 147   2.0000      -0.565776       -15.3956 
 148   2.0000      -0.562289       -15.3007 
 149   2.0000      -0.555426       -15.1139 
 150   2.0000      -0.553973       -15.0744 
 151   2.0000      -0.547123       -14.8880 
 152   2.0000      -0.544935       -14.8284 
 153   2.0000      -0.538959       -14.6658 
 154   2.0000      -0.534548       -14.5458 
 155   2.0000      -0.531163       -14.4537 
 156   2.0000      -0.529880       -14.4188 
 157   2.0000      -0.523753       -14.2520 
 158   2.0000      -0.520938       -14.1754 
 159   2.0000      -0.519279       -14.1303 
 160   2.0000      -0.514450       -13.9989 
 161   2.0000      -0.511443       -13.9171 
 162   2.0000      -0.506905       -13.7936 
 163   2.0000      -0.505991       -13.7687 
 164   2.0000      -0.501217       -13.6388 
 165   2.0000      -0.500089       -13.6081 
 166   2.0000      -0.496931       -13.5222 
 167   2.0000      -0.495204       -13.4752 
 168   2.0000      -0.490788       -13.3550 
 169   2.0000      -0.487983       -13.2787 
 170   2.0000      -0.485627       -13.2146 
 171   2.0000      -0.484527       -13.1846 
 172   2.0000      -0.481781       -13.1099 
 173   2.0000      -0.477676       -12.9982 
 174   2.0000      -0.472635       -12.8611 
 175   2.0000      -0.471825       -12.8390 
 176   2.0000      -0.468275       -12.7424 
 177   2.0000      -0.463244       -12.6055 
 178   2.0000      -0.459913       -12.5149 
 179   2.0000      -0.456904       -12.4330 
 180   2.0000      -0.453718       -12.3463 
 181   2.0000      -0.449765       -12.2387 
 182   2.0000      -0.448295       -12.1987 
 183   2.0000      -0.444670       -12.1001 
 184   2.0000      -0.437867       -11.9150 
 185   2.0000      -0.435379       -11.8473 
 186   2.0000      -0.426771       -11.6130 
 187   2.0000      -0.425462       -11.5774 
 188   2.0000      -0.418078       -11.3765 
 189   2.0000      -0.410264       -11.1638 
 190   2.0000      -0.408323       -11.1110 
 191   2.0000      -0.405808       -11.0426 
 192   2.0000      -0.391596       -10.6559 
 193   2.0000      -0.388421       -10.5695 
 194   2.0000      -0.388291       -10.5659 
 195   2.0000      -0.388201       -10.5635 
 196   2.0000      -0.382109       -10.3977 
 197   2.0000      -0.381008       -10.3677 
 198   2.0000      -0.380290       -10.3482 
 199   2.0000      -0.376609       -10.2481 
 200   2.0000      -0.370194       -10.0735 
 201   2.0000      -0.369377       -10.0512 
 202   2.0000      -0.367850       -10.0097 
 203   2.0000      -0.364007        -9.9051 
 204   2.0000      -0.357611        -9.7311 
 205   2.0000      -0.350169        -9.5286 
 206   2.0000      -0.345125        -9.3913 
 207   2.0000      -0.341826        -9.3016 
 208   2.0000      -0.335067        -9.1176 
 209   2.0000      -0.332334        -9.0433 
 210   2.0000      -0.331351        -9.0165 
 211   2.0000      -0.312356        -8.4996 
 212   2.0000      -0.296845        -8.0776 
 213   2.0000      -0.283669        -7.7190 
 214   2.0000      -0.281280        -7.6540 
 215   2.0000      -0.265172        -7.2157 
 216   2.0000      -0.246122        -6.6973 
 217   0.0000      -0.079767        -2.1706 
 218   0.0000      -0.065171        -1.7734 
 219   0.0000      -0.059015        -1.6059 
 220   0.0000      -0.046900        -1.2762 
 221   0.0000      -0.029406        -0.8002 
 222   0.0000      -0.017854        -0.4858 
 223   0.0000       0.012001         0.3266 
 224   0.0000       0.015126         0.4116 
 225   0.0000       0.020361         0.5541 
 226   0.0000       0.024271         0.6605 
 227   0.0000       0.031427         0.8552 
 228   0.0000       0.049433         1.3451 
 229   0.0000       0.049891         1.3576 
 230   0.0000       0.055515         1.5106 
 231   0.0000       0.063322         1.7231 
 232   0.0000       0.064003         1.7416 
 233   0.0000       0.067526         1.8375 
 234   0.0000       0.069483         1.8907 
 235   0.0000       0.070616         1.9216 
 236   0.0000       0.089242         2.4284 
 237   0.0000       0.102186         2.7806 
 238   0.0000       0.102528         2.7899 
 239   0.0000       0.103082         2.8050 
 240   0.0000       0.103707         2.8220 
 241   0.0000       0.107869         2.9353 
 242   0.0000       0.110959         3.0193 
 243   0.0000       0.117533         3.1982 
 244   0.0000       0.120924         3.2905 
 245   0.0000       0.121963         3.3188 
 246   0.0000       0.123326         3.3559 
 247   0.0000       0.127412         3.4671 
 248   0.0000       0.129510         3.5241 
 249   0.0000       0.133783         3.6404 
 250   0.0000       0.136941         3.7264 
 251   0.0000       0.146451         3.9851 
 252   0.0000       0.147811         4.0221 
 253   0.0000       0.148328         4.0362 
 254   0.0000       0.154830         4.2131 
 255   0.0000       0.158386         4.3099 
 256   0.0000       0.161672         4.3993 
 257   0.0000       0.168014         4.5719 
 258   0.0000       0.171928         4.6784 
 259   0.0000       0.173188         4.7127 
 260   0.0000       0.176249         4.7960 
 261   0.0000       0.178559         4.8588 
 262   0.0000       0.187805         5.1104 
 263   0.0000       0.187876         5.1124 
 264   0.0000       0.189754         5.1635 
 265   0.0000       0.195371         5.3163 
 266   0.0000       0.201541         5.4842 
 267   0.0000       0.202968         5.5231 
 268   0.0000       0.205590         5.5944 
 269   0.0000       0.206089         5.6080 
 270   0.0000       0.209330         5.6962 
 271   0.0000       0.214775         5.8443 
 272   0.0000       0.225954         6.1485 
 273   0.0000       0.229627         6.2485 
 274   0.0000       0.232850         6.3362 
 275   0.0000       0.239212         6.5093 
 276   0.0000       0.247914         6.7461 
 277   0.0000       0.254706         6.9309 
 278   0.0000       0.262441         7.1414 
 279   0.0000       0.265665         7.2291 
 280   0.0000       0.282544         7.6884 
 281   0.0000       0.284594         7.7442 
 282   0.0000       0.289457         7.8765 
 283   0.0000       0.290626         7.9083 
 284   0.0000       0.296454         8.0669 
 285   0.0000       0.297398         8.0926 
 286   0.0000       0.302289         8.2257 
 287   0.0000       0.303657         8.2629 
 288   0.0000       0.307132         8.3575 
 289   0.0000       0.307722         8.3735 
 290   0.0000       0.316392         8.6095 
 291   0.0000       0.319278         8.6880 
 292   0.0000       0.322759         8.7827 
 293   0.0000       0.327448         8.9103 
 294   0.0000       0.330287         8.9876 
 295   0.0000       0.337285         9.1780 
 296   0.0000       0.340799         9.2736 
 297   0.0000       0.346452         9.4274 
 298   0.0000       0.349821         9.5191 
 299   0.0000       0.353132         9.6092 
 300   0.0000       0.355023         9.6607 
 301   0.0000       0.359327         9.7778 
 302   0.0000       0.363037         9.8787 
 303   0.0000       0.365723         9.9518 
 304   0.0000       0.368058        10.0154 
 305   0.0000       0.372934        10.1480 
 306   0.0000       0.375213        10.2101 
 307   0.0000       0.379219        10.3191 
 308   0.0000       0.381350        10.3771 
 309   0.0000       0.387412        10.5420 
 310   0.0000       0.389664        10.6033 
 311   0.0000       0.394537        10.7359 
 312   0.0000       0.395691        10.7673 
 313   0.0000       0.397810        10.8250 
 314   0.0000       0.399649        10.8750 
 315   0.0000       0.399928        10.8826 
 316   0.0000       0.401902        10.9363 
 317   0.0000       0.405607        11.0371 
 318   0.0000       0.407687        11.0937 
 319   0.0000       0.408488        11.1155 
 320   0.0000       0.410868        11.1803 
 321   0.0000       0.417006        11.3473 
 322   0.0000       0.422123        11.4865 
 323   0.0000       0.422669        11.5014 
 324   0.0000       0.428366        11.6564 
 325   0.0000       0.430452        11.7132 
 326   0.0000       0.434713        11.8292 
 327   0.0000       0.437197        11.8967 
 328   0.0000       0.442034        12.0284 
 329   0.0000       0.443216        12.0605 
 330   0.0000       0.444571        12.0974 
 331   0.0000       0.449249        12.2247 
 332   0.0000       0.454352        12.3636 
 333   0.0000       0.460087        12.5196 
 334   0.0000       0.462983        12.5984 
 335   0.0000       0.465972        12.6797 
 336   0.0000       0.469990        12.7891 
 337   0.0000       0.473029        12.8718 
 338   0.0000       0.479669        13.0525 
 339   0.0000       0.483446        13.1552 
 340   0.0000       0.485467        13.2102 
 341   0.0000       0.488594        13.2953 
 342   0.0000       0.492692        13.4068 
 343   0.0000       0.495309        13.4780 
 344   0.0000       0.496172        13.5015 
 345   0.0000       0.499237        13.5849 
 346   0.0000       0.500092        13.6082 
 347   0.0000       0.502240        13.6667 
 348   0.0000       0.502708        13.6794 
 349   0.0000       0.510196        13.8831 
 350   0.0000       0.512815        13.9544 
 351   0.0000       0.514052        13.9881 
 352   0.0000       0.517612        14.0849 
 353   0.0000       0.521383        14.1876 
 354   0.0000       0.522220        14.2103 
 355   0.0000       0.523140        14.2354 
 356   0.0000       0.529001        14.3948 
 357   0.0000       0.530341        14.4313 
 358   0.0000       0.533840        14.5265 
 359   0.0000       0.534997        14.5580 
 360   0.0000       0.536591        14.6014 
 361   0.0000       0.540062        14.6958 
 362   0.0000       0.541508        14.7352 
 363   0.0000       0.545207        14.8358 
 364   0.0000       0.547795        14.9063 
 365   0.0000       0.549793        14.9606 
 366   0.0000       0.550289        14.9741 
 367   0.0000       0.558878        15.2078 
 368   0.0000       0.562323        15.3016 
 369   0.0000       0.565405        15.3855 
 370   0.0000       0.566908        15.4263 
 371   0.0000       0.569258        15.4903 
 372   0.0000       0.571616        15.5545 
 373   0.0000       0.572868        15.5885 
 374   0.0000       0.575403        15.6575 
 375   0.0000       0.577230        15.7072 
 376   0.0000       0.580273        15.7900 
 377   0.0000       0.583672        15.8825 
 378   0.0000       0.586144        15.9498 
 379   0.0000       0.588300        16.0085 
 380   0.0000       0.592827        16.1317 
 381   0.0000       0.595704        16.2099 
 382   0.0000       0.599873        16.3234 
 383   0.0000       0.603022        16.4091 
 384   0.0000       0.607231        16.5236 
 385   0.0000       0.612878        16.6772 
 386   0.0000       0.618312        16.8251 
 387   0.0000       0.620397        16.8819 
 388   0.0000       0.623972        16.9791 
 389   0.0000       0.625451        17.0194 
 390   0.0000       0.626393        17.0450 
 391   0.0000       0.634150        17.2561 
 392   0.0000       0.640407        17.4264 
 393   0.0000       0.642145        17.4736 
 394   0.0000       0.644909        17.5489 
 395   0.0000       0.651702        17.7337 
 396   0.0000       0.653137        17.7727 
 397   0.0000       0.656006        17.8508 
 398   0.0000       0.656741        17.8708 
 399   0.0000       0.663804        18.0630 
 400   0.0000       0.664657        18.0862 
 401   0.0000       0.667671        18.1683 
 402   0.0000       0.674156        18.3447 
 403   0.0000       0.678411        18.4605 
 404   0.0000       0.681186        18.5360 
 405   0.0000       0.684041        18.6137 
 406   0.0000       0.687280        18.7018 
 407   0.0000       0.690276        18.7834 
 408   0.0000       0.690884        18.7999 
 409   0.0000       0.693274        18.8649 
 410   0.0000       0.694049        18.8860 
 411   0.0000       0.696437        18.9510 
 412   0.0000       0.697982        18.9931 
 413   0.0000       0.701531        19.0896 
 414   0.0000       0.702509        19.1162 
 415   0.0000       0.703813        19.1517 
 416   0.0000       0.706249        19.2180 
 417   0.0000       0.707557        19.2536 
 418   0.0000       0.712517        19.3886 
 419   0.0000       0.714225        19.4350 
 420   0.0000       0.714734        19.4489 
 421   0.0000       0.717682        19.5291 
 422   0.0000       0.719925        19.5902 
 423   0.0000       0.720414        19.6035 
 424   0.0000       0.722281        19.6543 
 425   0.0000       0.724356        19.7107 
 426   0.0000       0.726682        19.7740 
 427   0.0000       0.729496        19.8506 
 428   0.0000       0.730638        19.8817 
 429   0.0000       0.735269        20.0077 
 430   0.0000       0.736579        20.0433 
 431   0.0000       0.737684        20.0734 
 432   0.0000       0.740087        20.1388 
 433   0.0000       0.742294        20.1988 
 434   0.0000       0.744153        20.2494 
 435   0.0000       0.748239        20.3606 
 436   0.0000       0.749476        20.3943 
 437   0.0000       0.751112        20.4388 
 438   0.0000       0.754134        20.5210 
 439   0.0000       0.755531        20.5590 
 440   0.0000       0.757285        20.6068 
 441   0.0000       0.758633        20.6435 
 442   0.0000       0.760654        20.6984 
 443   0.0000       0.763625        20.7793 
 444   0.0000       0.766628        20.8610 
 445   0.0000       0.769766        20.9464 
 446   0.0000       0.774235        21.0680 
 447   0.0000       0.776820        21.1383 
 448   0.0000       0.778403        21.1814 
 449   0.0000       0.782947        21.3051 
 450   0.0000       0.786126        21.3916 
 451   0.0000       0.790787        21.5184 
 452   0.0000       0.792093        21.5539 
 453   0.0000       0.793383        21.5890 
 454   0.0000       0.799336        21.7510 
 455   0.0000       0.801594        21.8125 
 456   0.0000       0.802593        21.8397 
 457   0.0000       0.803264        21.8579 
 458   0.0000       0.808366        21.9968 
 459   0.0000       0.809752        22.0345 
 460   0.0000       0.812347        22.1051 
 461   0.0000       0.817137        22.2354 
 462   0.0000       0.818683        22.2775 
 463   0.0000       0.825099        22.4521 
 464   0.0000       0.826165        22.4811 
 465   0.0000       0.831607        22.6292 
 466   0.0000       0.833578        22.6828 
 467   0.0000       0.835037        22.7225 
 468   0.0000       0.840812        22.8797 
 469   0.0000       0.843090        22.9416 
 470   0.0000       0.848120        23.0785 
 471   0.0000       0.852761        23.2048 
 472   0.0000       0.856501        23.3066 
 473   0.0000       0.859315        23.3831 
 474   0.0000       0.862222        23.4623 
 475   0.0000       0.866032        23.5659 
 476   0.0000       0.873069        23.7574 
 477   0.0000       0.873839        23.7784 
 478   0.0000       0.876580        23.8529 
 479   0.0000       0.881789        23.9947 
 480   0.0000       0.882459        24.0129 
 481   0.0000       0.885218        24.0880 
 482   0.0000       0.890874        24.2419 
 483   0.0000       0.894539        24.3416 
 484   0.0000       0.901877        24.5413 
 485   0.0000       0.903601        24.5882 
 486   0.0000       0.910289        24.7702 
 487   0.0000       0.910798        24.7841 
 488   0.0000       0.916265        24.9328 
 489   0.0000       0.918189        24.9852 
 490   0.0000       0.922018        25.0894 
 491   0.0000       0.923454        25.1285 
[...]
B( 27-C , 64-H ) :   1.0018 B( 28-C , 29-C ) :   1.2771 B( 28-C , 33-C ) :   1.1413 
B( 29-C , 30-C ) :   1.3843 B( 29-C , 31-S ) :   1.0452 B( 30-C , 65-H ) :   1.0009 
B( 31-S , 32-C ) :   1.0519 B( 32-C , 33-C ) :   1.5792 B( 32-C , 34-C ) :   1.1380 
B( 33-C , 66-H ) :   0.9807 B( 34-C , 35-S ) :   1.1271 B( 34-C , 36-C ) :   1.5610 
B( 35-S , 44-C ) :   1.1242 B( 36-C , 37-C ) :   0.9078 B( 36-C , 43-C ) :   1.2399 
B( 37-C , 38-O ) :   2.1080 B( 37-C , 39-N ) :   1.0856 B( 39-N , 40-C ) :   0.9408 
B( 39-N , 41-C ) :   1.0664 B( 40-C , 67-H ) :   0.9608 B( 40-C , 68-H ) :   0.9783 
B( 40-C , 69-H ) :   0.9717 B( 41-C , 42-O ) :   2.2043 B( 41-C , 43-C ) :   0.8891 
B( 43-C , 44-C ) :   1.5703 B( 44-C , 45-C ) :   1.0991 B( 45-C , 46-S ) :   1.1319 
B( 45-C , 47-C ) :   0.1038 B( 45-C , 52-C ) :   1.4745 B( 46-S , 47-C ) :   1.1195 
B( 47-C , 48-N ) :   0.9460 B( 47-C , 51-C ) :   1.4924 B( 48-N , 49-O ) :   1.5459 
B( 48-N , 50-O ) :   1.5228 B( 49-O , 50-O ) :   0.2687 B( 51-C , 52-C ) :   1.2174 
B( 51-C , 70-H ) :   1.0016 B( 52-C , 53-C ) :   1.0839 B( 53-C , 54-C ) :   1.9627 
B( 53-C , 71-H ) :   0.9489 B( 54-C , 72-H ) :   0.9556 B( 54-C , 73-H ) :   0.9484 


-------
TIMINGS
-------

Total SCF time: 0 days 0 hours 5 min 34 sec 

Total time                  ....     334.576 sec
Sum of individual times     ....     333.040 sec  ( 99.5%)

Fock matrix formation       ....     307.771 sec  ( 92.0%)
  Split-RI-J                ....      32.859 sec  ( 10.7% of F)
  Chain of spheres X        ....     253.779 sec  ( 82.5% of F)
  COS-X 1 center corr.      ....       0.000 sec  (  0.0% of F)
  XC integration            ....      20.236 sec  (  6.6% of F)
    Basis function eval.    ....       4.926 sec  ( 24.3% of XC)
    Density eval.           ....       3.365 sec  ( 16.6% of XC)
    XC-Functional eval.     ....       4.174 sec  ( 20.6% of XC)
    XC-Potential eval.      ....       3.104 sec  ( 15.3% of XC)
Diagonalization             ....       1.497 sec  (  0.4%)
Density matrix formation    ....       0.350 sec  (  0.1%)
Population analysis         ....       0.178 sec  (  0.1%)
Initial guess               ....       1.838 sec  (  0.5%)
Orbital Transformation      ....       0.000 sec  (  0.0%)
Orbital Orthonormalization  ....       0.000 sec  (  0.0%)
DIIS solution               ....       0.672 sec  (  0.2%)
SOSCF solution              ....       2.047 sec  (  0.6%)
Grid generation             ....      18.687 sec  (  5.6%)


           ************************************************************
           *        Program running with 6 parallel MPI-processes     *
           *              working on a common directory               *
           ************************************************************

---------------------------------------------------------------------------------

                       ORCA sTD-DFT CALCULATION

                       please cite in your paper           
 orginal sTDA method:  S. Grimme, J. Chem. Phys. 138, 244104 (2013)           
 range-separated sTDA: T. Risthaus, A. Hansen, S. Grimme, Phys. Chem. Chem. Phys.
                       16, 14408-14419 (2014) 
 sTD-DFT approach:     C. Bannwarth, S. Grimme, Comp. Theor. Chem. 
                       1040-1041, 45-53 (2014)

---------------------------------------------------------------------------------


spectral range up to (eV)      ...    5.000000
occ. MO cut-off (eV)           ...   -15.210559
virt. MO cut-off (eV)          ...    6.342687
perturbation threshold         ...   1.000e-04 
MOs in sTD-DFT                 ...         126 
occ. MOs in sTD-DFT            ...          68 
virt. in sTD-DFT               ...          58 
calculate triplets           ...   no  

Calculating the dipole lengths integrals ... 
Transforming integrals ... 
Calculating the dipole velocity integrals ... 
Transforming integrals ... 
Calculating magnetic dipole integrals ... 
Transforming integrals ... 

































SCF atom population (using active MOs):

   2.227   3.551   1.800   0.398   2.966   2.928   1.963   2.022   2.133   2.031
   2.103   2.102   2.071   2.134   3.707   2.272   2.025   2.157   2.217   3.747
   2.082   2.028   2.055   2.056   2.008   2.122   3.676   2.228   2.003   2.113
   2.190   3.696   2.028   1.986   1.836   3.583   1.772   1.201   3.970   1.733
   2.251   1.245   4.172   1.756   1.867   1.978   3.500   1.729   0.392   2.950
   2.941   1.991   2.017   2.257   2.662   0.432   0.433   0.503   0.454   0.381
   0.578   0.525   0.373   0.386   0.544   0.527   0.391   0.582   0.574   0.579
   0.437   0.496   0.558   0.617

Number of electrons in sTDA:  136.000

ax(DF)   :  0.3800
s^k      :  2.0000
beta  (J):  1.8600
alpha (K):  0.9000

hardness table read
setting up gammas ...
computing q(ij,n)
memory needed for q data:             3.4 MB 
memory available for q data:       2489.3 MB 

CSF included by energy:           19 
CSF considered in PT2:          3925 

ordered frontier orbitals
           eV         # centers 
  57      -9.391       6.0
  58      -9.302       6.7
  59      -9.118      20.7
  60      -9.043       9.3
  61      -9.017      22.2
  62      -8.500      16.1
  63      -8.078      25.6
  64      -7.719      12.8
  65      -7.654      13.2
  66      -7.216      21.4
  67      -6.697      24.7

  68      -2.171      21.6
  69      -1.773      38.0
  70      -1.606      12.2
  71      -1.276      24.7
  72      -0.800      13.4
  73      -0.486      24.6
  74       0.327      11.7
  75       0.412      14.8
  76       0.554       8.4
  77       0.660       8.1
  78       0.855      28.5

           eV        nm       excitation i->a                     eV 
   0      3.25     381.3    67 ->  68      gap,J,K:    4.527     1.453     0.089
   1      3.56     348.1    67 ->  69      gap,J,K:    4.924     1.704     0.171
   2      3.69     336.3    66 ->  68      gap,J,K:    5.045     1.639     0.140
   3      3.83     323.9    67 ->  70      gap,J,K:    5.091     1.414     0.075
   4      3.86     321.6    64 ->  68      gap,J,K:    5.548     1.979     0.143
   5      4.01     308.9    67 ->  71      gap,J,K:    5.421     1.825     0.209
   6      4.06     305.3    66 ->  69      gap,J,K:    5.442     1.701     0.160
   7      4.41     281.1    65 ->  68      gap,J,K:    5.483     1.198     0.063
   8      4.41     280.9    66 ->  70      gap,J,K:    5.610     1.336     0.070
   9      4.47     277.5    63 ->  68      gap,J,K:    5.907     1.825     0.193
  10      4.47     277.2    64 ->  69      gap,J,K:    5.946     1.716     0.122
  11      4.53     274.0    65 ->  69      gap,J,K:    5.881     1.645     0.145
  12      4.53     273.4    66 ->  71      gap,J,K:    5.939     1.746     0.171
  13      4.65     266.4    65 ->  70      gap,J,K:    6.048     1.561     0.083
  14      4.68     264.9    62 ->  68      gap,J,K:    6.329     2.078     0.215
  15      4.74     261.5    67 ->  73      gap,J,K:    6.211     2.037     0.284
  16      4.78     259.6    67 ->  72      gap,J,K:    5.897     1.190     0.034
  17      4.83     256.8    65 ->  71      gap,J,K:    6.378     1.898     0.175
  18      4.93     251.7    63 ->  69      gap,J,K:    6.304     1.674     0.148









average / max PT2 energy lowering (eV):       0.048       0.103

CSF included by PT:                   158 
total number of CSF included:         177 
 
sTD-DFT procedure...
setting up A+B and A-B matrices...  done
estimated time (min):    0.000
calculating (A-B)^0.5 ... done
calculating (A+B)*(A-B)^0.5 ... done
calculating (A-B)^0.5 *(A+B)*(A-B)^0.5 ... done
diagonalizing ...using LAPACKE_ssyevr ...done

   23 roots found, lowest/highest eigenvalue :     2.841     4.939

excitation energies, transition moments and amplitudes

molecular weight:  850.016
state   eV        nm        fL         fV        Rl        RV
   0   2.841     436.4   2.802930   2.796044  309.034330  114.077107     0.65 (  67->  68)    0.14 (  66->  68)    0.12 (  67->  69)
   1   3.247     381.8   0.406775   0.399835  -162.734043  -220.839870     0.59 (  67->  69)    0.23 (  66->  68)    0.03 (  63->  68)
   2   3.394     365.3   0.058045   0.058050  11.602833  35.649282     0.31 (  66->  69)    0.24 (  64->  68)    0.13 (  66->  68)
   3   3.484     355.9   0.113834   0.094621  -91.799930  -54.013656     0.57 (  67->  70)    0.10 (  66->  70)    0.08 (  64->  68)
   4   3.596     344.8   0.105829   0.090265   8.699568  35.448590     0.41 (  64->  68)    0.12 (  67->  71)    0.11 (  66->  69)
   5   3.691     335.9   0.491846   0.464790  143.731820  158.803231     0.47 (  67->  71)    0.11 (  63->  68)    0.09 (  66->  68)
   6   3.758     329.9   0.160069   0.132010  -112.889871  -88.535115     0.18 (  65->  69)    0.18 (  65->  68)    0.14 (  63->  68)
   7   3.938     314.9   0.009878   0.008613  34.303955  20.881293     0.22 (  62->  68)    0.16 (  65->  69)    0.13 (  66->  68)
   8   4.081     303.8   0.075718   0.062765  -9.897641  -7.548769     0.32 (  66->  69)    0.16 (  64->  69)    0.09 (  66->  68)
   9   4.186     296.2   0.046909   0.040064  -63.219655  -52.145934     0.25 (  66->  71)    0.24 (  67->  73)    0.07 (  67->  72)
  10   4.227     293.3   0.130763   0.112154  86.734268  36.560943     0.28 (  64->  69)    0.15 (  62->  68)    0.08 (  63->  68)
  11   4.319     287.1   0.073718   0.067578  111.088333  71.412272     0.20 (  63->  69)    0.13 (  65->  70)    0.09 (  62->  68)
  12   4.340     285.7   0.049797   0.045443  27.797205  22.256909     0.29 (  67->  72)    0.16 (  66->  72)    0.08 (  66->  70)
  13   4.413     280.9   0.025116   0.020967   8.228292   8.722664     0.24 (  67->  73)    0.20 (  65->  70)    0.10 (  65->  68)
  14   4.472     277.3   0.025729   0.017015  -130.444817  -100.732680     0.22 (  65->  71)    0.17 (  65->  70)    0.08 (  67->  73)
  15   4.547     272.6   0.054473   0.045029  -26.265276  -21.863049     0.20 (  64->  71)    0.15 (  66->  70)    0.09 (  65->  68)
  16   4.586     270.3   0.006937   0.005105   0.011292  -0.344857     0.23 (  66->  70)    0.15 (  67->  70)    0.11 (  66->  71)
  17   4.699     263.9   0.050779   0.041074   3.747841   9.030356     0.16 (  63->  68)    0.13 (  62->  68)    0.11 (  61->  68)
  18   4.744     261.3   0.255971   0.213463   5.582077   9.452138     0.20 (  62->  69)    0.15 (  63->  71)    0.09 (  64->  71)
  19   4.842     256.1   0.027083   0.020427  44.166496  24.168869     0.16 (  63->  72)    0.13 (  62->  72)    0.12 (  64->  72)
  20   4.866     254.8   0.012348   0.010896  -18.766035  -19.847199     0.12 (  65->  68)    0.10 (  65->  69)    0.09 (  67->  74)
  21   4.908     252.6   0.090933   0.077736  54.255215  37.632931     0.13 (  59->  68)    0.11 (  67->  74)    0.10 (  66->  74)
  22   4.939     251.0   0.067633   0.057741   1.459262  -15.513254     0.17 (  56->  68)    0.10 (  59->  68)    0.09 (  61->  68)

-----------------------------------------------------------------------------
         ABSORPTION SPECTRUM VIA TRANSITION ELECTRIC DIPOLE MOMENTS
-----------------------------------------------------------------------------
State   Energy  Wavelength   fosc         T2         TX        TY        TZ  
        (cm-1)    (nm)                  (au**2)     (au)      (au)      (au) 
-----------------------------------------------------------------------------
   0   22915.4    436.4   2.802930255  40.26811  -1.69470   1.95514   5.79427
   1   26189.1    381.8   0.406774798   5.11339   1.14323  -1.34242  -1.41574
   2   27374.2    365.3   0.058044780   0.69807  -0.18826  -0.07864   0.81021
   3   28100.7    355.9   0.113833938   1.33361  -0.45679   1.06009  -0.03424
   4   29000.3    344.8   0.105829274   1.20138  -0.28390   0.85097   0.62978
   5   29773.0    335.9   0.491846011   5.43854  -0.92910   0.57409   2.06052
   6   30312.4    329.9   0.160068587   1.73845   0.68269  -1.11293  -0.18380
   7   31758.4    314.9   0.009877746   0.10239   0.30155   0.10128   0.03466
   8   32917.2    303.8   0.075717854   0.75727  -0.43397   0.67275   0.34110
   9   33759.8    296.2   0.046909349   0.45744   0.30760  -0.55800   0.22683
  10   34093.7    293.3   0.130763215   1.26266  -0.45374   0.69007  -0.76196
  11   34836.1    287.1   0.073717712   0.69666  -0.05302   0.02712  -0.83253
  12   35002.0    285.7   0.049796637   0.46836   0.48679  -0.17026  -0.44990
  13   35593.6    280.9   0.025115958   0.23230  -0.31817   0.23560   0.27489
  14   36065.6    277.3   0.025729119   0.23486  -0.09633   0.40401  -0.24970
  15   36678.0    272.6   0.054473254   0.48894  -0.19230   0.40189   0.53893
  16   36991.9    270.3   0.006937254   0.06174   0.03828  -0.14592   0.19743
  17   37897.9    263.9   0.050779457   0.44111  -0.32399   0.23862  -0.52839
  18   38265.7    261.3   0.255971450   2.20220  -0.82518   1.00163   0.71973
  19   39053.7    256.1   0.027083079   0.22830   0.43256  -0.18024   0.09335
  20   39247.3    254.8   0.012347686   0.10357   0.15197   0.10244  -0.26454
  21   39587.9    252.6   0.090932654   0.75619   0.09693  -0.27700   0.81858
  22   39839.7    251.0   0.067632810   0.55888  -0.04701   0.01137  -0.74602

-----------------------------------------------------------------------------
         ABSORPTION SPECTRUM VIA TRANSITION VELOCITY DIPOLE MOMENTS
-----------------------------------------------------------------------------
State   Energy  Wavelength   fosc         P2         PX        PY        PZ  
        (cm-1)    (nm)                  (au**2)     (au)      (au)      (au) 
-----------------------------------------------------------------------------
   0   22915.4    436.4   2.796044205   0.43790  -0.17793   0.20955   0.60194
   1   26189.1    381.8   0.399835264   0.07157   0.13715  -0.16113  -0.16369
   2   27374.2    365.3   0.058050249   0.01086  -0.02058  -0.01548   0.10098
   3   28100.7    355.9   0.094621034   0.01817  -0.05362   0.12367   0.00195
   4   29000.3    344.8   0.090265492   0.01789  -0.03238   0.10135   0.08106
   5   29773.0    335.9   0.464789984   0.09458  -0.12089   0.07440   0.27281
   6   30312.4    329.9   0.132009548   0.02735   0.08669  -0.13855  -0.02523
   7   31758.4    314.9   0.008613269   0.00187   0.03610   0.02113   0.01094
   8   32917.2    303.8   0.062765213   0.01412  -0.05919   0.09174   0.04691
   9   33759.8    296.2   0.040063512   0.00924   0.04463  -0.07957   0.03033
  10   34093.7    293.3   0.112153840   0.02613  -0.06319   0.09459  -0.11486
  11   34836.1    287.1   0.067578484   0.01609  -0.00381  -0.00145  -0.12678
  12   35002.0    285.7   0.045443021   0.01087   0.07457  -0.02999  -0.06641
  13   35593.6    280.9   0.020966567   0.00510  -0.04724   0.03392   0.04146
  14   36065.6    277.3   0.017015152   0.00419  -0.01369   0.05636  -0.02881
  15   36678.0    272.6   0.045028703   0.01129  -0.02864   0.06075   0.08232
  16   36991.9    270.3   0.005105029   0.00129   0.00518  -0.02139   0.02840
  17   37897.9    263.9   0.041073937   0.01064  -0.05215   0.03818  -0.08038
  18   38265.7    261.3   0.213462601   0.05583  -0.13063   0.15982   0.11497
  19   39053.7    256.1   0.020426504   0.00545   0.06710  -0.02419   0.01910
  20   39247.3    254.8   0.010895672   0.00292   0.02760   0.01196  -0.04492
  21   39587.9    252.6   0.077735661   0.02103   0.01454  -0.04374   0.13750
  22   39839.7    251.0   0.057740826   0.01572  -0.00525  -0.00174  -0.12526

-------------------------------------------------------------------
                             CD SPECTRUM
-------------------------------------------------------------------
State   Energy Wavelength       R         MX        MY        MZ   
        (cm-1)   (nm)       (1e40*cgs)   (au)      (au)      (au)  
-------------------------------------------------------------------
   0   22915.4    436.4    309.03433  -5.10671  11.80575  -5.70343
   1   26189.1    381.8    -162.73404   4.53412  -1.59541   4.68649
   2   27374.2    365.3     11.60283  -0.11590   2.18267   0.12417
   3   28100.7    355.9    -91.79993   0.41964   0.46147  -2.68446
   4   29000.3    344.8      8.69957  -1.17951   1.24771  -2.27625
   5   29773.0    335.9    143.73182  -0.65545   5.74271  -2.19146
   6   30312.4    329.9    -112.88987   0.21686  -0.86865   3.45957
   7   31758.4    314.9     34.30396  -0.71930   0.86590  -0.47090
   8   32917.2    303.8     -9.89764  -1.18064   0.48829  -2.34205
   9   33759.8    296.2    -63.21966  -0.15306   0.25928   2.02774
  10   34093.7    293.3     86.73427  -1.47361  -4.13840  -2.38752
  11   34836.1    287.1    111.08833   0.45974  -3.88975   0.41007
  12   35002.0    285.7     27.79720   0.54133  -0.18050   0.91613
  13   35593.6    280.9      8.22829  -0.61487   0.17144  -0.98561
  14   36065.6    277.3    -130.44482   2.51964   1.31867  -1.05460
  15   36678.0    272.6    -26.26528  -0.36943   1.93937  -1.37130
  16   36991.9    270.3      0.01129  -0.95360   0.14461   0.29154
  17   37897.9    263.9      3.74784  -0.45575  -2.92509  -1.01143
  18   38265.7    261.3      5.58208  -2.57479   0.87461  -4.20211
  19   39053.7    256.1     44.16650   0.25666   2.01654   0.69700
  20   39247.3    254.8    -18.76603   0.26601  -0.19508  -0.22366
  21   39587.9    252.6     54.25521   0.99114   4.15830   1.00861
  22   39839.7    251.0      1.45926  -0.62952  -4.00846  -0.01315

sTD-DFT done

Total run time:        1.847 sec

           *** ORCA-CIS/TD-DFT FINISHED WITHOUT ERROR ***

-------------------------   --------------------
FINAL SINGLE POINT ENERGY     -4896.922163983027
-------------------------   --------------------


                            ***************************************
                            *     ORCA property calculations      *
                            ***************************************

                                    ---------------------
                                    Active property flags
                                    ---------------------
   (+) Dipole Moment


------------------------------------------------------------------------------
                       ORCA ELECTRIC PROPERTIES CALCULATION
------------------------------------------------------------------------------

Dipole Moment Calculation                       ... on
Quadrupole Moment Calculation                   ... off
Polarizability Calculation                      ... off
GBWName                                         ... xtbopt.gbw
Electron density file                           ... xtbopt.scfp
The origin for moment calculation is the CENTER OF MASS  = (19.149152,  7.936132 -6.664131)

-------------
DIPOLE MOMENT
-------------
                                X             Y             Z
Electronic contribution:    -11.52237      15.53402      -1.97221
Nuclear contribution   :     13.01607     -16.85334       3.43039
                        -----------------------------------------
Total Dipole Moment    :      1.49370      -1.31932       1.45817
                        -----------------------------------------
Magnitude (a.u.)       :      2.46942
Magnitude (Debye)      :      6.27676



--------------------
Rotational spectrum 
--------------------
 
Rotational constants in cm-1:     0.004770     0.000207     0.000200 
Rotational constants in MHz :   143.013153     6.214235     5.990429 

 Dipole components along the rotational axes: 
x,y,z [a.u.] :     0.177525    -2.380249    -0.633178 
x,y,z [Debye]:     0.451233    -6.050111    -1.609410 

 

Timings for individual modules:

Sum of individual times         ...      340.115 sec (=   5.669 min)
GTO integral calculation        ...        2.231 sec (=   0.037 min)   0.7 %
SCF iterations                  ...      335.264 sec (=   5.588 min)  98.6 %
CIS module                      ...        2.620 sec (=   0.044 min)   0.8 %
                             ****ORCA TERMINATED NORMALLY****
TOTAL RUN TIME: 0 days 0 hours 5 minutes 41 seconds 41 msec
