      -----------------------------------------------------------      
     |                   =====================                   |     
     |                           x T B                           |     
     |                   =====================                   |     
     |                         S. Grimme                         |     
     |          Mulliken Center for Theoretical Chemistry        |     
     |                    University of Bonn                     |     
     |                Version 6.2 RC2 (SAW190805)                |     
      -----------------------------------------------------------      

   This program is distributed in the hope that it will be useful,
   but WITHOUT ANY WARRANTY; without even the implied warranty of
   MERCHANTABILITY or FITNESS FOR A PARTICULAR PURPOSE.
   
   FOR NON-COMMERCIAL, ACADEMIA USE ONLY.
   
   Cite this work as:
   * S. Grimme, C. Bannwarth, P. Shushkov, J. Chem. Theory Comput., 2017,
     13, 1989-2009. DOI: 10.1021/acs.jctc.7b00118
   * C. Bannwarth, S. Ehlert and S. Grimme., J. Chem. Theory Comput., 2019,
     15, 1652-1671. DOI: 10.1021/acs.jctc.8b01176
   * P. Pracht, E. Caldeweyher, S. Ehlert, S. Grimme, ChemRxiv, 2019, preprint.
     DOI: 10.26434/chemrxiv.8326202.v1
   
   for DFT-D4:
   * E. Caldeweyher, C. Bannwarth and S. Grimme, J. Chem. Phys., 2017,
     147, 034112. DOI: 10.1063/1.4993215
   * E. Caldeweyher, S. Ehlert, A. Hansen, H. Neugebauer, S. Spicher,
     C. Bannwarth and S. Grimme, J. Chem. Phys., 2019, 150, 154122.
     DOI: 10.1063/1.5090222
   
   for sTDA-xTB:
   * S. Grimme and C. Bannwarth, J. Chem. Phys., 2016, 145, 054103.
     DOI: 10.1063/1.4959605
   
   in the mass-spec context:
   * V. Asgeirsson, C. Bauer and S. Grimme, Chem. Sci., 2017, 8, 4879.
     DOI: 10.1039/c7sc00601b
   
   for metadynamics refer to:
   * S. Grimme, J. Chem. Theory Comput., 2019, 155, 2847-2862
     DOI: 10.1021/acs.jctc.9b00143
   
   with help from (in alphabetical order)
   C. Bannwarth, F. Bohle, G. Brandenburg, E. Caldeweyher, M. Checinski,
   S. Dohm, S. Ehlert, S. Ehrlich, F. März, H. Neugebauer, J. Pisarek,
   P. Pracht, P. Shushkov, and S. Spicher.
   
 * started run on 2021/05/19 at 10:58:58.912     

           -------------------------------------------------
          |                Calculation Setup                |
           -------------------------------------------------

          program call               : /ihome/ghutchison/geoffh/xtb/xtb 223.xyz -opt
          hostname                   : smp-n83
          coordinate file            : 223.xyz
          omp threads                :                     1
          number of atoms            :                    22
          number of electrons        :                    72
          charge                     :                     0
          spin                       :                   0.0
          first test random number   :      0.54899058615053


########################################################################
# WARNING! Please study the warnings concerning your input carefully
#  - the use of '-opt' is discouraged, please use '--opt' next time
########################################################################

           ------------------------------------------------- 
          |                 G F N 2 - x T B                 |
          | Geometry, Frequencies, Noncovalent interactions |
          |            JCTC 2019 parametrisation            |
           ------------------------------------------------- 
             KAB for C  - Si     :                1.0500
             KAB for H  - Pd     :                0.9500
             k(s)              :                1.8500
             k(p)              :                2.2300
             k(d)              :                2.2300
             k(f)              :                2.0000
             kEN (H0ij)        :               -2.0000
             D4 a1             :                0.5200
             D4 a2             :                5.0000
             D4 s6             :                1.0000
             D4 s8             :                2.7000
             D4 s9             :                5.0000
             alphaj            :                2.0000

  Z AO/shell   Hii/eV     exponent
  1     Wed Apr 25 08:07:45 CEST 2018   EN: 2.200 GM2: 0.406  GM3: 0.0800  RAES: 1.40
     1s    -10.707211    1.230000
  6     Wed Apr 25 08:07:45 CEST 2018   EN: 2.550 GM2: 0.538  GM3: 0.1500  RAES: 3.00
     2s    -13.970922    2.096432
     2p    -10.063292    1.800000
  8     Wed Apr 25 08:07:45 CEST 2018   EN: 3.440 GM2: 0.452  GM3:-0.0517  RAES: 1.80
     2s    -20.229985    2.439742
     2p    -15.503117    2.137023
 16     Tue Apr 24 11:44:34 CEST 2018   EN: 2.580 GM2: 0.340  GM3:-0.0502  RAES: 3.10
     3s    -20.029654    1.981333
     3p    -11.377694    2.025643
     3d     -0.420282    1.702555

           ------------------------------------------------- 
          |        Self-Consistent Charge Iterations        |
           ------------------------------------------------- 

          ...................................................
          :                      SETUP                      :
          :.................................................:
          :  # basis functions                  76          :
          :  # atomic orbitals                  74          :
          :  # shells                           38          :
          :  # electrons                        72          :
          :  max. iterations                   250          :
          :  Hamiltonian                  GFN2-xTB          :
          :  restarted?                      false          :
          :  GBSA solvation                  false          :
          :  PC potential                    false          :
          :  electronic temp.          300.0000000     K    :
          :  accuracy                    1.0000000          :
          :  -> integral cutoff          0.2500000E+02      :
          :  -> integral neglect         0.1000000E-07      :
          :  -> SCF convergence          0.1000000E-05 Eh   :
          :  -> wf. convergence          0.1000000E-03 e    :
          :  Broyden damping             0.4000000          :
          ...................................................

 iter      E             dE          RMSdq      gap      omega  full diag
   1    -40.5210126 -0.405210E+02  0.525E+00    2.06       0.0  T
   2    -40.5615257 -0.405130E-01  0.277E+00    1.90       1.0  T
   3    -40.5447497  0.167759E-01  0.162E+00    2.08       1.0  T
   4    -40.5593059 -0.145562E-01  0.795E-01    1.91       1.0  T
   5    -40.5701664 -0.108604E-01  0.228E-01    1.92       1.0  T
   6    -40.5704612 -0.294825E-03  0.928E-02    1.92       1.0  T
   7    -40.5705411 -0.799373E-04  0.381E-02    1.92       1.0  T
   8    -40.5705567 -0.155301E-04  0.159E-02    1.92       1.3  T
   9    -40.5705564  0.265601E-06  0.102E-02    1.92       2.1  T
  10    -40.5705575 -0.111382E-05  0.291E-03    1.92       7.3  T
  11    -40.5705576 -0.354284E-07  0.166E-03    1.92      12.8  T
  12    -40.5705576 -0.160648E-07  0.801E-04    1.92      26.6  T
  13    -40.5705576 -0.114208E-08  0.399E-04    1.92      53.5  T

   *** convergence criteria satisfied after 13 iterations ***

         #    Occupation            Energy/Eh            Energy/eV
      -------------------------------------------------------------
         1        2.0000           -0.7488904             -20.3783
       ...           ...                  ...                  ...
        30        2.0000           -0.4494014             -12.2288
        31        2.0000           -0.4482548             -12.1976
        32        2.0000           -0.4475384             -12.1781
        33        2.0000           -0.4215549             -11.4711
        34        2.0000           -0.4134787             -11.2513
        35        2.0000           -0.4077277             -11.0948
        36        2.0000           -0.3724771             -10.1356 (HOMO)
        37                         -0.3019600              -8.2168 (LUMO)
        38                         -0.2724911              -7.4149
        39                         -0.2364665              -6.4346
        40                         -0.2093294              -5.6961
        41                         -0.2027719              -5.5177
       ...                                ...                  ...
        74                          0.7419929              20.1907
      -------------------------------------------------------------
                  HL-Gap            0.0705171 Eh            1.9189 eV
             Fermi-level           -0.3372186 Eh           -9.1762 eV

 SCC (total)                   0 d,  0 h,  0 min,  0.056 sec
 SCC setup                      ...        0 min,  0.000 sec (  0.543%)
 Dispersion                     ...        0 min,  0.000 sec (  0.555%)
 integral evaluation            ...        0 min,  0.011 sec ( 19.421%)
 zeroth order Hamiltonian       ...        0 min,  0.013 sec ( 23.441%)
 iterations                     ...        0 min,  0.016 sec ( 29.159%)
 molecular gradient             ...        0 min,  0.015 sec ( 26.116%)
 printout                       ...        0 min,  0.000 sec (  0.669%)

         :::::::::::::::::::::::::::::::::::::::::::::::::::::
         ::                     SUMMARY                     ::
         :::::::::::::::::::::::::::::::::::::::::::::::::::::
         :: total energy             -40.071463050419 Eh    ::
         :: gradient norm              0.107716050191 Eh/a0 ::
         :: HOMO-LUMO gap              1.918868106263 eV    ::
         ::.................................................::
         :: SCC energy               -40.570557576556 Eh    ::
         :: -> isotropic ES            0.046728192413 Eh    ::
         :: -> anisotropic ES          0.000735565649 Eh    ::
         :: -> anisotropic XC          0.012462883294 Eh    ::
         :: -> dispersion             -0.024188880380 Eh    ::
         :: repulsion energy           0.499219212066 Eh    ::
         :: add. restraining           0.000000000000 Eh    ::
         :::::::::::::::::::::::::::::::::::::::::::::::::::::

      ----------------------------------------------------------- 
     |                   =====================                   |
     |                        A N C O P T                        |
     |                   =====================                   |
     |               Approximate Normal Coordinate               |
     |                Rational Function Optimizer                |
      ----------------------------------------------------------- 

          ...................................................
          :                      SETUP                      :
          :.................................................:
          :   optimization level            normal          :
          :   max. optcycles                   200          :
          :   ANC micro-cycles                  20          :
          :   degrees of freedom                60          :
          :.................................................:
          :   RF solver                   davidson          :
          :   input Hessian                  false          :
          :   write xtbopt.log                true          :
          :   linear?                        false          :
          :   energy convergence         0.5000000E-05 Eh   :
          :   grad. convergence          0.1000000E-02 Eh/α :
          :   maximium RF displ.         2.0000000          :
          :   Hlow (freq-cutoff)         0.5000000E-02      :
          :   Hmax (freq-cutoff)         5.0000000          :
          :   S6 in model hess.         20.0000000          :
          ...................................................

generating ANC from model Hessian ...
Using Lindh-Hessian (1995)
 Shifting diagonal of input Hessian by   4.333210460679276E-003
 Lowest  eigenvalues of input Hessian
   -0.000000   -0.000000   -0.000000   -0.000000    0.000000    0.000000
    0.005000    0.007135    0.007689    0.007885    0.009979    0.012436
    0.013187    0.016705    0.021700    0.022928    0.023635    0.031096
 Highest eigenvalues
    1.728717    1.775985    1.876442    2.013704    2.088310    2.291762
 

........................................................................
.............................. CYCLE    1 ..............................
........................................................................
   1    -40.5705576 -0.405706E+02  0.200E-04    1.92       0.0  T
   2    -40.5705576  0.423483E-11  0.163E-04    1.92     130.5  T
   3    -40.5705576 -0.370143E-09  0.861E-05    1.92     247.7  T
     SCC iter.                  ...        0 min,  0.004 sec
     gradient                   ...        0 min,  0.015 sec
 * total energy  :   -40.0714631 Eh     change       -0.2523542E-07 Eh
   gradient norm :     0.1077164 Eh/α   predicted     0.0000000E+00 (-100.00%)
   displ. norm   :     0.2537991 α      lambda       -0.1653760E-01
   maximum displ.:     0.1059936 α      in ANC's #17, #23, #27, ...

........................................................................
.............................. CYCLE    2 ..............................
........................................................................
   1    -40.5957053 -0.405957E+02  0.328E-01    2.01       0.0  T
   2    -40.5958113 -0.106064E-03  0.200E-01    1.99       1.0  T
   3    -40.5956780  0.133336E-03  0.144E-01    1.99       1.0  T
   4    -40.5959707 -0.292716E-03  0.571E-02    1.99       1.0  T
   5    -40.5960035 -0.328496E-04  0.247E-02    1.98       1.0  T
   6    -40.5960065 -0.292349E-05  0.118E-02    1.99       1.8  T
   7    -40.5960085 -0.198552E-05  0.282E-03    1.99       7.6  T
   8    -40.5960085 -0.157443E-07  0.167E-03    1.99      12.8  T
     SCC iter.                  ...        0 min,  0.009 sec
     gradient                   ...        0 min,  0.014 sec
 * total energy  :   -40.0823253 Eh     change       -0.1086220E-01 Eh
   gradient norm :     0.0392338 Eh/α   predicted    -0.8801517E-02 ( -18.97%)
   displ. norm   :     0.1570971 α      lambda       -0.2989275E-02
   maximum displ.:     0.0867224 α      in ANC's #7, #17, #2, ...

........................................................................
.............................. CYCLE    3 ..............................
........................................................................
   1    -40.6025196 -0.406025E+02  0.178E-01    2.01       0.0  T
   2    -40.6025606 -0.410010E-04  0.996E-02    2.01       1.0  T
   3    -40.6025438  0.168168E-04  0.591E-02    2.01       1.0  T
   4    -40.6025839 -0.401327E-04  0.208E-02    2.01       1.0  T
   5    -40.6025864 -0.247268E-05  0.911E-03    2.01       2.3  T
   6    -40.6025869 -0.485029E-06  0.304E-03    2.01       7.0  T
   7    -40.6025869 -0.473536E-07  0.214E-03    2.01      10.0  T
     SCC iter.                  ...        0 min,  0.008 sec
     gradient                   ...        0 min,  0.014 sec
 * total energy  :   -40.0839792 Eh     change       -0.1653889E-02 Eh
   gradient norm :     0.0133773 Eh/α   predicted    -0.1531531E-02 (  -7.40%)
   displ. norm   :     0.0984558 α      lambda       -0.2854266E-03
   maximum displ.:     0.0679228 α      in ANC's #7, #2, #12, ...

........................................................................
.............................. CYCLE    4 ..............................
........................................................................
   1    -40.6009626 -0.406010E+02  0.611E-02    2.01       0.0  T
   2    -40.6009641 -0.152864E-05  0.360E-02    2.01       1.0  T
   3    -40.6009560  0.812355E-05  0.308E-02    2.01       1.0  T
   4    -40.6009693 -0.132903E-04  0.836E-03    2.01       2.5  T
   5    -40.6009698 -0.504702E-06  0.440E-03    2.01       4.9  T
   6    -40.6009700 -0.194524E-06  0.184E-03    2.01      11.6  T
   7    -40.6009700 -0.107734E-07  0.976E-04    2.01      21.8  T
     SCC iter.                  ...        0 min,  0.008 sec
     gradient                   ...        0 min,  0.014 sec
 * total energy  :   -40.0841852 Eh     change       -0.2059926E-03 Eh
   gradient norm :     0.0068737 Eh/α   predicted    -0.1441211E-03 ( -30.04%)
   displ. norm   :     0.1184883 α      lambda       -0.1585130E-03
   maximum displ.:     0.0791325 α      in ANC's #2, #7, #12, ...

........................................................................
.............................. CYCLE    5 ..............................
........................................................................
   1    -40.5999940 -0.406000E+02  0.673E-02    2.00       0.0  T
   2    -40.5999947 -0.620600E-06  0.420E-02    2.00       1.0  T
   3    -40.5999812  0.134733E-04  0.362E-02    2.01       1.0  T
   4    -40.6000009 -0.197308E-04  0.777E-03    2.01       2.7  T
   5    -40.6000013 -0.415004E-06  0.397E-03    2.01       5.4  T
   6    -40.6000015 -0.155174E-06  0.212E-03    2.01      10.1  T
   7    -40.6000015 -0.181505E-07  0.927E-04    2.01      23.0  T
     SCC iter.                  ...        0 min,  0.008 sec
     gradient                   ...        0 min,  0.014 sec
 * total energy  :   -40.0842815 Eh     change       -0.9635090E-04 Eh
   gradient norm :     0.0022474 Eh/α   predicted    -0.8036940E-04 ( -16.59%)
   displ. norm   :     0.0602685 α      lambda       -0.3090442E-04
   maximum displ.:     0.0478197 α      in ANC's #2, #7, #10, ...

........................................................................
.............................. CYCLE    6 ..............................
........................................................................
   1    -40.6003009 -0.406003E+02  0.359E-02    2.01       0.0  T
   2    -40.6003013 -0.333051E-06  0.216E-02    2.01       1.0  T
   3    -40.6002972  0.409432E-05  0.161E-02    2.01       1.3  T
   4    -40.6003018 -0.465931E-05  0.396E-03    2.01       5.4  T
   5    -40.6003020 -0.126340E-06  0.164E-03    2.01      13.0  T
   6    -40.6003020 -0.133897E-07  0.965E-04    2.01      22.1  T
   7    -40.6003020 -0.521054E-08  0.478E-04    2.01      44.6  T
     SCC iter.                  ...        0 min,  0.008 sec
     gradient                   ...        0 min,  0.015 sec
 * total energy  :   -40.0843035 Eh     change       -0.2203069E-04 Eh
   gradient norm :     0.0020074 Eh/α   predicted    -0.1551994E-04 ( -29.55%)
   displ. norm   :     0.0498653 α      lambda       -0.1958497E-04
   maximum displ.:     0.0425036 α      in ANC's #2, #7, #10, ...

........................................................................
.............................. CYCLE    7 ..............................
........................................................................
   1    -40.6007990 -0.406008E+02  0.295E-02    2.01       0.0  T
   2    -40.6007993 -0.304695E-06  0.175E-02    2.01       1.2  T
   3    -40.6007987  0.593615E-06  0.681E-03    2.01       3.1  T
   4    -40.6007993 -0.593293E-06  0.342E-03    2.01       6.2  T
   5    -40.6007994 -0.137401E-06  0.124E-03    2.01      17.1  T
   6    -40.6007994 -0.895744E-08  0.666E-04    2.01      32.0  T
   7    -40.6007994 -0.256333E-08  0.351E-04    2.01      60.7  T
     SCC iter.                  ...        0 min,  0.008 sec
     gradient                   ...        0 min,  0.015 sec
 * total energy  :   -40.0843171 Eh     change       -0.1357840E-04 Eh
   gradient norm :     0.0015955 Eh/α   predicted    -0.9818933E-05 ( -27.69%)
   displ. norm   :     0.0746913 α      lambda        0.2501237E-05
   maximum displ.:     0.0637600 α      in ANC's #2, #7, #10, ...

........................................................................
.............................. CYCLE    8 ..............................
........................................................................
   1    -40.6014630 -0.406015E+02  0.441E-02    2.01       0.0  T
   2    -40.6014637 -0.672094E-06  0.262E-02    2.01       1.0  T
   3    -40.6014623  0.140804E-05  0.105E-02    2.01       2.0  T
   4    -40.6014637 -0.143376E-05  0.506E-03    2.01       4.2  T
   5    -40.6014640 -0.290876E-06  0.188E-03    2.01      11.3  T
   6    -40.6014640 -0.212255E-07  0.101E-03    2.01      21.1  T
   7    -40.6014640 -0.637939E-08  0.533E-04    2.01      40.0  T
   8    -40.6014640 -0.108521E-08  0.252E-04    2.01      84.5  T
     SCC iter.                  ...        0 min,  0.009 sec
     gradient                   ...        0 min,  0.015 sec
 * total energy  :   -40.0843152 Eh     change        0.1892814E-05 Eh
   gradient norm :     0.0027706 Eh/α   predicted     0.1249181E-05 ( -34.00%)
   displ. norm   :     0.0147047 α      lambda       -0.1567127E-04
   maximum displ.:     0.0096178 α      in ANC's #7, #10, #14, ...

........................................................................
.............................. CYCLE    9 ..............................
........................................................................
   1    -40.6013176 -0.406013E+02  0.140E-02    2.01       0.0  T
   2    -40.6013177 -0.190223E-07  0.800E-03    2.01       2.7  T
   3    -40.6013170  0.659095E-06  0.649E-03    2.01       3.3  T
   4    -40.6013178 -0.786341E-06  0.135E-03    2.01      15.8  T
   5    -40.6013178 -0.516322E-08  0.741E-04    2.01      28.8  T
   6    -40.6013178 -0.555922E-08  0.210E-04    2.01     101.5  T
     SCC iter.                  ...        0 min,  0.008 sec
     gradient                   ...        0 min,  0.015 sec
 * total energy  :   -40.0843261 Eh     change       -0.1091686E-04 Eh
   gradient norm :     0.0016195 Eh/α   predicted    -0.7839674E-05 ( -28.19%)
   displ. norm   :     0.0308057 α      lambda       -0.1015647E-04
   maximum displ.:     0.0214000 α      in ANC's #7, #2, #10, ...

........................................................................
.............................. CYCLE   10 ..............................
........................................................................
   1    -40.6006203 -0.406006E+02  0.209E-02    2.00       0.0  T
   2    -40.6006204 -0.940228E-07  0.121E-02    2.01       1.8  T
   3    -40.6006191  0.124349E-05  0.970E-03    2.00       2.2  T
   4    -40.6006207 -0.155640E-05  0.251E-03    2.01       8.5  T
   5    -40.6006208 -0.558278E-07  0.106E-03    2.01      20.1  T
   6    -40.6006208 -0.630551E-08  0.434E-04    2.01      49.2  T
   7    -40.6006208 -0.166863E-08  0.195E-04    2.01     109.1  T
     SCC iter.                  ...        0 min,  0.009 sec
     gradient                   ...        0 min,  0.015 sec
 * total energy  :   -40.0843327 Eh     change       -0.6587789E-05 Eh
   gradient norm :     0.0008961 Eh/α   predicted    -0.5081112E-05 ( -22.87%)
   displ. norm   :     0.0307550 α      lambda        0.1435226E-04
   maximum displ.:     0.0213977 α      in ANC's #7, #2, #10, ...

........................................................................
.............................. CYCLE   11 ..............................
........................................................................
   1    -40.5998881 -0.405999E+02  0.207E-02    2.00       0.0  T
   2    -40.5998882 -0.852295E-07  0.121E-02    2.00       1.8  T
   3    -40.5998869  0.124651E-05  0.973E-03    2.00       2.2  T
   4    -40.5998885 -0.156505E-05  0.250E-03    2.00       8.5  T
   5    -40.5998886 -0.557864E-07  0.105E-03    2.00      20.4  T
   6    -40.5998886 -0.611139E-08  0.440E-04    2.00      48.5  T
   7    -40.5998886 -0.171968E-08  0.198E-04    2.00     107.9  T
     SCC iter.                  ...        0 min,  0.009 sec
     gradient                   ...        0 min,  0.015 sec
 * total energy  :   -40.0843221 Eh     change        0.1063753E-04 Eh
   gradient norm :     0.0030425 Eh/α   predicted     0.7176456E-05 ( -32.54%)
   displ. norm   :     0.0181831 α      lambda       -0.1673229E-04
   maximum displ.:     0.0127100 α      in ANC's #7, #10, #8, ...

........................................................................
.............................. CYCLE   12 ..............................
........................................................................
   1    -40.6004335 -0.406004E+02  0.171E-02    2.01       0.0  T
   2    -40.6004336 -0.748329E-07  0.975E-03    2.00       2.2  T
   3    -40.6004328  0.822745E-06  0.757E-03    2.01       2.8  T
   4    -40.6004338 -0.100453E-05  0.202E-03    2.01      10.5  T
   5    -40.6004338 -0.292533E-07  0.966E-04    2.01      22.1  T
   6    -40.6004338 -0.585761E-08  0.328E-04    2.01      65.0  T
     SCC iter.                  ...        0 min,  0.007 sec
     gradient                   ...        0 min,  0.015 sec
 * total energy  :   -40.0843335 Eh     change       -0.1143689E-04 Eh
   gradient norm :     0.0012932 Eh/α   predicted    -0.8370212E-05 ( -26.81%)
   displ. norm   :     0.0272313 α      lambda       -0.1769879E-05
   maximum displ.:     0.0190637 α      in ANC's #7, #10, #8, ...

........................................................................
.............................. CYCLE   13 ..............................
........................................................................
   1    -40.6012188 -0.406012E+02  0.258E-02    2.01       0.0  T
   2    -40.6012189 -0.181100E-06  0.146E-02    2.01       1.5  T
   3    -40.6012171  0.181832E-05  0.112E-02    2.01       1.9  T
   4    -40.6012193 -0.221142E-05  0.304E-03    2.01       7.0  T
   5    -40.6012194 -0.647302E-07  0.146E-03    2.01      14.6  T
   6    -40.6012194 -0.133922E-07  0.502E-04    2.01      42.5  T
   7    -40.6012194 -0.221090E-08  0.239E-04    2.01      89.2  T
     SCC iter.                  ...        0 min,  0.008 sec
     gradient                   ...        0 min,  0.015 sec
 * total energy  :   -40.0843310 Eh     change        0.2550574E-05 Eh
   gradient norm :     0.0015246 Eh/α   predicted    -0.8873196E-06 (-134.79%)
   displ. norm   :     0.0220047 α      lambda       -0.8177474E-05
   maximum displ.:     0.0137623 α      in ANC's #2, #7, #8, ...

........................................................................
.............................. CYCLE   14 ..............................
........................................................................
   1    -40.6009186 -0.406009E+02  0.215E-02    2.01       0.0  T
   2    -40.6009187 -0.123216E-06  0.113E-02    2.01       1.9  T
   3    -40.6009181  0.575503E-06  0.613E-03    2.01       3.5  T
   4    -40.6009188 -0.667107E-06  0.192E-03    2.01      11.1  T
   5    -40.6009188 -0.884796E-08  0.991E-04    2.01      21.5  T
   6    -40.6009188 -0.112030E-07  0.210E-04    2.01     101.7  T
     SCC iter.                  ...        0 min,  0.007 sec
     gradient                   ...        0 min,  0.015 sec
 * total energy  :   -40.0843364 Eh     change       -0.5443762E-05 Eh
   gradient norm :     0.0005266 Eh/α   predicted    -0.4090382E-05 ( -24.86%)
   displ. norm   :     0.0212210 α      lambda       -0.3032394E-05
   maximum displ.:     0.0154794 α      in ANC's #2, #7, #10, ...

........................................................................
.............................. CYCLE   15 ..............................
........................................................................
   1    -40.6005806 -0.406006E+02  0.118E-02    2.01       0.0  T
   2    -40.6005806 -0.219941E-07  0.685E-03    2.01       3.1  T
   3    -40.6005802  0.387497E-06  0.501E-03    2.00       4.3  T
   4    -40.6005807 -0.441304E-06  0.117E-03    2.01      18.3  T
   5    -40.6005807 -0.123694E-07  0.468E-04    2.01      45.5  T
   6    -40.6005807 -0.167925E-08  0.176E-04    2.01     121.2  T
     SCC iter.                  ...        0 min,  0.007 sec
     gradient                   ...        0 min,  0.015 sec
 * total energy  :   -40.0843374 Eh     change       -0.9314964E-06 Eh
   gradient norm :     0.0008273 Eh/α   predicted    -0.1517764E-05 (  62.94%)
   displ. norm   :     0.0213274 α      lambda        0.8635101E-05
   maximum displ.:     0.0154797 α      in ANC's #2, #7, #10, ...

   *** GEOMETRY OPTIMIZATION CONVERGED AFTER 15 ITERATIONS ***

------------------------------------------------------------------------
 total energy gain   :        -0.0128743 Eh       -8.0787 kcal/mol
 total RMSD          :         0.1407402 a0        0.0745 Å
 total power (kW/mol):        -2.2534320 (step)  -65.0119 (real)
------------------------------------------------------------------------

 ANCopt (total)                0 d,  0 h,  0 min,  0.520 sec
 optimizer setup                ...        0 min,  0.000 sec (  0.027%)
 model hessian                  ...        0 min,  0.002 sec (  0.337%)
 ANC generation                 ...        0 min,  0.001 sec (  0.115%)
 coordinate transformation      ...        0 min,  0.000 sec (  0.049%)
 single point calculation       ...        0 min,  0.513 sec ( 98.668%)
 optimization log               ...        0 min,  0.001 sec (  0.275%)
 hessian update                 ...        0 min,  0.000 sec (  0.034%)
 rational function              ...        0 min,  0.002 sec (  0.311%)

================
 final structure:
================
$coord
   -2.69906869499137    1.67440462790756   -0.12188071964290      C 
   -4.55429681898313   -0.97868220353164   -0.20178072171429      S 
   -1.95986325156448   -3.01782251221572   -0.10384273048003      C 
    0.21421482592114   -1.60661862166414   -0.01449365419722      C 
   -0.18044606550415    1.07120610759905   -0.02331242805113      C 
    2.13725915878612    2.42142661005218    0.07282351104140      C 
    4.16757460417304    0.84749786032199    0.14990864135954      C 
    6.84925641735570    1.51189735656870    0.25961112380348      C 
    8.55531507755830    0.00135771532854    0.32362061844151      O 
    7.19219314011302    4.02966639112578    0.28004759010964      O 
    9.74565197564428    4.84618730487419    0.38591665047298      C 
    3.40249675756529   -2.38040296455956    0.11105197017969      S 
   -2.19674998863439   -5.71734523464680   -0.11798688184515      C 
   -4.37251043217947   -6.97391180415365   -0.20322146657093      C 
   -3.55986356069447    3.50609573798724   -0.15145605320568      H 
    2.29336414949481    4.44523537762372    0.08455549625359      H 
    9.69106918647731    6.89848897798816    0.33833230757338      H 
   10.80291134181894    4.10775389993478   -1.22506539271675      H 
   10.63966416480504    4.18280416716327    2.12364863421452      H 
   -0.40834568003136   -6.70927313098018   -0.05356813668251      H 
   -6.15900770373317   -5.99827830128233   -0.27234350258816      H 
   -4.43077482638365   -9.00443990148790   -0.21374617499758      H 
$end
           -------------------------------------------------
          |                Final Singlepoint                |
           -------------------------------------------------

          ...................................................
          :                      SETUP                      :
          :.................................................:
          :  # basis functions                  76          :
          :  # atomic orbitals                  74          :
          :  # shells                           38          :
          :  # electrons                        72          :
          :  max. iterations                   250          :
          :  Hamiltonian                  GFN2-xTB          :
          :  restarted?                      false          :
          :  GBSA solvation                  false          :
          :  PC potential                    false          :
          :  electronic temp.          300.0000000     K    :
          :  accuracy                    1.0000000          :
          :  -> integral cutoff          0.2500000E+02      :
          :  -> integral neglect         0.1000000E-07      :
          :  -> SCF convergence          0.1000000E-05 Eh   :
          :  -> wf. convergence          0.1000000E-03 e    :
          :  Broyden damping             0.4000000          :
          ...................................................

 iter      E             dE          RMSdq      gap      omega  full diag
   1    -40.6005807 -0.406006E+02  0.104E-04    2.01       0.0  T
   2    -40.6005807 -0.530775E-11  0.458E-05    2.01     465.8  T
   3    -40.6005807  0.625988E-11  0.430E-05    2.01     496.3  T

   *** convergence criteria satisfied after 3 iterations ***

         #    Occupation            Energy/Eh            Energy/eV
      -------------------------------------------------------------
         1        2.0000           -0.7478885             -20.3511
       ...           ...                  ...                  ...
        30        2.0000           -0.4517220             -12.2920
        31        2.0000           -0.4476881             -12.1822
        32        2.0000           -0.4445410             -12.0966
        33        2.0000           -0.4222629             -11.4904
        34        2.0000           -0.4175511             -11.3621
        35        2.0000           -0.4047630             -11.0142
        36        2.0000           -0.3708801             -10.0922 (HOMO)
        37                         -0.2971856              -8.0868 (LUMO)
        38                         -0.2666280              -7.2553
        39                         -0.2255049              -6.1363
        40                         -0.2074087              -5.6439
        41                         -0.2018084              -5.4915
       ...                                ...                  ...
        74                          0.7305185              19.8784
      -------------------------------------------------------------
                  HL-Gap            0.0736945 Eh            2.0053 eV
             Fermi-level           -0.3340329 Eh           -9.0895 eV

 SCC (total)                   0 d,  0 h,  0 min,  0.031 sec
 SCC setup                      ...        0 min,  0.000 sec (  0.658%)
 Dispersion                     ...        0 min,  0.000 sec (  0.619%)
 integral evaluation            ...        0 min,  0.011 sec ( 35.129%)
 zeroth order Hamiltonian       ...        0 min,  0.000 sec (  0.545%)
 iterations                     ...        0 min,  0.004 sec ( 14.033%)
 molecular gradient             ...        0 min,  0.015 sec ( 47.752%)
 printout                       ...        0 min,  0.000 sec (  1.106%)

         :::::::::::::::::::::::::::::::::::::::::::::::::::::
         ::                     SUMMARY                     ::
         :::::::::::::::::::::::::::::::::::::::::::::::::::::
         :: total energy             -40.084337342149 Eh    ::
         :: gradient norm              0.000827364227 Eh/a0 ::
         :: HOMO-LUMO gap              2.005330420195 eV    ::
         ::.................................................::
         :: SCC energy               -40.600580669987 Eh    ::
         :: -> isotropic ES            0.045687462130 Eh    ::
         :: -> anisotropic ES          0.000666589987 Eh    ::
         :: -> anisotropic XC          0.011472710898 Eh    ::
         :: -> dispersion             -0.024289781532 Eh    ::
         :: repulsion energy           0.516381100210 Eh    ::
         :: add. restraining           0.000000000000 Eh    ::
         :::::::::::::::::::::::::::::::::::::::::::::::::::::

           -------------------------------------------------
          |                Property Printout                |
           -------------------------------------------------

    * Orbital Energies and Occupations

         #    Occupation            Energy/Eh            Energy/eV
      -------------------------------------------------------------
         1        2.0000           -0.7478885             -20.3511
       ...           ...                  ...                  ...
        24        2.0000           -0.4900603             -13.3352
        25        2.0000           -0.4796900             -13.0530
        26        2.0000           -0.4706657             -12.8075
        27        2.0000           -0.4696886             -12.7809
        28        2.0000           -0.4643530             -12.6357
        29        2.0000           -0.4619544             -12.5704
        30        2.0000           -0.4517220             -12.2920
        31        2.0000           -0.4476881             -12.1822
        32        2.0000           -0.4445410             -12.0966
        33        2.0000           -0.4222629             -11.4904
        34        2.0000           -0.4175511             -11.3621
        35        2.0000           -0.4047630             -11.0142
        36        2.0000           -0.3708801             -10.0922 (HOMO)
        37                         -0.2971856              -8.0868 (LUMO)
        38                         -0.2666280              -7.2553
        39                         -0.2255049              -6.1363
        40                         -0.2074087              -5.6439
        41                         -0.2018084              -5.4915
        42                         -0.1718687              -4.6768
        43                         -0.1489083              -4.0520
        44                         -0.1400216              -3.8102
        45                         -0.1223987              -3.3306
        46                         -0.0230958              -0.6285
        47                         -0.0094780              -0.2579
       ...                                ...                  ...
        74                          0.7305185              19.8784
      -------------------------------------------------------------
                  HL-Gap            0.0736945 Eh            2.0053 eV
             Fermi-level           -0.3340329 Eh           -9.0895 eV

     #   Z        covCN         q      C6AA      α(0)
     1   6 C      2.928    -0.032    28.798     8.801
     2  16 S      2.350     0.014   140.471    19.948
     3   6 C      2.984     0.010    27.791     8.647
     4   6 C      3.208     0.013    27.104     8.476
     5   6 C      3.308    -0.006    26.223     8.181
     6   6 C      3.028    -0.036    28.877     8.814
     7   6 C      2.994    -0.006    28.169     8.706
     8   6 C      2.764     0.352    21.024     7.509
     9   8 O      0.857    -0.408    21.850     6.267
    10   8 O      1.705    -0.270    18.480     5.804
    11   6 C      3.658     0.036    20.246     6.458
    12  16 S      2.216    -0.012   141.555    20.025
    13   6 C      2.911    -0.029    28.736     8.790
    14   6 C      2.841    -0.086    30.157     9.000
    15   1 H      0.926     0.056     2.249     2.345
    16   1 H      0.926     0.059     2.207     2.323
    17   1 H      0.925     0.068     2.105     2.269
    18   1 H      0.924     0.064     2.149     2.293
    19   1 H      0.924     0.063     2.159     2.298
    20   1 H      0.925     0.052     2.296     2.370
    21   1 H      0.926     0.050     2.316     2.380
    22   1 H      0.926     0.048     2.341     2.392

 Mol. C6AA /au·bohr⁶  :       9221.790450
 Mol. C8AA /au·bohr⁸  :     274954.677153
 Mol. α(0) /au        :        154.094969


Wiberg/Mayer (AO) data.
largest (>0.10) Wiberg bond orders for each atom
          total WBO             WBO to atom ...
     1  C   3.938        C    5 1.469    S    2 1.233    H   15 0.968    C    3 0.112
     2  S   2.658        C    1 1.233    C    3 1.126
     3  C   3.947        C    4 1.464    C   13 1.144    S    2 1.126    C    1 0.112
     4  C   3.955        C    3 1.464    C    5 1.172    S   12 1.104
     5  C   3.984        C    1 1.469    C    6 1.193    C    4 1.172
     6  C   3.987        C    7 1.602    C    5 1.193    H   16 0.959    S   12 0.114
     7  C   3.957        C    6 1.602    S   12 1.091    C    8 1.038
     8  C   3.923        O    9 1.717    O   10 1.103    C    7 1.038
     9  O   2.025        C    8 1.717    O   10 0.166
    10  O   2.285        C    8 1.103    C   11 0.958    O    9 0.166
    11  C   3.924        H   17 0.982    H   18 0.976    H   19 0.976    O   10 0.958
    12  S   2.537        C    4 1.104    C    7 1.091    C    6 0.114
    13  C   3.990        C   14 1.855    C    3 1.144    H   20 0.955
    14  C   3.990        C   13 1.855    H   22 0.978    H   21 0.972
    15  H   0.997        C    1 0.968
    16  H   0.996        C    6 0.959
    17  H   0.995        C   11 0.982
    18  H   0.995        C   11 0.976
    19  H   0.996        C   11 0.976
    20  H   0.997        C   13 0.955
    21  H   0.997        C   14 0.972
    22  H   0.997        C   14 0.978

molecular dipole:
                 x           y           z       tot (Debye)
 q only:       -0.946       0.576      -0.038
   full:       -0.653       0.997      -0.024       3.030
molecular quadrupole (traceless):
                xx          xy          yy          xz          yz          zz
 q only:       -4.823      13.116       7.556      -0.040       0.530      -2.733
  q+dip:       -6.350      13.897       8.939      -0.099       0.564      -2.589
   full:       -7.589      14.400       8.024      -0.231       0.575      -0.435

           -------------------------------------------------
          |                Geometry Summary                 |
           -------------------------------------------------

      molecular mass/u    :      224.2920000
   center of mass at/Å    :        0.8838841      -0.2385982       0.0254578
  moments of inertia/u·Å² :        0.3338539E+03   0.1760664E+04   0.2091343E+04
rotational constants/cm⁻¹ :        0.5049404E-01   0.9574589E-02   0.8060672E-02

 * 22 selected distances

     #   Z        #   Z                                     value/Å
     1   6 C      2  16 S                                 1.7136787
     2  16 S      3   6 C                                 1.7469880
     3   6 C      4   6 C                                 1.3724062
     1   6 C      5   6 C                                 1.3714805
     4   6 C      5   6 C                                 1.4323588
     5   6 C      6   6 C                                 1.4203353
     6   6 C      7   6 C                                 1.3600344
     8   6 C      9   8 O                                 1.2062994
     8   6 C     10   8 O                                 1.3446918
    10   8 O     11   6 C                                 1.4197409
     4   6 C     12  16 S                                 1.7374144
     7   6 C     12  16 S                                 1.7555768 (max)
     3   6 C     13   6 C                                 1.4340351
    13   6 C     14   6 C                                 1.3303476
     1   6 C     15   1 H                                 1.0711017 (min)
     6   6 C     16   1 H                                 1.0741527
    11   6 C     17   1 H                                 1.0867072
    11   6 C     18   1 H                                 1.0919973
    11   6 C     19   1 H                                 1.0920874
    13   6 C     20   1 H                                 1.0827412
    14   6 C     21   1 H                                 1.0777837
    14   6 C     22   1 H                                 1.0749660

 * 4 distinct bonds (by element types)

   Z      Z             #   av. dist./Å        max./Å        min./Å
   1 H    6 C           8     1.0814422     1.0920874     1.0711017
   6 C    6 C           7     1.3887140     1.4340351     1.3303476
   6 C    8 O           3     1.3235774     1.4197409     1.2062994
   6 C   16 S           4     1.7384145     1.7555768     1.7136787


optimized geometry written to: xtbopt.xyz


           -------------------------------------------------
          | TOTAL ENERGY              -40.084337342149 Eh   |
          | GRADIENT NORM               0.000827364227 Eh/α |
          | HOMO-LUMO GAP               2.005330420195 eV   |
           -------------------------------------------------

------------------------------------------------------------------------
 * finished run on 2021/05/19 at 10:58:59.543     
------------------------------------------------------------------------
 total:
 * wall-time:     0 d,  0 h,  0 min,  0.631 sec
 *  cpu-time:     0 d,  0 h,  0 min,  0.618 sec
 * ratio c/w:     0.978 speedup
 SCF:
 * wall-time:     0 d,  0 h,  0 min,  0.057 sec
 *  cpu-time:     0 d,  0 h,  0 min,  0.044 sec
 * ratio c/w:     0.770 speedup
 ANC optimizer:
 * wall-time:     0 d,  0 h,  0 min,  0.551 sec
 *  cpu-time:     0 d,  0 h,  0 min,  0.551 sec
 * ratio c/w:     1.000 speedup

