      -----------------------------------------------------------      
     |                   =====================                   |     
     |                           x T B                           |     
     |                   =====================                   |     
     |                         S. Grimme                         |     
     |          Mulliken Center for Theoretical Chemistry        |     
     |                    University of Bonn                     |     
     |                Version 6.2 RC2 (SAW190805)                |     
      -----------------------------------------------------------      

   This program is distributed in the hope that it will be useful,
   but WITHOUT ANY WARRANTY; without even the implied warranty of
   MERCHANTABILITY or FITNESS FOR A PARTICULAR PURPOSE.
   
   FOR NON-COMMERCIAL, ACADEMIA USE ONLY.
   
   Cite this work as:
   * S. Grimme, C. Bannwarth, P. Shushkov, J. Chem. Theory Comput., 2017,
     13, 1989-2009. DOI: 10.1021/acs.jctc.7b00118
   * C. Bannwarth, S. Ehlert and S. Grimme., J. Chem. Theory Comput., 2019,
     15, 1652-1671. DOI: 10.1021/acs.jctc.8b01176
   * P. Pracht, E. Caldeweyher, S. Ehlert, S. Grimme, ChemRxiv, 2019, preprint.
     DOI: 10.26434/chemrxiv.8326202.v1
   
   for DFT-D4:
   * E. Caldeweyher, C. Bannwarth and S. Grimme, J. Chem. Phys., 2017,
     147, 034112. DOI: 10.1063/1.4993215
   * E. Caldeweyher, S. Ehlert, A. Hansen, H. Neugebauer, S. Spicher,
     C. Bannwarth and S. Grimme, J. Chem. Phys., 2019, 150, 154122.
     DOI: 10.1063/1.5090222
   
   for sTDA-xTB:
   * S. Grimme and C. Bannwarth, J. Chem. Phys., 2016, 145, 054103.
     DOI: 10.1063/1.4959605
   
   in the mass-spec context:
   * V. Asgeirsson, C. Bauer and S. Grimme, Chem. Sci., 2017, 8, 4879.
     DOI: 10.1039/c7sc00601b
   
   for metadynamics refer to:
   * S. Grimme, J. Chem. Theory Comput., 2019, 155, 2847-2862
     DOI: 10.1021/acs.jctc.9b00143
   
   with help from (in alphabetical order)
   C. Bannwarth, F. Bohle, G. Brandenburg, E. Caldeweyher, M. Checinski,
   S. Dohm, S. Ehlert, S. Ehrlich, F. März, H. Neugebauer, J. Pisarek,
   P. Pracht, P. Shushkov, and S. Spicher.
   
 * started run on 2021/05/19 at 10:59:13.695     

           -------------------------------------------------
          |                Calculation Setup                |
           -------------------------------------------------

          program call               : /ihome/ghutchison/geoffh/xtb/xtb 251.xyz -opt
          hostname                   : smp-n83
          coordinate file            : 251.xyz
          omp threads                :                     1
          number of atoms            :                    16
          number of electrons        :                    50
          charge                     :                     0
          spin                       :                   0.0
          first test random number   :      0.31468892784256


########################################################################
# WARNING! Please study the warnings concerning your input carefully
#  - the use of '-opt' is discouraged, please use '--opt' next time
########################################################################

           ------------------------------------------------- 
          |                 G F N 2 - x T B                 |
          | Geometry, Frequencies, Noncovalent interactions |
          |            JCTC 2019 parametrisation            |
           ------------------------------------------------- 
             KAB for C  - Si     :                1.0500
             KAB for H  - Pd     :                0.9500
             k(s)              :                1.8500
             k(p)              :                2.2300
             k(d)              :                2.2300
             k(f)              :                2.0000
             kEN (H0ij)        :               -2.0000
             D4 a1             :                0.5200
             D4 a2             :                5.0000
             D4 s6             :                1.0000
             D4 s8             :                2.7000
             D4 s9             :                5.0000
             alphaj            :                2.0000

  Z AO/shell   Hii/eV     exponent
  1     Wed Apr 25 08:07:45 CEST 2018   EN: 2.200 GM2: 0.406  GM3: 0.0800  RAES: 1.40
     1s    -10.707211    1.230000
  6     Wed Apr 25 08:07:45 CEST 2018   EN: 2.550 GM2: 0.538  GM3: 0.1500  RAES: 3.00
     2s    -13.970922    2.096432
     2p    -10.063292    1.800000
  7     Wed Apr 25 08:07:45 CEST 2018   EN: 3.040 GM2: 0.461  GM3:-0.0640  RAES: 1.90
     2s    -16.686243    2.339881
     2p    -12.523956    2.014332

           ------------------------------------------------- 
          |        Self-Consistent Charge Iterations        |
           ------------------------------------------------- 

          ...................................................
          :                      SETUP                      :
          :.................................................:
          :  # basis functions                  46          :
          :  # atomic orbitals                  46          :
          :  # shells                           26          :
          :  # electrons                        50          :
          :  max. iterations                   250          :
          :  Hamiltonian                  GFN2-xTB          :
          :  restarted?                      false          :
          :  GBSA solvation                  false          :
          :  PC potential                    false          :
          :  electronic temp.          300.0000000     K    :
          :  accuracy                    1.0000000          :
          :  -> integral cutoff          0.2500000E+02      :
          :  -> integral neglect         0.1000000E-07      :
          :  -> SCF convergence          0.1000000E-05 Eh   :
          :  -> wf. convergence          0.1000000E-03 e    :
          :  Broyden damping             0.4000000          :
          ...................................................

 iter      E             dE          RMSdq      gap      omega  full diag
   1    -27.8137474 -0.278137E+02  0.465E+00    3.14       0.0  T
   2    -27.9589101 -0.145163E+00  0.290E+00    2.72       1.0  T
   3    -27.9779974 -0.190873E-01  0.172E+00    3.02       1.0  T
   4    -27.9766767  0.132072E-02  0.522E-01    2.87       1.0  T
   5    -27.9799454 -0.326868E-02  0.170E-01    3.00       1.0  T
   6    -27.9800204 -0.750051E-04  0.774E-02    2.97       1.0  T
   7    -27.9800569 -0.364932E-04  0.350E-02    2.98       1.0  T
   8    -27.9800661 -0.920364E-05  0.131E-02    2.98       1.9  T
   9    -27.9800666 -0.488937E-06  0.529E-03    2.98       4.7  T
  10    -27.9800668 -0.175914E-06  0.190E-03    2.98      13.2  T
  11    -27.9800668 -0.205007E-07  0.721E-04    2.98      34.7  T
  12    -27.9800668 -0.124895E-08  0.301E-04    2.98      83.2  T

   *** convergence criteria satisfied after 12 iterations ***

         #    Occupation            Energy/Eh            Energy/eV
      -------------------------------------------------------------
         1        2.0000           -0.7042177             -19.1627
       ...           ...                  ...                  ...
        19        2.0000           -0.4561920             -12.4136
        20        2.0000           -0.4410903             -12.0027
        21        2.0000           -0.4343148             -11.8183
        22        2.0000           -0.4006141             -10.9013
        23        2.0000           -0.3869663             -10.5299
        24        2.0000           -0.3676063             -10.0031
        25        2.0000           -0.3660481              -9.9607 (HOMO)
        26                         -0.2565611              -6.9814 (LUMO)
        27                         -0.2049598              -5.5772
        28                         -0.1450261              -3.9464
        29                         -0.1148830              -3.1261
        30                         -0.0425491              -1.1578
       ...                                ...                  ...
        46                          0.6447173              17.5436
      -------------------------------------------------------------
                  HL-Gap            0.1094871 Eh            2.9793 eV
             Fermi-level           -0.3113046 Eh           -8.4710 eV

 SCC (total)                   0 d,  0 h,  0 min,  0.021 sec
 SCC setup                      ...        0 min,  0.000 sec (  1.130%)
 Dispersion                     ...        0 min,  0.000 sec (  0.957%)
 integral evaluation            ...        0 min,  0.004 sec ( 21.288%)
 zeroth order Hamiltonian       ...        0 min,  0.000 sec (  0.462%)
 iterations                     ...        0 min,  0.009 sec ( 41.321%)
 molecular gradient             ...        0 min,  0.007 sec ( 32.932%)
 printout                       ...        0 min,  0.000 sec (  1.610%)

         :::::::::::::::::::::::::::::::::::::::::::::::::::::
         ::                     SUMMARY                     ::
         :::::::::::::::::::::::::::::::::::::::::::::::::::::
         :: total energy             -27.567667567886 Eh    ::
         :: gradient norm              0.084904307820 Eh/a0 ::
         :: HOMO-LUMO gap              2.979294892528 eV    ::
         ::.................................................::
         :: SCC energy               -27.980066775585 Eh    ::
         :: -> isotropic ES            0.029442748969 Eh    ::
         :: -> anisotropic ES          0.008646443035 Eh    ::
         :: -> anisotropic XC          0.021343439706 Eh    ::
         :: -> dispersion             -0.013212077834 Eh    ::
         :: repulsion energy           0.412437281063 Eh    ::
         :: add. restraining           0.000000000000 Eh    ::
         :::::::::::::::::::::::::::::::::::::::::::::::::::::

      ----------------------------------------------------------- 
     |                   =====================                   |
     |                        A N C O P T                        |
     |                   =====================                   |
     |               Approximate Normal Coordinate               |
     |                Rational Function Optimizer                |
      ----------------------------------------------------------- 

          ...................................................
          :                      SETUP                      :
          :.................................................:
          :   optimization level            normal          :
          :   max. optcycles                   200          :
          :   ANC micro-cycles                  20          :
          :   degrees of freedom                42          :
          :.................................................:
          :   RF solver                   davidson          :
          :   input Hessian                  false          :
          :   write xtbopt.log                true          :
          :   linear?                        false          :
          :   energy convergence         0.5000000E-05 Eh   :
          :   grad. convergence          0.1000000E-02 Eh/α :
          :   maximium RF displ.         2.0000000          :
          :   Hlow (freq-cutoff)         0.5000000E-02      :
          :   Hmax (freq-cutoff)         5.0000000          :
          :   S6 in model hess.         20.0000000          :
          ...................................................

generating ANC from model Hessian ...
Using Lindh-Hessian (1995)
 Shifting diagonal of input Hessian by   1.725269027018081E-003
 Lowest  eigenvalues of input Hessian
   -0.000000   -0.000000   -0.000000    0.000000    0.000000    0.000000
    0.005000    0.007624    0.012052    0.015904    0.018047    0.034399
    0.043941    0.051000    0.078002    0.080658    0.092074    0.095406
 Highest eigenvalues
    1.946202    2.027059    2.073032    2.212606    2.276162    2.469184
 

........................................................................
.............................. CYCLE    1 ..............................
........................................................................
   1    -27.9800668 -0.279801E+02  0.101E-04    2.98       0.0  T
   2    -27.9800668 -0.388809E-10  0.553E-05    2.98     451.8  T
   3    -27.9800668 -0.146443E-10  0.351E-05    2.98     712.3  T
     SCC iter.                  ...        0 min,  0.002 sec
     gradient                   ...        0 min,  0.007 sec
 * total energy  :   -27.5676676 Eh     change       -0.8865577E-08 Eh
   gradient norm :     0.0849038 Eh/α   predicted     0.0000000E+00 (-100.00%)
   displ. norm   :     0.1445615 α      lambda       -0.7086504E-02
   maximum displ.:     0.0615866 α      in ANC's #7, #10, #17, ...

........................................................................
.............................. CYCLE    2 ..............................
........................................................................
   1    -27.9823915 -0.279824E+02  0.176E-01    3.03       0.0  T
   2    -27.9825028 -0.111318E-03  0.100E-01    3.01       1.0  T
   3    -27.9825213 -0.185066E-04  0.546E-02    3.02       1.0  T
   4    -27.9825262 -0.488671E-05  0.169E-02    3.01       1.5  T
   5    -27.9825292 -0.303303E-05  0.432E-03    3.01       5.8  T
   6    -27.9825293 -0.374423E-07  0.287E-03    3.01       8.7  T
     SCC iter.                  ...        0 min,  0.004 sec
     gradient                   ...        0 min,  0.006 sec
 * total energy  :   -27.5724229 Eh     change       -0.4755359E-02 Eh
   gradient norm :     0.0337182 Eh/α   predicted    -0.3617298E-02 ( -23.93%)
   displ. norm   :     0.1033065 α      lambda       -0.1642372E-02
   maximum displ.:     0.0496970 α      in ANC's #7, #3, #10, ...

........................................................................
.............................. CYCLE    3 ..............................
........................................................................
   1    -27.9839720 -0.279840E+02  0.109E-01    3.04       0.0  T
   2    -27.9840110 -0.390651E-04  0.646E-02    3.02       1.0  T
   3    -27.9840162 -0.520234E-05  0.344E-02    3.03       1.0  T
   4    -27.9840187 -0.247297E-05  0.139E-02    3.03       1.8  T
   5    -27.9840206 -0.190605E-05  0.345E-03    3.03       7.2  T
   6    -27.9840207 -0.570488E-07  0.205E-03    3.03      12.2  T
     SCC iter.                  ...        0 min,  0.004 sec
     gradient                   ...        0 min,  0.006 sec
 * total energy  :   -27.5733303 Eh     change       -0.9073532E-03 Eh
   gradient norm :     0.0063163 Eh/α   predicted    -0.8299504E-03 (  -8.53%)
   displ. norm   :     0.0337586 α      lambda       -0.6659754E-04
   maximum displ.:     0.0222047 α      in ANC's #3, #1, #2, ...

........................................................................
.............................. CYCLE    4 ..............................
........................................................................
   1    -27.9838661 -0.279839E+02  0.329E-02    3.03       0.0  T
   2    -27.9838666 -0.554275E-06  0.190E-02    3.03       1.3  T
   3    -27.9838661  0.532733E-06  0.802E-03    3.03       3.1  T
   4    -27.9838668 -0.677765E-06  0.227E-03    3.03      11.0  T
   5    -27.9838668 -0.494789E-07  0.749E-04    3.03      33.4  T
     SCC iter.                  ...        0 min,  0.003 sec
     gradient                   ...        0 min,  0.006 sec
 * total energy  :   -27.5733749 Eh     change       -0.4461162E-04 Eh
   gradient norm :     0.0028171 Eh/α   predicted    -0.3333758E-04 ( -25.27%)
   displ. norm   :     0.0345762 α      lambda       -0.2345870E-04
   maximum displ.:     0.0208177 α      in ANC's #3, #1, #2, ...

........................................................................
.............................. CYCLE    5 ..............................
........................................................................
   1    -27.9838134 -0.279838E+02  0.332E-02    3.03       0.0  T
   2    -27.9838140 -0.535034E-06  0.189E-02    3.03       1.3  T
   3    -27.9838136  0.364655E-06  0.686E-03    3.03       3.6  T
   4    -27.9838141 -0.534806E-06  0.136E-03    3.03      18.3  T
   5    -27.9838141 -0.132105E-07  0.670E-04    3.03      37.3  T
   6    -27.9838141 -0.705853E-09  0.381E-04    3.03      65.6  T
     SCC iter.                  ...        0 min,  0.004 sec
     gradient                   ...        0 min,  0.007 sec
 * total energy  :   -27.5733897 Eh     change       -0.1475713E-04 Eh
   gradient norm :     0.0012605 Eh/α   predicted    -0.1174208E-04 ( -20.43%)
   displ. norm   :     0.0379387 α      lambda       -0.5888740E-05
   maximum displ.:     0.0234793 α      in ANC's #1, #2, #3, ...

........................................................................
.............................. CYCLE    6 ..............................
........................................................................
   1    -27.9838818 -0.279839E+02  0.345E-02    3.03       0.0  T
   2    -27.9838824 -0.559059E-06  0.196E-02    3.03       1.3  T
   3    -27.9838820  0.387807E-06  0.675E-03    3.03       3.7  T
   4    -27.9838826 -0.585857E-06  0.110E-03    3.03      22.8  T
   5    -27.9838826 -0.662364E-08  0.539E-04    3.03      46.4  T
   6    -27.9838826 -0.148916E-09  0.127E-04    3.03     196.3  T
     SCC iter.                  ...        0 min,  0.004 sec
     gradient                   ...        0 min,  0.007 sec
 * total energy  :   -27.5733945 Eh     change       -0.4866152E-05 Eh
   gradient norm :     0.0010259 Eh/α   predicted    -0.2945903E-05 ( -39.46%)
   displ. norm   :     0.0198361 α      lambda       -0.2390479E-05
   maximum displ.:     0.0126314 α      in ANC's #1, #2, #3, ...

........................................................................
.............................. CYCLE    7 ..............................
........................................................................
   1    -27.9839485 -0.279839E+02  0.189E-02    3.03       0.0  T
   2    -27.9839486 -0.610521E-07  0.108E-02    3.03       2.3  T
   3    -27.9839486  0.138457E-07  0.166E-03    3.03      15.1  T
   4    -27.9839486 -0.377592E-07  0.524E-04    3.03      47.7  T
   5    -27.9839486 -0.318298E-09  0.280E-04    3.03      89.4  T
     SCC iter.                  ...        0 min,  0.003 sec
     gradient                   ...        0 min,  0.007 sec
 * total energy  :   -27.5733967 Eh     change       -0.2155413E-05 Eh
   gradient norm :     0.0006735 Eh/α   predicted    -0.1194948E-05 ( -44.56%)
   displ. norm   :     0.0288393 α      lambda       -0.2537915E-05
   maximum displ.:     0.0201083 α      in ANC's #2, #1, #5, ...

   *** GEOMETRY OPTIMIZATION CONVERGED AFTER 7 ITERATIONS ***

------------------------------------------------------------------------
 total energy gain   :        -0.0057291 Eh       -3.5951 kcal/mol
 total RMSD          :         0.0764665 a0        0.0405 Å
 total power (kW/mol):        -2.1488256 (step) -140.3439 (real)
------------------------------------------------------------------------

 ANCopt (total)                0 d,  0 h,  0 min,  0.107 sec
 optimizer setup                ...        0 min,  0.000 sec (  0.131%)
 model hessian                  ...        0 min,  0.002 sec (  1.498%)
 ANC generation                 ...        0 min,  0.000 sec (  0.376%)
 coordinate transformation      ...        0 min,  0.000 sec (  0.083%)
 single point calculation       ...        0 min,  0.103 sec ( 95.662%)
 optimization log               ...        0 min,  0.001 sec (  0.501%)
 hessian update                 ...        0 min,  0.000 sec (  0.083%)
 rational function              ...        0 min,  0.001 sec (  1.189%)

================
 final structure:
================
$coord
   -3.65476433257398   -1.01967657388399   -0.02698367834854      C 
   -2.82488372093193    1.44551316981308    0.28205398461657      N 
   -0.27698813948540    1.27797433738764    0.10143725130751      C 
    1.93204745591826    2.55895954848607    0.15270871438264      N 
    3.78771359322077    0.71708118038411   -0.23210826608969      C 
    2.84494894138590   -1.56175695916611   -0.50631455594238      N 
    0.30998314131801   -1.27286449220554   -0.30685265294331      C 
   -1.86116350203890   -2.65645342023829   -0.37534997533304      N 
    6.42017816387292    1.38179418641261   -0.29983063411119      C 
    8.25532571757267   -0.28970436297604   -0.69226398990731      C 
   -5.62487196001011   -1.48052438534399    0.02637467513955      H 
   -3.90892154578531    2.98057857819871    0.57024505815910      H 
    2.23689191264847    4.41912110444091    0.40292081953972      H 
    6.83760068084140    3.36487398145740   -0.00992036385361      H 
    7.80265294586463   -2.24897847278735   -0.98177446714917      H 
   10.21302388080413    0.25626404234363   -0.73669237231890      H 
$end
           -------------------------------------------------
          |                Final Singlepoint                |
           -------------------------------------------------

          ...................................................
          :                      SETUP                      :
          :.................................................:
          :  # basis functions                  46          :
          :  # atomic orbitals                  46          :
          :  # shells                           26          :
          :  # electrons                        50          :
          :  max. iterations                   250          :
          :  Hamiltonian                  GFN2-xTB          :
          :  restarted?                      false          :
          :  GBSA solvation                  false          :
          :  PC potential                    false          :
          :  electronic temp.          300.0000000     K    :
          :  accuracy                    1.0000000          :
          :  -> integral cutoff          0.2500000E+02      :
          :  -> integral neglect         0.1000000E-07      :
          :  -> SCF convergence          0.1000000E-05 Eh   :
          :  -> wf. convergence          0.1000000E-03 e    :
          :  Broyden damping             0.4000000          :
          ...................................................

 iter      E             dE          RMSdq      gap      omega  full diag
   1    -27.9839486 -0.279839E+02  0.144E-04    3.03       0.0  T
   2    -27.9839486 -0.175717E-10  0.658E-05    3.03     380.1  T
   3    -27.9839486 -0.573799E-10  0.602E-05    3.03     415.1  T

   *** convergence criteria satisfied after 3 iterations ***

         #    Occupation            Energy/Eh            Energy/eV
      -------------------------------------------------------------
         1        2.0000           -0.7004222             -19.0595
       ...           ...                  ...                  ...
        19        2.0000           -0.4598439             -12.5130
        20        2.0000           -0.4372271             -11.8976
        21        2.0000           -0.4318534             -11.7513
        22        2.0000           -0.4038851             -10.9903
        23        2.0000           -0.3895990             -10.6015
        24        2.0000           -0.3687442             -10.0340
        25        2.0000           -0.3637896              -9.8992 (HOMO)
        26                         -0.2525066              -6.8711 (LUMO)
        27                         -0.2024994              -5.5103
        28                         -0.1494347              -4.0663
        29                         -0.1203578              -3.2751
        30                         -0.0442338              -1.2037
       ...                                ...                  ...
        46                          0.6326960              17.2165
      -------------------------------------------------------------
                  HL-Gap            0.1112830 Eh            3.0282 eV
             Fermi-level           -0.3081481 Eh           -8.3851 eV

 SCC (total)                   0 d,  0 h,  0 min,  0.014 sec
 SCC setup                      ...        0 min,  0.000 sec (  1.071%)
 Dispersion                     ...        0 min,  0.000 sec (  0.802%)
 integral evaluation            ...        0 min,  0.004 sec ( 30.249%)
 zeroth order Hamiltonian       ...        0 min,  0.000 sec (  0.582%)
 iterations                     ...        0 min,  0.002 sec ( 17.474%)
 molecular gradient             ...        0 min,  0.007 sec ( 47.754%)
 printout                       ...        0 min,  0.000 sec (  1.719%)

         :::::::::::::::::::::::::::::::::::::::::::::::::::::
         ::                     SUMMARY                     ::
         :::::::::::::::::::::::::::::::::::::::::::::::::::::
         :: total energy             -27.573396668192 Eh    ::
         :: gradient norm              0.000673480482 Eh/a0 ::
         :: HOMO-LUMO gap              3.028163462084 eV    ::
         ::.................................................::
         :: SCC energy               -27.983948627366 Eh    ::
         :: -> isotropic ES            0.028121439741 Eh    ::
         :: -> anisotropic ES          0.008047927615 Eh    ::
         :: -> anisotropic XC          0.020569142658 Eh    ::
         :: -> dispersion             -0.013204483735 Eh    ::
         :: repulsion energy           0.410588629237 Eh    ::
         :: add. restraining           0.000000000000 Eh    ::
         :::::::::::::::::::::::::::::::::::::::::::::::::::::

           -------------------------------------------------
          |                Property Printout                |
           -------------------------------------------------

    * Orbital Energies and Occupations

         #    Occupation            Energy/Eh            Energy/eV
      -------------------------------------------------------------
         1        2.0000           -0.7004222             -19.0595
       ...           ...                  ...                  ...
        13        2.0000           -0.5319850             -14.4760
        14        2.0000           -0.5075923             -13.8123
        15        2.0000           -0.5070724             -13.7981
        16        2.0000           -0.4894838             -13.3195
        17        2.0000           -0.4784768             -13.0200
        18        2.0000           -0.4686943             -12.7538
        19        2.0000           -0.4598439             -12.5130
        20        2.0000           -0.4372271             -11.8976
        21        2.0000           -0.4318534             -11.7513
        22        2.0000           -0.4038851             -10.9903
        23        2.0000           -0.3895990             -10.6015
        24        2.0000           -0.3687442             -10.0340
        25        2.0000           -0.3637896              -9.8992 (HOMO)
        26                         -0.2525066              -6.8711 (LUMO)
        27                         -0.2024994              -5.5103
        28                         -0.1494347              -4.0663
        29                         -0.1203578              -3.2751
        30                         -0.0442338              -1.2037
        31                          0.0334663               0.9107
        32                          0.0730996               1.9891
        33                          0.1141638               3.1066
        34                          0.1329278               3.6172
        35                          0.1476602               4.0180
        36                          0.1748353               4.7575
       ...                                ...                  ...
        46                          0.6326960              17.2165
      -------------------------------------------------------------
                  HL-Gap            0.1112830 Eh            3.0282 eV
             Fermi-level           -0.3081481 Eh           -8.3851 eV

     #   Z        covCN         q      C6AA      α(0)
     1   6 C      3.215     0.087    25.418     8.202
     2   7 N      2.764    -0.130    23.817     7.248
     3   6 C      3.241     0.072    25.513     8.188
     4   7 N      2.766    -0.142    24.065     7.286
     5   6 C      3.234     0.127    24.446     8.024
     6   7 N      1.884    -0.270    27.871     7.826
     7   6 C      3.464     0.115    20.723     6.847
     8   7 N      1.881    -0.258    27.566     7.783
     9   6 C      2.890    -0.040    29.002     8.829
    10   6 C      2.843    -0.082    30.041     8.982
    11   1 H      0.926     0.045     2.385     2.415
    12   1 H      0.860     0.163     1.314     1.796
    13   1 H      0.860     0.162     1.319     1.799
    14   1 H      0.925     0.032     2.561     2.503
    15   1 H      0.926     0.071     2.074     2.252
    16   1 H      0.926     0.048     2.341     2.393

 Mol. C6AA /au·bohr⁶  :       3494.893390
 Mol. C8AA /au·bohr⁸  :      83035.395571
 Mol. α(0) /au        :         92.374763


Wiberg/Mayer (AO) data.
largest (>0.10) Wiberg bond orders for each atom
          total WBO             WBO to atom ...
     1  C   3.930        N    8 1.611    N    2 1.169    H   11 0.964
     2  N   3.527        C    3 1.188    C    1 1.169    H   12 0.943    N    8 0.119
     3  C   3.932        C    7 1.293    N    4 1.200    N    2 1.188
     4  N   3.517        C    3 1.200    C    5 1.124    H   13 0.942    N    6 0.104
     5  C   3.944        N    6 1.509    N    4 1.124    C    9 1.115
     6  N   3.035        C    5 1.509    C    7 1.254    N    4 0.104
     7  C   3.964        C    3 1.293    N    6 1.254    N    8 1.219
     8  N   3.037        C    1 1.611    C    7 1.219    N    2 0.119
     9  C   3.990        C   10 1.867    C    5 1.115    H   14 0.964
    10  C   3.967        C    9 1.867    H   16 0.978    H   15 0.974
    11  H   0.998        C    1 0.964
    12  H   0.973        N    2 0.943
    13  H   0.974        N    4 0.942
    14  H   0.999        C    9 0.964
    15  H   0.995        C   10 0.974
    16  H   0.997        C   10 0.978

molecular dipole:
                 x           y           z       tot (Debye)
 q only:       -0.217       1.569       0.239
   full:       -0.588       2.742       0.432       7.212
molecular quadrupole (traceless):
                xx          xy          yy          xz          yz          zz
 q only:        5.593      -0.178      -1.216      -0.649       0.252      -4.378
  q+dip:        6.246       0.204      -0.089      -0.687       0.507      -6.158
   full:        5.414       0.410      -1.540      -0.450      -0.090      -3.873

           -------------------------------------------------
          |                Geometry Summary                 |
           -------------------------------------------------

      molecular mass/u    :      134.1402000
   center of mass at/Å    :        0.7780622       0.0548316      -0.0966099
  moments of inertia/u·Å² :        0.1047824E+03   0.5519740E+03   0.6567492E+03
rotational constants/cm⁻¹ :        0.1608823E+00   0.3054063E-01   0.2566830E-01

 * 17 selected distances

     #   Z        #   Z                                     value/Å
     1   6 C      2   7 N                                 1.3861380
     2   7 N      3   6 C                                 1.3545763
     3   6 C      4   7 N                                 1.3515678
     4   7 N      5   6 C                                 1.3984801
     5   6 C      6   7 N                                 1.3130740
     3   6 C      7   6 C                                 1.4018718
     6   7 N      7   6 C                                 1.3542488
     1   6 C      8   7 N                                 1.2980926
     7   6 C      8   7 N                                 1.3628639
     5   6 C      9   6 C                                 1.4372107 (max)
     9   6 C     10   6 C                                 1.3298760
     1   6 C     11   1 H                                 1.0710516
     2   7 N     12   1 H                                 1.0060797 (min)
     4   7 N     13   1 H                                 1.0062354
     9   6 C     14   1 H                                 1.0833145
    10   6 C     15   1 H                                 1.0750876
    10   6 C     16   1 H                                 1.0757586

 * 4 distinct bonds (by element types)

   Z      Z             #   av. dist./Å        max./Å        min./Å
   1 H    6 C           4     1.0763031     1.0833145     1.0710516
   6 C    6 C           3     1.3896529     1.4372107     1.3298760
   1 H    7 N           2     1.0061575     1.0062354     1.0060797
   6 C    7 N           8     1.3523802     1.3984801     1.2980926


optimized geometry written to: xtbopt.xyz


           -------------------------------------------------
          | TOTAL ENERGY              -27.573396668192 Eh   |
          | GRADIENT NORM               0.000673480482 Eh/α |
          | HOMO-LUMO GAP               3.028163462084 eV   |
           -------------------------------------------------

------------------------------------------------------------------------
 * finished run on 2021/05/19 at 10:59:13.855     
------------------------------------------------------------------------
 total:
 * wall-time:     0 d,  0 h,  0 min,  0.159 sec
 *  cpu-time:     0 d,  0 h,  0 min,  0.158 sec
 * ratio c/w:     0.994 speedup
 SCF:
 * wall-time:     0 d,  0 h,  0 min,  0.021 sec
 *  cpu-time:     0 d,  0 h,  0 min,  0.021 sec
 * ratio c/w:     1.000 speedup
 ANC optimizer:
 * wall-time:     0 d,  0 h,  0 min,  0.121 sec
 *  cpu-time:     0 d,  0 h,  0 min,  0.121 sec
 * ratio c/w:     1.000 speedup

