      -----------------------------------------------------------      
     |                   =====================                   |     
     |                           x T B                           |     
     |                   =====================                   |     
     |                         S. Grimme                         |     
     |          Mulliken Center for Theoretical Chemistry        |     
     |                    University of Bonn                     |     
     |                Version 6.2 RC2 (SAW190805)                |     
      -----------------------------------------------------------      

   This program is distributed in the hope that it will be useful,
   but WITHOUT ANY WARRANTY; without even the implied warranty of
   MERCHANTABILITY or FITNESS FOR A PARTICULAR PURPOSE.
   
   FOR NON-COMMERCIAL, ACADEMIA USE ONLY.
   
   Cite this work as:
   * S. Grimme, C. Bannwarth, P. Shushkov, J. Chem. Theory Comput., 2017,
     13, 1989-2009. DOI: 10.1021/acs.jctc.7b00118
   * C. Bannwarth, S. Ehlert and S. Grimme., J. Chem. Theory Comput., 2019,
     15, 1652-1671. DOI: 10.1021/acs.jctc.8b01176
   * P. Pracht, E. Caldeweyher, S. Ehlert, S. Grimme, ChemRxiv, 2019, preprint.
     DOI: 10.26434/chemrxiv.8326202.v1
   
   for DFT-D4:
   * E. Caldeweyher, C. Bannwarth and S. Grimme, J. Chem. Phys., 2017,
     147, 034112. DOI: 10.1063/1.4993215
   * E. Caldeweyher, S. Ehlert, A. Hansen, H. Neugebauer, S. Spicher,
     C. Bannwarth and S. Grimme, J. Chem. Phys., 2019, 150, 154122.
     DOI: 10.1063/1.5090222
   
   for sTDA-xTB:
   * S. Grimme and C. Bannwarth, J. Chem. Phys., 2016, 145, 054103.
     DOI: 10.1063/1.4959605
   
   in the mass-spec context:
   * V. Asgeirsson, C. Bauer and S. Grimme, Chem. Sci., 2017, 8, 4879.
     DOI: 10.1039/c7sc00601b
   
   for metadynamics refer to:
   * S. Grimme, J. Chem. Theory Comput., 2019, 155, 2847-2862
     DOI: 10.1021/acs.jctc.9b00143
   
   with help from (in alphabetical order)
   C. Bannwarth, F. Bohle, G. Brandenburg, E. Caldeweyher, M. Checinski,
   S. Dohm, S. Ehlert, S. Ehrlich, F. März, H. Neugebauer, J. Pisarek,
   P. Pracht, P. Shushkov, and S. Spicher.
   
 * started run on 2021/05/19 at 10:59:19.769     

           -------------------------------------------------
          |                Calculation Setup                |
           -------------------------------------------------

          program call               : /ihome/ghutchison/geoffh/xtb/xtb 258.xyz -opt
          hostname                   : smp-n83
          coordinate file            : 258.xyz
          omp threads                :                     1
          number of atoms            :                    16
          number of electrons        :                    50
          charge                     :                     0
          spin                       :                   0.0
          first test random number   :      0.01710018816102


########################################################################
# WARNING! Please study the warnings concerning your input carefully
#  - the use of '-opt' is discouraged, please use '--opt' next time
########################################################################

           ------------------------------------------------- 
          |                 G F N 2 - x T B                 |
          | Geometry, Frequencies, Noncovalent interactions |
          |            JCTC 2019 parametrisation            |
           ------------------------------------------------- 
             KAB for C  - Si     :                1.0500
             KAB for H  - Pd     :                0.9500
             k(s)              :                1.8500
             k(p)              :                2.2300
             k(d)              :                2.2300
             k(f)              :                2.0000
             kEN (H0ij)        :               -2.0000
             D4 a1             :                0.5200
             D4 a2             :                5.0000
             D4 s6             :                1.0000
             D4 s8             :                2.7000
             D4 s9             :                5.0000
             alphaj            :                2.0000

  Z AO/shell   Hii/eV     exponent
  1     Wed Apr 25 08:07:45 CEST 2018   EN: 2.200 GM2: 0.406  GM3: 0.0800  RAES: 1.40
     1s    -10.707211    1.230000
  6     Wed Apr 25 08:07:45 CEST 2018   EN: 2.550 GM2: 0.538  GM3: 0.1500  RAES: 3.00
     2s    -13.970922    2.096432
     2p    -10.063292    1.800000
 16     Tue Apr 24 11:44:34 CEST 2018   EN: 2.580 GM2: 0.340  GM3:-0.0502  RAES: 3.10
     3s    -20.029654    1.981333
     3p    -11.377694    2.025643
     3d     -0.420282    1.702555

           ------------------------------------------------- 
          |        Self-Consistent Charge Iterations        |
           ------------------------------------------------- 

          ...................................................
          :                      SETUP                      :
          :.................................................:
          :  # basis functions                  58          :
          :  # atomic orbitals                  56          :
          :  # shells                           28          :
          :  # electrons                        50          :
          :  max. iterations                   250          :
          :  Hamiltonian                  GFN2-xTB          :
          :  restarted?                      false          :
          :  GBSA solvation                  false          :
          :  PC potential                    false          :
          :  electronic temp.          300.0000000     K    :
          :  accuracy                    1.0000000          :
          :  -> integral cutoff          0.2500000E+02      :
          :  -> integral neglect         0.1000000E-07      :
          :  -> SCF convergence          0.1000000E-05 Eh   :
          :  -> wf. convergence          0.1000000E-03 e    :
          :  Broyden damping             0.4000000          :
          ...................................................

 iter      E             dE          RMSdq      gap      omega  full diag
   1    -27.0098649 -0.270099E+02  0.483E+00    2.12       0.0  T
   2    -27.0193925 -0.952755E-02  0.275E+00    2.08       1.0  T
   3    -27.0045556  0.148369E-01  0.128E+00    2.06       1.0  T
   4    -27.0187635 -0.142079E-01  0.563E-01    2.00       1.0  T
   5    -27.0214354 -0.267191E-02  0.263E-01    2.04       1.0  T
   6    -27.0219801 -0.544695E-03  0.992E-02    2.03       1.0  T
   7    -27.0220794 -0.993277E-04  0.337E-02    2.04       1.0  T
   8    -27.0220876 -0.813320E-05  0.155E-02    2.04       1.6  T
   9    -27.0220888 -0.123376E-05  0.780E-03    2.04       3.2  T
  10    -27.0220887  0.111052E-06  0.446E-03    2.04       5.6  T
  11    -27.0220890 -0.291698E-06  0.106E-03    2.04      23.5  T
  12    -27.0220890 -0.218787E-09  0.465E-04    2.04      53.7  T
  13    -27.0220890 -0.162642E-08  0.187E-04    2.04     133.9  T

   *** convergence criteria satisfied after 13 iterations ***

         #    Occupation            Energy/Eh            Energy/eV
      -------------------------------------------------------------
         1        2.0000           -0.7377000             -20.0738
       ...           ...                  ...                  ...
        19        2.0000           -0.4512970             -12.2804
        20        2.0000           -0.4442441             -12.0885
        21        2.0000           -0.4368793             -11.8881
        22        2.0000           -0.4363410             -11.8734
        23        2.0000           -0.4134423             -11.2503
        24        2.0000           -0.3814894             -10.3809
        25        2.0000           -0.3614850              -9.8365 (HOMO)
        26                         -0.2866889              -7.8012 (LUMO)
        27                         -0.2155742              -5.8661
        28                         -0.2090846              -5.6895
        29                         -0.2075375              -5.6474
        30                         -0.1973109              -5.3691
       ...                                ...                  ...
        56                          0.7416937              20.1825
      -------------------------------------------------------------
                  HL-Gap            0.0747961 Eh            2.0353 eV
             Fermi-level           -0.3240870 Eh           -8.8189 eV

 SCC (total)                   0 d,  0 h,  0 min,  0.041 sec
 SCC setup                      ...        0 min,  0.000 sec (  0.536%)
 Dispersion                     ...        0 min,  0.000 sec (  0.401%)
 integral evaluation            ...        0 min,  0.007 sec ( 16.192%)
 zeroth order Hamiltonian       ...        0 min,  0.000 sec (  0.313%)
 iterations                     ...        0 min,  0.024 sec ( 58.307%)
 molecular gradient             ...        0 min,  0.010 sec ( 23.286%)
 printout                       ...        0 min,  0.000 sec (  0.824%)

         :::::::::::::::::::::::::::::::::::::::::::::::::::::
         ::                     SUMMARY                     ::
         :::::::::::::::::::::::::::::::::::::::::::::::::::::
         :: total energy             -26.641072856994 Eh    ::
         :: gradient norm              0.105388451089 Eh/a0 ::
         :: HOMO-LUMO gap              2.035305743465 eV    ::
         ::.................................................::
         :: SCC energy               -27.022088994827 Eh    ::
         :: -> isotropic ES            0.003937042200 Eh    ::
         :: -> anisotropic ES          0.001364497164 Eh    ::
         :: -> anisotropic XC          0.014097504199 Eh    ::
         :: -> dispersion             -0.017695775099 Eh    ::
         :: repulsion energy           0.380983225643 Eh    ::
         :: add. restraining           0.000000000000 Eh    ::
         :::::::::::::::::::::::::::::::::::::::::::::::::::::

      ----------------------------------------------------------- 
     |                   =====================                   |
     |                        A N C O P T                        |
     |                   =====================                   |
     |               Approximate Normal Coordinate               |
     |                Rational Function Optimizer                |
      ----------------------------------------------------------- 

          ...................................................
          :                      SETUP                      :
          :.................................................:
          :   optimization level            normal          :
          :   max. optcycles                   200          :
          :   ANC micro-cycles                  20          :
          :   degrees of freedom                42          :
          :.................................................:
          :   RF solver                   davidson          :
          :   input Hessian                  false          :
          :   write xtbopt.log                true          :
          :   linear?                        false          :
          :   energy convergence         0.5000000E-05 Eh   :
          :   grad. convergence          0.1000000E-02 Eh/α :
          :   maximium RF displ.         2.0000000          :
          :   Hlow (freq-cutoff)         0.5000000E-02      :
          :   Hmax (freq-cutoff)         5.0000000          :
          :   S6 in model hess.         20.0000000          :
          ...................................................

generating ANC from model Hessian ...
Using Lindh-Hessian (1995)
 Shifting diagonal of input Hessian by   2.662991608861059E-003
 Lowest  eigenvalues of input Hessian
   -0.000000   -0.000000   -0.000000   -0.000000   -0.000000    0.000000
    0.005000    0.010106    0.011073    0.015304    0.017892    0.020600
    0.023841    0.034933    0.042816    0.046879    0.064790    0.068724
 Highest eigenvalues
    1.531102    1.620185    1.687753    1.845520    1.963811    2.048391
 

........................................................................
.............................. CYCLE    1 ..............................
........................................................................
   1    -27.0220890 -0.270221E+02  0.856E-05    2.04       0.0  T
   2    -27.0220890 -0.490274E-11  0.576E-05    2.04     434.1  T
   3    -27.0220890  0.116280E-10  0.481E-05    2.04     519.8  T
     SCC iter.                  ...        0 min,  0.003 sec
     gradient                   ...        0 min,  0.009 sec
 * total energy  :   -26.6410729 Eh     change        0.3705974E-08 Eh
   gradient norm :     0.1053894 Eh/α   predicted     0.0000000E+00 (-100.00%)
   displ. norm   :     0.3100807 α      lambda       -0.1780487E-01
   maximum displ.:     0.1771460 α      in ANC's #12, #18, #20, ...

........................................................................
.............................. CYCLE    2 ..............................
........................................................................
   1    -27.0522575 -0.270523E+02  0.295E-01    2.13       0.0  T
   2    -27.0523571 -0.995785E-04  0.191E-01    2.13       1.0  T
   3    -27.0523459  0.112286E-04  0.111E-01    2.13       1.0  T
   4    -27.0524509 -0.105054E-03  0.377E-02    2.13       1.0  T
   5    -27.0524638 -0.128564E-04  0.194E-02    2.13       1.3  T
   6    -27.0524673 -0.352146E-05  0.793E-03    2.13       3.2  T
   7    -27.0524678 -0.479180E-06  0.271E-03    2.13       9.2  T
   8    -27.0524679 -0.594366E-07  0.106E-03    2.13      23.5  T
     SCC iter.                  ...        0 min,  0.006 sec
     gradient                   ...        0 min,  0.009 sec
 * total energy  :   -26.6533323 Eh     change       -0.1225948E-01 Eh
   gradient norm :     0.0508234 Eh/α   predicted    -0.9758405E-02 ( -20.40%)
   displ. norm   :     0.1666046 α      lambda       -0.4549632E-02
   maximum displ.:     0.1080766 α      in ANC's #18, #12, #23, ...

........................................................................
.............................. CYCLE    3 ..............................
........................................................................
   1    -27.0657948 -0.270658E+02  0.218E-01    2.23       0.0  T
   2    -27.0658468 -0.520757E-04  0.135E-01    2.22       1.0  T
   3    -27.0658389  0.795923E-05  0.789E-02    2.22       1.0  T
   4    -27.0658886 -0.497443E-04  0.255E-02    2.22       1.0  T
   5    -27.0658948 -0.611952E-05  0.122E-02    2.22       2.1  T
   6    -27.0658958 -0.108776E-05  0.498E-03    2.22       5.0  T
   7    -27.0658961 -0.260290E-06  0.136E-03    2.22      18.3  T
     SCC iter.                  ...        0 min,  0.005 sec
     gradient                   ...        0 min,  0.009 sec
 * total energy  :   -26.6556813 Eh     change       -0.2348990E-02 Eh
   gradient norm :     0.0121565 Eh/α   predicted    -0.2337961E-02 (  -0.47%)
   displ. norm   :     0.0317624 α      lambda       -0.1860161E-03
   maximum displ.:     0.0196148 α      in ANC's #16, #17, #1, ...

........................................................................
.............................. CYCLE    4 ..............................
........................................................................
   1    -27.0638409 -0.270638E+02  0.428E-02    2.23       0.0  T
   2    -27.0638425 -0.161284E-05  0.236E-02    2.23       1.1  T
   3    -27.0638415  0.104284E-05  0.142E-02    2.23       1.8  T
   4    -27.0638436 -0.217357E-05  0.400E-03    2.23       6.3  T
   5    -27.0638437 -0.459161E-07  0.267E-03    2.23       9.4  T
   6    -27.0638437 -0.587372E-07  0.108E-03    2.23      23.1  T
     SCC iter.                  ...        0 min,  0.005 sec
     gradient                   ...        0 min,  0.009 sec
 * total energy  :   -26.6557993 Eh     change       -0.1180017E-03 Eh
   gradient norm :     0.0047167 Eh/α   predicted    -0.9310387E-04 ( -21.10%)
   displ. norm   :     0.0176379 α      lambda       -0.3242075E-04
   maximum displ.:     0.0104628 α      in ANC's #1, #16, #17, ...

........................................................................
.............................. CYCLE    5 ..............................
........................................................................
   1    -27.0635148 -0.270635E+02  0.282E-02    2.23       0.0  T
   2    -27.0635151 -0.292800E-06  0.137E-02    2.23       1.8  T
   3    -27.0635145  0.537684E-06  0.761E-03    2.23       3.3  T
   4    -27.0635152 -0.689135E-06  0.248E-03    2.23      10.1  T
   5    -27.0635153 -0.276268E-07  0.146E-03    2.23      17.1  T
     SCC iter.                  ...        0 min,  0.004 sec
     gradient                   ...        0 min,  0.009 sec
 * total energy  :   -26.6558170 Eh     change       -0.1771880E-04 Eh
   gradient norm :     0.0009519 Eh/α   predicted    -0.1621695E-04 (  -8.48%)
   displ. norm   :     0.0109721 α      lambda       -0.1883475E-05
   maximum displ.:     0.0093741 α      in ANC's #1, #8, #18, ...

........................................................................
.............................. CYCLE    6 ..............................
........................................................................
   1    -27.0636694 -0.270637E+02  0.237E-02    2.23       0.0  T
   2    -27.0636696 -0.195114E-06  0.110E-02    2.23       2.3  T
   3    -27.0636695  0.102510E-06  0.355E-03    2.23       7.0  T
   4    -27.0636697 -0.145120E-06  0.152E-03    2.23      16.4  T
   5    -27.0636697 -0.132239E-07  0.746E-04    2.23      33.5  T
   6    -27.0636697 -0.371042E-08  0.275E-04    2.23      90.8  T
     SCC iter.                  ...        0 min,  0.005 sec
     gradient                   ...        0 min,  0.009 sec
 * total energy  :   -26.6558183 Eh     change       -0.1278594E-05 Eh
   gradient norm :     0.0004629 Eh/α   predicted    -0.9416695E-06 ( -26.35%)
   displ. norm   :     0.0066973 α      lambda       -0.4848470E-06
   maximum displ.:     0.0058293 α      in ANC's #1, #7, #6, ...

   *** GEOMETRY OPTIMIZATION CONVERGED AFTER 6 ITERATIONS ***

------------------------------------------------------------------------
 total energy gain   :        -0.0147455 Eh       -9.2529 kcal/mol
 total RMSD          :         0.1174427 a0        0.0621 Å
 total power (kW/mol):        -6.4523675 (step) -302.3978 (real)
------------------------------------------------------------------------

 ANCopt (total)                0 d,  0 h,  0 min,  0.128 sec
 optimizer setup                ...        0 min,  0.000 sec (  0.108%)
 model hessian                  ...        0 min,  0.002 sec (  1.194%)
 ANC generation                 ...        0 min,  0.000 sec (  0.306%)
 coordinate transformation      ...        0 min,  0.000 sec (  0.064%)
 single point calculation       ...        0 min,  0.124 sec ( 96.671%)
 optimization log               ...        0 min,  0.000 sec (  0.369%)
 hessian update                 ...        0 min,  0.000 sec (  0.049%)
 rational function              ...        0 min,  0.001 sec (  0.885%)

================
 final structure:
================
$coord
   -2.85635914007246   -2.34315367491550    0.31397935215546      C 
   -5.07864523121606   -0.00689610861813    0.48062737086217      S 
   -2.84735461871860    2.31687767492803    0.31487333263641      C 
   -0.44526604211371    1.34429961671459    0.13758179678498      C 
   -0.44951609534582   -1.37783105457750    0.13633193860584      C 
    1.86406456304257   -2.70899946550715   -0.03742100221051      C 
    4.05745238869549   -1.36811787397702   -0.20061150285713      C 
    7.04180848329659   -2.85428877314041   -0.42914441262008      S 
    4.07047886465273    1.31977157205066   -0.19737491009930      C 
    1.88663001266847    2.65251649915906   -0.03339240314459      C 
   -3.42790411346755   -4.28495634152346    0.35565745214196      H 
   -3.40916137180199    4.26180631758613    0.35637215934216      H 
    1.84522168925977   -4.75048346443473   -0.03822717859357      H 
    6.17547382406251   -5.21697999034308   -0.38109356467699      H 
    5.87158707731801    2.26799961433965   -0.33035659112342      H 
    1.89107427352119    4.69224172995116   -0.03138182701624      H 
$end
           -------------------------------------------------
          |                Final Singlepoint                |
           -------------------------------------------------

          ...................................................
          :                      SETUP                      :
          :.................................................:
          :  # basis functions                  58          :
          :  # atomic orbitals                  56          :
          :  # shells                           28          :
          :  # electrons                        50          :
          :  max. iterations                   250          :
          :  Hamiltonian                  GFN2-xTB          :
          :  restarted?                      false          :
          :  GBSA solvation                  false          :
          :  PC potential                    false          :
          :  electronic temp.          300.0000000     K    :
          :  accuracy                    1.0000000          :
          :  -> integral cutoff          0.2500000E+02      :
          :  -> integral neglect         0.1000000E-07      :
          :  -> SCF convergence          0.1000000E-05 Eh   :
          :  -> wf. convergence          0.1000000E-03 e    :
          :  Broyden damping             0.4000000          :
          ...................................................

 iter      E             dE          RMSdq      gap      omega  full diag
   1    -27.0636697 -0.270637E+02  0.117E-04    2.23       0.0  T
   2    -27.0636697 -0.116422E-10  0.566E-05    2.23     441.8  T
   3    -27.0636697  0.574829E-11  0.487E-05    2.23     513.1  T

   *** convergence criteria satisfied after 3 iterations ***

         #    Occupation            Energy/Eh            Energy/eV
      -------------------------------------------------------------
         1        2.0000           -0.7395281             -20.1236
       ...           ...                  ...                  ...
        19        2.0000           -0.4576819             -12.4542
        20        2.0000           -0.4443742             -12.0920
        21        2.0000           -0.4349495             -11.8356
        22        2.0000           -0.4326388             -11.7727
        23        2.0000           -0.4139403             -11.2639
        24        2.0000           -0.3846076             -10.4657
        25        2.0000           -0.3638522              -9.9009 (HOMO)
        26                         -0.2818199              -7.6687 (LUMO)
        27                         -0.2102620              -5.7215
        28                         -0.2079399              -5.6583
        29                         -0.2033881              -5.5345
        30                         -0.1988039              -5.4097
       ...                                ...                  ...
        56                          0.7387701              20.1030
      -------------------------------------------------------------
                  HL-Gap            0.0820323 Eh            2.2322 eV
             Fermi-level           -0.3228361 Eh           -8.7848 eV

 SCC (total)                   0 d,  0 h,  0 min,  0.020 sec
 SCC setup                      ...        0 min,  0.000 sec (  0.748%)
 Dispersion                     ...        0 min,  0.000 sec (  0.596%)
 integral evaluation            ...        0 min,  0.007 sec ( 33.155%)
 zeroth order Hamiltonian       ...        0 min,  0.000 sec (  0.580%)
 iterations                     ...        0 min,  0.003 sec ( 14.645%)
 molecular gradient             ...        0 min,  0.010 sec ( 48.478%)
 printout                       ...        0 min,  0.000 sec (  1.522%)

         :::::::::::::::::::::::::::::::::::::::::::::::::::::
         ::                     SUMMARY                     ::
         :::::::::::::::::::::::::::::::::::::::::::::::::::::
         :: total energy             -26.655818317961 Eh    ::
         :: gradient norm              0.000462054371 Eh/a0 ::
         :: HOMO-LUMO gap              2.232212516414 eV    ::
         ::.................................................::
         :: SCC energy               -27.063669683114 Eh    ::
         :: -> isotropic ES            0.003838430566 Eh    ::
         :: -> anisotropic ES          0.001876849213 Eh    ::
         :: -> anisotropic XC          0.012965944428 Eh    ::
         :: -> dispersion             -0.017733805407 Eh    ::
         :: repulsion energy           0.407822241794 Eh    ::
         :: add. restraining           0.000000000000 Eh    ::
         :::::::::::::::::::::::::::::::::::::::::::::::::::::

           -------------------------------------------------
          |                Property Printout                |
           -------------------------------------------------

    * Orbital Energies and Occupations

         #    Occupation            Energy/Eh            Energy/eV
      -------------------------------------------------------------
         1        2.0000           -0.7395281             -20.1236
       ...           ...                  ...                  ...
        13        2.0000           -0.5052888             -13.7496
        14        2.0000           -0.4937852             -13.4366
        15        2.0000           -0.4862419             -13.2313
        16        2.0000           -0.4808900             -13.0857
        17        2.0000           -0.4784149             -13.0183
        18        2.0000           -0.4678074             -12.7297
        19        2.0000           -0.4576819             -12.4542
        20        2.0000           -0.4443742             -12.0920
        21        2.0000           -0.4349495             -11.8356
        22        2.0000           -0.4326388             -11.7727
        23        2.0000           -0.4139403             -11.2639
        24        2.0000           -0.3846076             -10.4657
        25        2.0000           -0.3638522              -9.9009 (HOMO)
        26                         -0.2818199              -7.6687 (LUMO)
        27                         -0.2102620              -5.7215
        28                         -0.2079399              -5.6583
        29                         -0.2033881              -5.5345
        30                         -0.1988039              -5.4097
        31                         -0.1216519              -3.3103
        32                         -0.1190518              -3.2396
        33                         -0.1004879              -2.7344
        34                         -0.0193664              -0.5270
        35                         -0.0157692              -0.4291
        36                         -0.0034973              -0.0952
       ...                                ...                  ...
        56                          0.7387701              20.1030
      -------------------------------------------------------------
                  HL-Gap            0.0820323 Eh            2.2322 eV
             Fermi-level           -0.3228361 Eh           -8.7848 eV

     #   Z        covCN         q      C6AA      α(0)
     1   6 C      2.929    -0.040    28.983     8.829
     2  16 S      2.308     0.013   140.530    19.952
     3   6 C      2.929    -0.035    28.884     8.814
     4   6 C      3.181    -0.002    27.637     8.582
     5   6 C      3.181     0.001    27.557     8.569
     6   6 C      2.945    -0.053    29.313     8.880
     7   6 C      2.964     0.057    26.723     8.479
     8  16 S      1.989    -0.235   151.106    20.689
     9   6 C      2.969    -0.035    28.862     8.812
    10   6 C      2.908    -0.033    28.815     8.802
    11   1 H      0.926     0.043     2.408     2.426
    12   1 H      0.926     0.045     2.386     2.416
    13   1 H      0.926     0.029     2.607     2.525
    14   1 H      0.923     0.164     1.300     1.783
    15   1 H      0.926     0.044     2.399     2.422
    16   1 H      0.926     0.036     2.496     2.471

 Mol. C6AA /au·bohr⁶  :       5726.404945
 Mol. C8AA /au·bohr⁸  :     184061.667362
 Mol. α(0) /au        :        124.450625


Wiberg/Mayer (AO) data.
largest (>0.10) Wiberg bond orders for each atom
          total WBO             WBO to atom ...
     1  C   3.938        C    5 1.466    S    2 1.234    H   11 0.971    C    3 0.152
     2  S   2.725        C    3 1.242    C    1 1.234
     3  C   3.941        C    4 1.474    S    2 1.242    H   12 0.970    C    1 0.152
     4  C   3.988        C    3 1.474    C   10 1.210    C    5 1.151
     5  C   3.988        C    1 1.466    C    6 1.217    C    4 1.151
     6  C   3.987        C    7 1.553    C    5 1.217    H   13 0.965    C   10 0.108
     7  C   3.960        C    6 1.553    C    9 1.223    S    8 1.045
     8  S   2.168        C    7 1.045    H   14 0.957
     9  C   3.991        C   10 1.631    C    7 1.223    H   15 0.968
    10  C   3.992        C    9 1.631    C    4 1.210    H   16 0.967    C    6 0.108
    11  H   0.998        C    1 0.971
    12  H   0.998        C    3 0.970
    13  H   0.999        C    6 0.965
    14  H   0.973        S    8 0.957
    15  H   0.997        C    9 0.968
    16  H   0.998        C   10 0.967

molecular dipole:
                 x           y           z       tot (Debye)
 q only:       -0.484      -0.107       0.034
   full:       -0.483      -0.151       0.034       1.289
molecular quadrupole (traceless):
                xx          xy          yy          xz          yz          zz
 q only:       -5.258      -0.539       6.274       0.225       0.049      -1.016
  q+dip:       -9.874       0.620      12.417       0.458      -0.034      -2.544
   full:      -11.052       0.326      11.720       0.685      -0.009      -0.668

           -------------------------------------------------
          |                Geometry Summary                 |
           -------------------------------------------------

      molecular mass/u    :      166.2554000
   center of mass at/Å    :        0.4308895      -0.3079834       0.0216226
  moments of inertia/u·Å² :        0.1609090E+03   0.9085797E+03   0.1069488E+04
rotational constants/cm⁻¹ :        0.1047650E+00   0.1855383E-01   0.1576234E-01

 * 16 selected distances

     #   Z        #   Z                                     value/Å
     1   6 C      2  16 S                                 1.7085483 (max)
     2  16 S      3   6 C                                 1.7070422
     3   6 C      4   6 C                                 1.3745750
     1   6 C      5   6 C                                 1.3754843
     4   6 C      5   6 C                                 1.4404916
     5   6 C      6   6 C                                 1.4154730
     6   6 C      7   6 C                                 1.3631369
     7   6 C      9   6 C                                 1.4223877
     4   6 C     10   6 C                                 1.4178004
     9   6 C     10   6 C                                 1.3566246
     1   6 C     11   1 H                                 1.0713714 (min)
     3   6 C     12   1 H                                 1.0715149
     6   6 C     13   1 H                                 1.0803530
     8  16 S     14   1 H                                 1.3319250
     9   6 C     15   1 H                                 1.0794193
    10   6 C     16   1 H                                 1.0793793

 * 4 distinct bonds (by element types)

   Z      Z             #   av. dist./Å        max./Å        min./Å
   1 H    6 C           5     1.0764076     1.0803530     1.0713714
   6 C    6 C           8     1.3957467     1.4404916     1.3566246
   1 H   16 S           1     1.3319250     1.3319250     1.3319250
   6 C   16 S           2     1.7077953     1.7085483     1.7070422


optimized geometry written to: xtbopt.xyz


           -------------------------------------------------
          | TOTAL ENERGY              -26.655818317961 Eh   |
          | GRADIENT NORM               0.000462054371 Eh/α |
          | HOMO-LUMO GAP               2.232212516414 eV   |
           -------------------------------------------------

------------------------------------------------------------------------
 * finished run on 2021/05/19 at 10:59:20.008     
------------------------------------------------------------------------
 total:
 * wall-time:     0 d,  0 h,  0 min,  0.239 sec
 *  cpu-time:     0 d,  0 h,  0 min,  0.194 sec
 * ratio c/w:     0.813 speedup
 SCF:
 * wall-time:     0 d,  0 h,  0 min,  0.041 sec
 *  cpu-time:     0 d,  0 h,  0 min,  0.028 sec
 * ratio c/w:     0.684 speedup
 ANC optimizer:
 * wall-time:     0 d,  0 h,  0 min,  0.148 sec
 *  cpu-time:     0 d,  0 h,  0 min,  0.148 sec
 * ratio c/w:     1.000 speedup

