      -----------------------------------------------------------      
     |                   =====================                   |     
     |                           x T B                           |     
     |                   =====================                   |     
     |                         S. Grimme                         |     
     |          Mulliken Center for Theoretical Chemistry        |     
     |                    University of Bonn                     |     
     |                Version 6.2 RC2 (SAW190805)                |     
      -----------------------------------------------------------      

   This program is distributed in the hope that it will be useful,
   but WITHOUT ANY WARRANTY; without even the implied warranty of
   MERCHANTABILITY or FITNESS FOR A PARTICULAR PURPOSE.
   
   FOR NON-COMMERCIAL, ACADEMIA USE ONLY.
   
   Cite this work as:
   * S. Grimme, C. Bannwarth, P. Shushkov, J. Chem. Theory Comput., 2017,
     13, 1989-2009. DOI: 10.1021/acs.jctc.7b00118
   * C. Bannwarth, S. Ehlert and S. Grimme., J. Chem. Theory Comput., 2019,
     15, 1652-1671. DOI: 10.1021/acs.jctc.8b01176
   * P. Pracht, E. Caldeweyher, S. Ehlert, S. Grimme, ChemRxiv, 2019, preprint.
     DOI: 10.26434/chemrxiv.8326202.v1
   
   for DFT-D4:
   * E. Caldeweyher, C. Bannwarth and S. Grimme, J. Chem. Phys., 2017,
     147, 034112. DOI: 10.1063/1.4993215
   * E. Caldeweyher, S. Ehlert, A. Hansen, H. Neugebauer, S. Spicher,
     C. Bannwarth and S. Grimme, J. Chem. Phys., 2019, 150, 154122.
     DOI: 10.1063/1.5090222
   
   for sTDA-xTB:
   * S. Grimme and C. Bannwarth, J. Chem. Phys., 2016, 145, 054103.
     DOI: 10.1063/1.4959605
   
   in the mass-spec context:
   * V. Asgeirsson, C. Bauer and S. Grimme, Chem. Sci., 2017, 8, 4879.
     DOI: 10.1039/c7sc00601b
   
   for metadynamics refer to:
   * S. Grimme, J. Chem. Theory Comput., 2019, 155, 2847-2862
     DOI: 10.1021/acs.jctc.9b00143
   
   with help from (in alphabetical order)
   C. Bannwarth, F. Bohle, G. Brandenburg, E. Caldeweyher, M. Checinski,
   S. Dohm, S. Ehlert, S. Ehrlich, F. März, H. Neugebauer, J. Pisarek,
   P. Pracht, P. Shushkov, and S. Spicher.
   
 * started run on 2021/05/19 at 11:00:54.719     

           -------------------------------------------------
          |                Calculation Setup                |
           -------------------------------------------------

          program call               : /ihome/ghutchison/geoffh/xtb/xtb 781.xyz -opt
          hostname                   : smp-n83
          coordinate file            : 781.xyz
          omp threads                :                     1
          number of atoms            :                    22
          number of electrons        :                    54
          charge                     :                     0
          spin                       :                   0.0
          first test random number   :      0.69021357301071


########################################################################
# WARNING! Please study the warnings concerning your input carefully
#  - the use of '-opt' is discouraged, please use '--opt' next time
########################################################################

           ------------------------------------------------- 
          |                 G F N 2 - x T B                 |
          | Geometry, Frequencies, Noncovalent interactions |
          |            JCTC 2019 parametrisation            |
           ------------------------------------------------- 
             KAB for C  - Si     :                1.0500
             KAB for H  - Pd     :                0.9500
             k(s)              :                1.8500
             k(p)              :                2.2300
             k(d)              :                2.2300
             k(f)              :                2.0000
             kEN (H0ij)        :               -2.0000
             D4 a1             :                0.5200
             D4 a2             :                5.0000
             D4 s6             :                1.0000
             D4 s8             :                2.7000
             D4 s9             :                5.0000
             alphaj            :                2.0000

  Z AO/shell   Hii/eV     exponent
  1     Wed Apr 25 08:07:45 CEST 2018   EN: 2.200 GM2: 0.406  GM3: 0.0800  RAES: 1.40
     1s    -10.707211    1.230000
  6     Wed Apr 25 08:07:45 CEST 2018   EN: 2.550 GM2: 0.538  GM3: 0.1500  RAES: 3.00
     2s    -13.970922    2.096432
     2p    -10.063292    1.800000
 16     Tue Apr 24 11:44:34 CEST 2018   EN: 2.580 GM2: 0.340  GM3:-0.0502  RAES: 3.10
     3s    -20.029654    1.981333
     3p    -11.377694    2.025643
     3d     -0.420282    1.702555

           ------------------------------------------------- 
          |        Self-Consistent Charge Iterations        |
           ------------------------------------------------- 

          ...................................................
          :                      SETUP                      :
          :.................................................:
          :  # basis functions                  58          :
          :  # atomic orbitals                  57          :
          :  # shells                           33          :
          :  # electrons                        54          :
          :  max. iterations                   250          :
          :  Hamiltonian                  GFN2-xTB          :
          :  restarted?                      false          :
          :  GBSA solvation                  false          :
          :  PC potential                    false          :
          :  electronic temp.          300.0000000     K    :
          :  accuracy                    1.0000000          :
          :  -> integral cutoff          0.2500000E+02      :
          :  -> integral neglect         0.1000000E-07      :
          :  -> SCF convergence          0.1000000E-05 Eh   :
          :  -> wf. convergence          0.1000000E-03 e    :
          :  Broyden damping             0.4000000          :
          ...................................................

 iter      E             dE          RMSdq      gap      omega  full diag
   1    -29.0156256 -0.290156E+02  0.324E+00    3.80       0.0  T
   2    -29.0476354 -0.320099E-01  0.179E+00    3.88       1.0  T
   3    -29.0484107 -0.775255E-03  0.687E-01    3.83       1.0  T
   4    -29.0483323  0.783572E-04  0.248E-01    3.83       1.0  T
   5    -29.0489319 -0.599523E-03  0.117E-01    3.83       1.0  T
   6    -29.0490700 -0.138162E-03  0.311E-02    3.83       1.0  T
   7    -29.0490754 -0.538379E-05  0.143E-02    3.83       1.5  T
   8    -29.0490757 -0.244713E-06  0.435E-03    3.83       4.9  T
   9    -29.0490757 -0.388415E-07  0.218E-03    3.83       9.8  T
  10    -29.0490757 -0.258966E-07  0.119E-03    3.83      17.9  T
  11    -29.0490757 -0.154795E-07  0.443E-04    3.83      48.1  T
  12    -29.0490757 -0.852609E-09  0.223E-04    3.83      95.7  T

   *** convergence criteria satisfied after 12 iterations ***

         #    Occupation            Energy/Eh            Energy/eV
      -------------------------------------------------------------
         1        2.0000           -0.7212151             -19.6253
       ...           ...                  ...                  ...
        21        2.0000           -0.4460732             -12.1383
        22        2.0000           -0.4392975             -11.9539
        23        2.0000           -0.4298416             -11.6966
        24        2.0000           -0.4250402             -11.5659
        25        2.0000           -0.4178213             -11.3695
        26        2.0000           -0.3774718             -10.2715
        27        2.0000           -0.3747774             -10.1982 (HOMO)
        28                         -0.2340116              -6.3678 (LUMO)
        29                         -0.1897749              -5.1640
        30                         -0.1632979              -4.4436
        31                         -0.1040972              -2.8326
        32                          0.0058134               0.1582
       ...                                ...                  ...
        57                          0.6769755              18.4214
      -------------------------------------------------------------
                  HL-Gap            0.1407657 Eh            3.8304 eV
             Fermi-level           -0.3043945 Eh           -8.2830 eV

 SCC (total)                   0 d,  0 h,  0 min,  0.029 sec
 SCC setup                      ...        0 min,  0.000 sec (  0.994%)
 Dispersion                     ...        0 min,  0.000 sec (  0.950%)
 integral evaluation            ...        0 min,  0.007 sec ( 22.421%)
 zeroth order Hamiltonian       ...        0 min,  0.000 sec (  0.511%)
 iterations                     ...        0 min,  0.011 sec ( 38.589%)
 molecular gradient             ...        0 min,  0.010 sec ( 35.159%)
 printout                       ...        0 min,  0.000 sec (  1.196%)

         :::::::::::::::::::::::::::::::::::::::::::::::::::::
         ::                     SUMMARY                     ::
         :::::::::::::::::::::::::::::::::::::::::::::::::::::
         :: total energy             -28.640856846483 Eh    ::
         :: gradient norm              0.039317431161 Eh/a0 ::
         :: HOMO-LUMO gap              3.830430223592 eV    ::
         ::.................................................::
         :: SCC energy               -29.049075732463 Eh    ::
         :: -> isotropic ES            0.002744561248 Eh    ::
         :: -> anisotropic ES          0.004406607607 Eh    ::
         :: -> anisotropic XC          0.014621545995 Eh    ::
         :: -> dispersion             -0.020240380870 Eh    ::
         :: repulsion energy           0.408069401862 Eh    ::
         :: add. restraining           0.000000000000 Eh    ::
         :::::::::::::::::::::::::::::::::::::::::::::::::::::

      ----------------------------------------------------------- 
     |                   =====================                   |
     |                        A N C O P T                        |
     |                   =====================                   |
     |               Approximate Normal Coordinate               |
     |                Rational Function Optimizer                |
      ----------------------------------------------------------- 

          ...................................................
          :                      SETUP                      :
          :.................................................:
          :   optimization level            normal          :
          :   max. optcycles                   200          :
          :   ANC micro-cycles                  20          :
          :   degrees of freedom                60          :
          :.................................................:
          :   RF solver                   davidson          :
          :   input Hessian                  false          :
          :   write xtbopt.log                true          :
          :   linear?                        false          :
          :   energy convergence         0.5000000E-05 Eh   :
          :   grad. convergence          0.1000000E-02 Eh/α :
          :   maximium RF displ.         2.0000000          :
          :   Hlow (freq-cutoff)         0.5000000E-02      :
          :   Hmax (freq-cutoff)         5.0000000          :
          :   S6 in model hess.         20.0000000          :
          ...................................................

generating ANC from model Hessian ...
Using Lindh-Hessian (1995)
 Shifting diagonal of input Hessian by   2.223392795817172E-003
 Lowest  eigenvalues of input Hessian
   -0.000000   -0.000000   -0.000000   -0.000000    0.000000    0.000000
    0.005000    0.006352    0.010107    0.010446    0.013951    0.015220
    0.020830    0.023801    0.029863    0.033527    0.041379    0.049489
 Highest eigenvalues
    1.236170    1.361762    1.497264    1.646906    1.752908    1.821998
 

........................................................................
.............................. CYCLE    1 ..............................
........................................................................
   1    -29.0490757 -0.290491E+02  0.248E-05    3.83       0.0  T
   2    -29.0490757 -0.873968E-12  0.121E-05    3.83    1764.4  T
   3    -29.0490757  0.429878E-12  0.998E-06    3.83    2136.7  T
     SCC iter.                  ...        0 min,  0.003 sec
     gradient                   ...        0 min,  0.010 sec
 * total energy  :   -28.6408568 Eh     change       -0.1376460E-08 Eh
   gradient norm :     0.0393174 Eh/α   predicted     0.0000000E+00 (-100.00%)
   displ. norm   :     0.3198913 α      lambda       -0.3649724E-02
   maximum displ.:     0.2251656 α      in ANC's #1, #3, #2, ...

........................................................................
.............................. CYCLE    2 ..............................
........................................................................
   1    -29.0688096 -0.290688E+02  0.197E-01    3.90       0.0  T
   2    -29.0688383 -0.287427E-04  0.101E-01    3.91       1.0  T
   3    -29.0688286  0.972376E-05  0.364E-02    3.91       1.0  T
   4    -29.0688405 -0.118393E-04  0.186E-02    3.91       1.1  T
   5    -29.0688442 -0.374026E-05  0.588E-03    3.91       3.6  T
   6    -29.0688443 -0.682450E-07  0.666E-04    3.91      32.0  T
     SCC iter.                  ...        0 min,  0.005 sec
     gradient                   ...        0 min,  0.010 sec
 * total energy  :   -28.6432212 Eh     change       -0.2364392E-02 Eh
   gradient norm :     0.0138415 Eh/α   predicted    -0.2011601E-02 ( -14.92%)
   displ. norm   :     0.2644619 α      lambda       -0.9465564E-03
   maximum displ.:     0.1716117 α      in ANC's #1, #3, #5, ...

........................................................................
.............................. CYCLE    3 ..............................
........................................................................
   1    -29.0757686 -0.290758E+02  0.125E-01    3.94       0.0  T
   2    -29.0757790 -0.103643E-04  0.645E-02    3.94       1.0  T
   3    -29.0757751  0.386628E-05  0.235E-02    3.94       1.0  T
   4    -29.0757797 -0.455077E-05  0.114E-02    3.94       1.9  T
   5    -29.0757812 -0.148188E-05  0.346E-03    3.94       6.2  T
   6    -29.0757812 -0.192376E-07  0.803E-04    3.94      26.5  T
   7    -29.0757812 -0.836176E-08  0.378E-04    3.94      56.4  T
     SCC iter.                  ...        0 min,  0.006 sec
     gradient                   ...        0 min,  0.010 sec
 * total energy  :   -28.6439059 Eh     change       -0.6847066E-03 Eh
   gradient norm :     0.0052150 Eh/α   predicted    -0.5063862E-03 ( -26.04%)
   displ. norm   :     0.3140164 α      lambda       -0.6393216E-03
   maximum displ.:     0.2167537 α      in ANC's #1, #3, #2, ...

........................................................................
.............................. CYCLE    4 ..............................
........................................................................
   1    -29.0758870 -0.290759E+02  0.141E-01    3.95       0.0  T
   2    -29.0758927 -0.562962E-05  0.779E-02    3.95       1.0  T
   3    -29.0758895  0.318126E-05  0.193E-02    3.95       1.1  T
   4    -29.0758929 -0.346769E-05  0.953E-03    3.95       2.2  T
   5    -29.0758940 -0.103572E-05  0.270E-03    3.95       7.9  T
   6    -29.0758940 -0.289719E-07  0.476E-04    3.95      44.8  T
     SCC iter.                  ...        0 min,  0.005 sec
     gradient                   ...        0 min,  0.010 sec
 * total energy  :   -28.6443852 Eh     change       -0.4793002E-03 Eh
   gradient norm :     0.0064389 Eh/α   predicted    -0.3511900E-03 ( -26.73%)
   displ. norm   :     0.2602177 α      lambda       -0.3578425E-03
   maximum displ.:     0.1929168 α      in ANC's #1, #3, #4, ...

........................................................................
.............................. CYCLE    5 ..............................
........................................................................
   1    -29.0739045 -0.290739E+02  0.120E-01    3.94       0.0  T
   2    -29.0739065 -0.199456E-05  0.669E-02    3.95       1.0  T
   3    -29.0739068 -0.275539E-06  0.938E-03    3.95       2.3  T
   4    -29.0739067  0.993738E-07  0.459E-03    3.95       4.6  T
   5    -29.0739070 -0.273582E-06  0.138E-03    3.95      15.4  T
   6    -29.0739070 -0.318000E-07  0.321E-04    3.95      66.3  T
     SCC iter.                  ...        0 min,  0.005 sec
     gradient                   ...        0 min,  0.010 sec
 * total energy  :   -28.6446414 Eh     change       -0.2561498E-03 Eh
   gradient norm :     0.0054780 Eh/α   predicted    -0.1910366E-03 ( -25.42%)
   displ. norm   :     0.1617003 α      lambda       -0.1572022E-03
   maximum displ.:     0.1316431 α      in ANC's #1, #4, #6, ...

........................................................................
.............................. CYCLE    6 ..............................
........................................................................
   1    -29.0734310 -0.290734E+02  0.863E-02    3.94       0.0  T
   2    -29.0734322 -0.117535E-05  0.474E-02    3.94       1.0  T
   3    -29.0734318  0.391839E-06  0.881E-03    3.94       2.4  T
   4    -29.0734323 -0.419864E-06  0.546E-03    3.94       3.9  T
   5    -29.0734326 -0.322985E-06  0.718E-04    3.94      29.7  T
   6    -29.0734326 -0.370157E-08  0.332E-04    3.94      64.2  T
     SCC iter.                  ...        0 min,  0.006 sec
     gradient                   ...        0 min,  0.010 sec
 * total energy  :   -28.6447629 Eh     change       -0.1214950E-03 Eh
   gradient norm :     0.0040339 Eh/α   predicted    -0.8067123E-04 ( -33.60%)
   displ. norm   :     0.1381784 α      lambda       -0.1160989E-03
   maximum displ.:     0.1155680 α      in ANC's #1, #4, #6, ...

........................................................................
.............................. CYCLE    7 ..............................
........................................................................
   1    -29.0738028 -0.290738E+02  0.808E-02    3.94       0.0  T
   2    -29.0738042 -0.147491E-05  0.436E-02    3.94       1.0  T
   3    -29.0738028  0.140829E-05  0.114E-02    3.94       1.9  T
   4    -29.0738045 -0.167025E-05  0.562E-03    3.94       3.8  T
   5    -29.0738048 -0.256969E-06  0.121E-03    3.94      17.7  T
   6    -29.0738048 -0.466171E-08  0.458E-04    3.94      46.5  T
     SCC iter.                  ...        0 min,  0.005 sec
     gradient                   ...        0 min,  0.010 sec
 * total energy  :   -28.6448593 Eh     change       -0.9639968E-04 Eh
   gradient norm :     0.0031762 Eh/α   predicted    -0.5915939E-04 ( -38.63%)
   displ. norm   :     0.1658651 α      lambda       -0.1243294E-03
   maximum displ.:     0.1367129 α      in ANC's #1, #4, #2, ...

........................................................................
.............................. CYCLE    8 ..............................
........................................................................
   1    -29.0744160 -0.290744E+02  0.105E-01    3.95       0.0  T
   2    -29.0744185 -0.251655E-05  0.557E-02    3.95       1.0  T
   3    -29.0744171  0.135419E-05  0.132E-02    3.95       1.6  T
   4    -29.0744188 -0.163726E-05  0.732E-03    3.95       2.9  T
   5    -29.0744192 -0.476562E-06  0.142E-03    3.95      15.0  T
   6    -29.0744192 -0.898880E-08  0.567E-04    3.95      37.6  T
   7    -29.0744192 -0.464071E-08  0.190E-04    3.95     112.3  T
     SCC iter.                  ...        0 min,  0.006 sec
     gradient                   ...        0 min,  0.010 sec
 * total energy  :   -28.6449614 Eh     change       -0.1021292E-03 Eh
   gradient norm :     0.0032128 Eh/α   predicted    -0.6387996E-04 ( -37.45%)
   displ. norm   :     0.1769135 α      lambda       -0.1106885E-03
   maximum displ.:     0.1476682 α      in ANC's #1, #4, #2, ...

........................................................................
.............................. CYCLE    9 ..............................
........................................................................
   1    -29.0750718 -0.290751E+02  0.110E-01    3.95       0.0  T
   2    -29.0750742 -0.242976E-05  0.588E-02    3.95       1.0  T
   3    -29.0750739  0.265081E-06  0.112E-02    3.95       1.9  T
   4    -29.0750742 -0.240333E-06  0.740E-03    3.95       2.9  T
   5    -29.0750748 -0.637383E-06  0.117E-03    3.95      18.2  T
   6    -29.0750748 -0.106462E-07  0.514E-04    3.95      41.5  T
   7    -29.0750748 -0.377856E-08  0.190E-04    3.95     112.2  T
     SCC iter.                  ...        0 min,  0.006 sec
     gradient                   ...        0 min,  0.010 sec
 * total energy  :   -28.6450498 Eh     change       -0.8842724E-04 Eh
   gradient norm :     0.0031821 Eh/α   predicted    -0.5707991E-04 ( -35.45%)
   displ. norm   :     0.1587586 α      lambda       -0.7421378E-04
   maximum displ.:     0.1311660 α      in ANC's #1, #2, #5, ...

........................................................................
.............................. CYCLE   10 ..............................
........................................................................
   1    -29.0751915 -0.290752E+02  0.104E-01    3.95       0.0  T
   2    -29.0751936 -0.214708E-05  0.552E-02    3.95       1.0  T
   3    -29.0751938 -0.208238E-06  0.977E-03    3.95       2.2  T
   4    -29.0751935  0.325199E-06  0.667E-03    3.95       3.2  T
   5    -29.0751942 -0.656050E-06  0.607E-04    3.95      35.1  T
   6    -29.0751942 -0.318811E-08  0.339E-04    3.95      62.8  T
     SCC iter.                  ...        0 min,  0.005 sec
     gradient                   ...        0 min,  0.010 sec
 * total energy  :   -28.6451090 Eh     change       -0.5916870E-04 Eh
   gradient norm :     0.0026439 Eh/α   predicted    -0.3804565E-04 ( -35.70%)
   displ. norm   :     0.1234507 α      lambda       -0.4890366E-04
   maximum displ.:     0.1006492 α      in ANC's #1, #2, #5, ...

........................................................................
.............................. CYCLE   11 ..............................
........................................................................
   1    -29.0756584 -0.290757E+02  0.754E-02    3.95       0.0  T
   2    -29.0756595 -0.118345E-05  0.408E-02    3.95       1.0  T
   3    -29.0756590  0.512420E-06  0.892E-03    3.95       2.4  T
   4    -29.0756597 -0.646007E-06  0.486E-03    3.95       4.4  T
   5    -29.0756599 -0.192798E-06  0.966E-04    3.95      22.1  T
   6    -29.0756599 -0.718722E-08  0.430E-04    3.95      49.5  T
     SCC iter.                  ...        0 min,  0.005 sec
     gradient                   ...        0 min,  0.010 sec
 * total energy  :   -28.6451461 Eh     change       -0.3703987E-04 Eh
   gradient norm :     0.0025461 Eh/α   predicted    -0.2482484E-04 ( -32.98%)
   displ. norm   :     0.1039376 α      lambda       -0.3507419E-04
   maximum displ.:     0.0846302 α      in ANC's #1, #2, #5, ...

........................................................................
.............................. CYCLE   12 ..............................
........................................................................
   1    -29.0752500 -0.290753E+02  0.643E-02    3.95       0.0  T
   2    -29.0752510 -0.972994E-06  0.346E-02    3.95       1.0  T
   3    -29.0752503  0.669145E-06  0.865E-03    3.95       2.5  T
   4    -29.0752512 -0.852522E-06  0.425E-03    3.95       5.0  T
   5    -29.0752513 -0.127272E-06  0.973E-04    3.95      21.9  T
   6    -29.0752513 -0.576386E-08  0.412E-04    3.95      51.8  T
     SCC iter.                  ...        0 min,  0.006 sec
     gradient                   ...        0 min,  0.011 sec
 * total energy  :   -28.6451725 Eh     change       -0.2646965E-04 Eh
   gradient norm :     0.0014601 Eh/α   predicted    -0.1773081E-04 ( -33.01%)
   displ. norm   :     0.1304921 α      lambda       -0.2456623E-04
   maximum displ.:     0.0984686 α      in ANC's #1, #2, #4, ...

........................................................................
.............................. CYCLE   13 ..............................
........................................................................
   1    -29.0752861 -0.290753E+02  0.877E-02    3.95       0.0  T
   2    -29.0752881 -0.197771E-05  0.464E-02    3.95       1.0  T
   3    -29.0752871  0.979672E-06  0.113E-02    3.95       1.9  T
   4    -29.0752884 -0.131638E-05  0.584E-03    3.95       3.6  T
   5    -29.0752886 -0.250992E-06  0.123E-03    3.95      17.3  T
   6    -29.0752887 -0.745579E-08  0.461E-04    3.95      46.3  T
   7    -29.0752887 -0.308015E-08  0.179E-04    3.95     118.8  T
     SCC iter.                  ...        0 min,  0.006 sec
     gradient                   ...        0 min,  0.010 sec
 * total energy  :   -28.6451991 Eh     change       -0.2661202E-04 Eh
   gradient norm :     0.0020184 Eh/α   predicted    -0.1237753E-04 ( -53.49%)
   displ. norm   :     0.0756045 α      lambda       -0.1821923E-04
   maximum displ.:     0.0547737 α      in ANC's #1, #2, #4, ...

........................................................................
.............................. CYCLE   14 ..............................
........................................................................
   1    -29.0751711 -0.290752E+02  0.372E-02    3.95       0.0  T
   2    -29.0751712 -0.115882E-06  0.213E-02    3.95       1.0  T
   3    -29.0751711  0.105952E-06  0.352E-03    3.95       6.1  T
   4    -29.0751713 -0.120993E-06  0.175E-03    3.95      12.2  T
   5    -29.0751713 -0.271162E-07  0.322E-04    3.95      66.2  T
   6    -29.0751713 -0.100058E-08  0.958E-05    3.95     222.5  T
     SCC iter.                  ...        0 min,  0.005 sec
     gradient                   ...        0 min,  0.010 sec
 * total energy  :   -28.6452132 Eh     change       -0.1406782E-04 Eh
   gradient norm :     0.0015921 Eh/α   predicted    -0.9166660E-05 ( -34.84%)
   displ. norm   :     0.1485687 α      lambda       -0.1969688E-04
   maximum displ.:     0.0993803 α      in ANC's #1, #4, #2, ...

........................................................................
.............................. CYCLE   15 ..............................
........................................................................
   1    -29.0749680 -0.290750E+02  0.994E-02    3.95       0.0  T
   2    -29.0749700 -0.196444E-05  0.524E-02    3.95       1.0  T
   3    -29.0749704 -0.376634E-06  0.885E-03    3.95       2.4  T
   4    -29.0749702  0.208550E-06  0.415E-03    3.95       5.1  T
   5    -29.0749705 -0.304523E-06  0.651E-04    3.95      32.8  T
   6    -29.0749705 -0.617843E-08  0.289E-04    3.95      73.8  T
     SCC iter.                  ...        0 min,  0.005 sec
     gradient                   ...        0 min,  0.011 sec
 * total energy  :   -28.6452283 Eh     change       -0.1505017E-04 Eh
   gradient norm :     0.0013754 Eh/α   predicted    -0.9946762E-05 ( -33.91%)
   displ. norm   :     0.0290628 α      lambda       -0.4599863E-05
   maximum displ.:     0.0201555 α      in ANC's #4, #3, #1, ...

........................................................................
.............................. CYCLE   16 ..............................
........................................................................
   1    -29.0753413 -0.290753E+02  0.202E-02    3.95       0.0  T
   2    -29.0753414 -0.181226E-06  0.108E-02    3.95       2.0  T
   3    -29.0753412  0.232639E-06  0.428E-03    3.95       5.0  T
   4    -29.0753415 -0.295146E-06  0.160E-03    3.95      13.4  T
   5    -29.0753415 -0.171778E-07  0.473E-04    3.95      45.1  T
   6    -29.0753415 -0.165137E-09  0.185E-04    3.95     115.4  T
     SCC iter.                  ...        0 min,  0.006 sec
     gradient                   ...        0 min,  0.010 sec
 * total energy  :   -28.6452320 Eh     change       -0.3787543E-05 Eh
   gradient norm :     0.0007348 Eh/α   predicted    -0.2301555E-05 ( -39.23%)
   displ. norm   :     0.0258800 α      lambda       -0.3021774E-05
   maximum displ.:     0.0159963 α      in ANC's #3, #4, #2, ...

   *** GEOMETRY OPTIMIZATION CONVERGED AFTER 16 ITERATIONS ***

------------------------------------------------------------------------
 total energy gain   :        -0.0043752 Eh       -2.7455 kcal/mol
 total RMSD          :         0.4359788 a0        0.2307 Å
 total power (kW/mol):        -0.7179424 (step)  -29.2800 (real)
------------------------------------------------------------------------

 ANCopt (total)                0 d,  0 h,  0 min,  0.392 sec
 optimizer setup                ...        0 min,  0.000 sec (  0.036%)
 model hessian                  ...        0 min,  0.012 sec (  3.153%)
 ANC generation                 ...        0 min,  0.001 sec (  0.176%)
 coordinate transformation      ...        0 min,  0.000 sec (  0.074%)
 single point calculation       ...        0 min,  0.374 sec ( 95.280%)
 optimization log               ...        0 min,  0.002 sec (  0.392%)
 hessian update                 ...        0 min,  0.000 sec (  0.057%)
 rational function              ...        0 min,  0.002 sec (  0.565%)

================
 final structure:
================
$coord
    2.67915580716734    2.19547592233321   -0.76540946468610      C 
    4.97532079364680   -0.10771337351837   -0.79241806712092      S 
    2.75306694774330   -2.38846467394358   -0.12802490093380      C 
    0.39011202163941   -1.41634593438066    0.11018443548432      C 
    0.34567459885273    1.24970257435650   -0.26626511522271      C 
   -2.05001744554798    2.75246170113212   -0.20332731701654      C 
   -4.19892574673129    1.23644899703020    0.98985804611114      C 
   -4.32284489863133   -1.47151156972201   -0.02692788633030      C 
   -4.65329961109687   -1.55033156232202   -2.89240505246005      C 
   -1.92969542904689   -2.89198109658615    0.76952749503403      C 
    3.20206082870824    4.11938249965697   -1.12677443042452      H 
    3.33976954398003   -4.31869325892389    0.05664018337274      H 
   -2.56002898216780    3.28052976800866   -2.13624233747237      H 
   -1.75594653929754    4.50786191147347    0.84404993887695      H 
   -5.98961631392224    2.19969100743942    0.63925477666418      H 
   -3.91934758866977    1.15389781489574    3.03401129163532      H 
   -5.95576758062636   -2.40721383748804    0.83916381885782      H 
   -2.95031123561919   -0.90952143974213   -3.84440787987982      H 
   -6.22508531469189   -0.36024747086649   -3.47352045478412      H 
   -5.03977670806997   -3.47447620654210   -3.50663203260038      H 
   -1.86402744259754   -4.75221181553777   -0.12161918718640      H 
   -1.96479542113373   -3.19040738494164    2.81710264294031      H 
$end
           -------------------------------------------------
          |                Final Singlepoint                |
           -------------------------------------------------

          ...................................................
          :                      SETUP                      :
          :.................................................:
          :  # basis functions                  58          :
          :  # atomic orbitals                  57          :
          :  # shells                           33          :
          :  # electrons                        54          :
          :  max. iterations                   250          :
          :  Hamiltonian                  GFN2-xTB          :
          :  restarted?                      false          :
          :  GBSA solvation                  false          :
          :  PC potential                    false          :
          :  electronic temp.          300.0000000     K    :
          :  accuracy                    1.0000000          :
          :  -> integral cutoff          0.2500000E+02      :
          :  -> integral neglect         0.1000000E-07      :
          :  -> SCF convergence          0.1000000E-05 Eh   :
          :  -> wf. convergence          0.1000000E-03 e    :
          :  Broyden damping             0.4000000          :
          ...................................................

 iter      E             dE          RMSdq      gap      omega  full diag
   1    -29.0753415 -0.290753E+02  0.114E-04    3.95       0.0  T
   2    -29.0753415 -0.582645E-11  0.433E-05    3.95     492.1  T
   3    -29.0753415  0.117915E-10  0.504E-05    3.95     423.1  T

   *** convergence criteria satisfied after 3 iterations ***

         #    Occupation            Energy/Eh            Energy/eV
      -------------------------------------------------------------
         1        2.0000           -0.7204183             -19.6036
       ...           ...                  ...                  ...
        21        2.0000           -0.4453504             -12.1186
        22        2.0000           -0.4401377             -11.9768
        23        2.0000           -0.4334203             -11.7940
        24        2.0000           -0.4230793             -11.5126
        25        2.0000           -0.4181939             -11.3796
        26        2.0000           -0.3787837             -10.3072
        27        2.0000           -0.3782502             -10.2927 (HOMO)
        28                         -0.2329377              -6.3386 (LUMO)
        29                         -0.1926468              -5.2422
        30                         -0.1581852              -4.3044
        31                         -0.1049261              -2.8552
        32                          0.0076989               0.2095
       ...                                ...                  ...
        57                          0.6936818              18.8760
      -------------------------------------------------------------
                  HL-Gap            0.1453124 Eh            3.9542 eV
             Fermi-level           -0.3055940 Eh           -8.3156 eV

 SCC (total)                   0 d,  0 h,  0 min,  0.021 sec
 SCC setup                      ...        0 min,  0.000 sec (  0.800%)
 Dispersion                     ...        0 min,  0.000 sec (  0.696%)
 integral evaluation            ...        0 min,  0.006 sec ( 29.296%)
 zeroth order Hamiltonian       ...        0 min,  0.000 sec (  0.676%)
 iterations                     ...        0 min,  0.003 sec ( 15.816%)
 molecular gradient             ...        0 min,  0.011 sec ( 50.895%)
 printout                       ...        0 min,  0.000 sec (  1.575%)

         :::::::::::::::::::::::::::::::::::::::::::::::::::::
         ::                     SUMMARY                     ::
         :::::::::::::::::::::::::::::::::::::::::::::::::::::
         :: total energy             -28.645232064474 Eh    ::
         :: gradient norm              0.000734996623 Eh/a0 ::
         :: HOMO-LUMO gap              3.954152559249 eV    ::
         ::.................................................::
         :: SCC energy               -29.075341519856 Eh    ::
         :: -> isotropic ES            0.002868444109 Eh    ::
         :: -> anisotropic ES          0.003885272996 Eh    ::
         :: -> anisotropic XC          0.014403066129 Eh    ::
         :: -> dispersion             -0.020754972429 Eh    ::
         :: repulsion energy           0.429952400735 Eh    ::
         :: add. restraining           0.000000000000 Eh    ::
         :::::::::::::::::::::::::::::::::::::::::::::::::::::

           -------------------------------------------------
          |                Property Printout                |
           -------------------------------------------------

    * Orbital Energies and Occupations

         #    Occupation            Energy/Eh            Energy/eV
      -------------------------------------------------------------
         1        2.0000           -0.7204183             -19.6036
       ...           ...                  ...                  ...
        15        2.0000           -0.4849893             -13.1972
        16        2.0000           -0.4783194             -13.0157
        17        2.0000           -0.4726541             -12.8616
        18        2.0000           -0.4633309             -12.6079
        19        2.0000           -0.4621018             -12.5744
        20        2.0000           -0.4528583             -12.3229
        21        2.0000           -0.4453504             -12.1186
        22        2.0000           -0.4401377             -11.9768
        23        2.0000           -0.4334203             -11.7940
        24        2.0000           -0.4230793             -11.5126
        25        2.0000           -0.4181939             -11.3796
        26        2.0000           -0.3787837             -10.3072
        27        2.0000           -0.3782502             -10.2927 (HOMO)
        28                         -0.2329377              -6.3386 (LUMO)
        29                         -0.1926468              -5.2422
        30                         -0.1581852              -4.3044
        31                         -0.1049261              -2.8552
        32                          0.0076989               0.2095
        33                          0.0394813               1.0743
        34                          0.0439294               1.1954
        35                          0.0822106               2.2371
        36                          0.0865994               2.3565
        37                          0.0983957               2.6775
        38                          0.1080400               2.9399
       ...                                ...                  ...
        57                          0.6936818              18.8760
      -------------------------------------------------------------
                  HL-Gap            0.1453124 Eh            3.9542 eV
             Fermi-level           -0.3055940 Eh           -8.3156 eV

     #   Z        covCN         q      C6AA      α(0)
     1   6 C      2.941    -0.035    28.863     8.811
     2  16 S      2.290    -0.056   143.373    20.153
     3   6 C      2.941    -0.034    28.848     8.809
     4   6 C      3.163    -0.005    27.805     8.618
     5   6 C      3.163    -0.006    27.841     8.624
     6   6 C      3.806    -0.054    21.538     6.607
     7   6 C      3.808    -0.056    21.574     6.612
     8   6 C      3.854    -0.009    20.699     6.471
     9   6 C      3.754    -0.104    22.541     6.770
    10   6 C      3.811    -0.058    21.609     6.617
    11   1 H      0.926     0.035     2.512     2.479
    12   1 H      0.926     0.036     2.507     2.476
    13   1 H      0.924     0.043     2.416     2.431
    14   1 H      0.924     0.035     2.520     2.483
    15   1 H      0.924     0.029     2.598     2.520
    16   1 H      0.924     0.033     2.550     2.497
    17   1 H      0.924     0.024     2.669     2.555
    18   1 H      0.925     0.041     2.430     2.438
    19   1 H      0.925     0.034     2.535     2.490
    20   1 H      0.925     0.032     2.562     2.503
    21   1 H      0.924     0.037     2.487     2.466
    22   1 H      0.924     0.038     2.472     2.459

 Mol. C6AA /au·bohr⁶  :       5686.978489
 Mol. C8AA /au·bohr⁸  :     151101.764320
 Mol. α(0) /au        :        117.887112


Wiberg/Mayer (AO) data.
largest (>0.10) Wiberg bond orders for each atom
          total WBO             WBO to atom ...
     1  C   3.942        C    5 1.610    S    2 1.180    H   11 0.971    C    3 0.120
     2  S   2.616        C    1 1.180    C    3 1.179
     3  C   3.942        C    4 1.609    S    2 1.179    H   12 0.971    C    1 0.120
     4  C   3.986        C    3 1.609    C    5 1.218    C   10 1.009
     5  C   3.986        C    1 1.610    C    4 1.218    C    6 1.008
     6  C   3.998        C    5 1.008    C    7 1.005    H   14 0.969    H   13 0.960
     7  C   3.998        C    6 1.005    C    8 0.997    H   16 0.978    H   15 0.977
     8  C   3.996        C    9 1.010    C    7 0.997    C   10 0.993    H   17 0.969
     9  C   3.997        C    8 1.010    H   20 0.987    H   19 0.986    H   18 0.985
    10  C   3.998        C    4 1.009    C    8 0.993    H   21 0.970    H   22 0.960
    11  H   0.999        C    1 0.971
    12  H   0.999        C    3 0.971
    13  H   0.998        C    6 0.960
    14  H   0.999        C    6 0.969
    15  H   0.998        C    7 0.977
    16  H   0.999        C    7 0.978
    17  H   0.998        C    8 0.969
    18  H   0.998        C    9 0.985
    19  H   0.999        C    9 0.986
    20  H   0.999        C    9 0.987
    21  H   0.998        C   10 0.970
    22  H   0.999        C   10 0.960

molecular dipole:
                 x           y           z       tot (Debye)
 q only:       -0.511       0.006       0.042
   full:       -0.756       0.009       0.098       1.937
molecular quadrupole (traceless):
                xx          xy          yy          xz          yz          zz
 q only:       -1.465      -0.058       1.847       0.294      -0.466      -0.382
  q+dip:       -3.961      -0.103       4.621       0.600      -0.950      -0.661
   full:       -4.353      -0.063       4.380       0.794      -0.808      -0.027

           -------------------------------------------------
          |                Geometry Summary                 |
           -------------------------------------------------

      molecular mass/u    :      152.2538000
   center of mass at/Å    :       -0.0152459      -0.1219151      -0.2099666
  moments of inertia/u·Å² :        0.2056268E+03   0.6046165E+03   0.7049417E+03
rotational constants/cm⁻¹ :        0.8198169E-01   0.2788153E-01   0.2391351E-01

 * 23 selected distances

     #   Z        #   Z                                     value/Å
     1   6 C      2  16 S                                 1.7210699
     2  16 S      3   6 C                                 1.7213850 (max)
     3   6 C      4   6 C                                 1.3579677
     1   6 C      5   6 C                                 1.3583236
     4   6 C      5   6 C                                 1.4250011
     5   6 C      6   6 C                                 1.4968877
     6   6 C      7   6 C                                 1.5281951
     7   6 C      8   6 C                                 1.5320810
     8   6 C      9   6 C                                 1.5269650
     4   6 C     10   6 C                                 1.4961535
     8   6 C     10   6 C                                 1.5318049
     1   6 C     11   1 H                                 1.0722117
     3   6 C     12   1 H                                 1.0720384 (min)
     6   6 C     13   1 H                                 1.0941472
     6   6 C     14   1 H                                 1.0928384
     7   6 C     15   1 H                                 1.0918673
     7   6 C     16   1 H                                 1.0926634
     8   6 C     17   1 H                                 1.0963156
     9   6 C     18   1 H                                 1.0866983
     9   6 C     19   1 H                                 1.0876499
     9   6 C     20   1 H                                 1.0882247
    10   6 C     21   1 H                                 1.0920702
    10   6 C     22   1 H                                 1.0951354

 * 3 distinct bonds (by element types)

   Z      Z             #   av. dist./Å        max./Å        min./Å
   1 H    6 C          12     1.0884884     1.0963156     1.0720384
   6 C    6 C           9     1.4725977     1.5320810     1.3579677
   6 C   16 S           2     1.7212275     1.7213850     1.7210699


optimized geometry written to: xtbopt.xyz


           -------------------------------------------------
          | TOTAL ENERGY              -28.645232064474 Eh   |
          | GRADIENT NORM               0.000734996623 Eh/α |
          | HOMO-LUMO GAP               3.954152559249 eV   |
           -------------------------------------------------

------------------------------------------------------------------------
 * finished run on 2021/05/19 at 11:00:55.189     
------------------------------------------------------------------------
 total:
 * wall-time:     0 d,  0 h,  0 min,  0.469 sec
 *  cpu-time:     0 d,  0 h,  0 min,  0.448 sec
 * ratio c/w:     0.955 speedup
 SCF:
 * wall-time:     0 d,  0 h,  0 min,  0.029 sec
 *  cpu-time:     0 d,  0 h,  0 min,  0.029 sec
 * ratio c/w:     1.000 speedup
 ANC optimizer:
 * wall-time:     0 d,  0 h,  0 min,  0.414 sec
 *  cpu-time:     0 d,  0 h,  0 min,  0.401 sec
 * ratio c/w:     0.968 speedup

