      -----------------------------------------------------------      
     |                   =====================                   |     
     |                           x T B                           |     
     |                   =====================                   |     
     |                         S. Grimme                         |     
     |          Mulliken Center for Theoretical Chemistry        |     
     |                    University of Bonn                     |     
     |                Version 6.2 RC2 (SAW190805)                |     
      -----------------------------------------------------------      

   This program is distributed in the hope that it will be useful,
   but WITHOUT ANY WARRANTY; without even the implied warranty of
   MERCHANTABILITY or FITNESS FOR A PARTICULAR PURPOSE.
   
   FOR NON-COMMERCIAL, ACADEMIA USE ONLY.
   
   Cite this work as:
   * S. Grimme, C. Bannwarth, P. Shushkov, J. Chem. Theory Comput., 2017,
     13, 1989-2009. DOI: 10.1021/acs.jctc.7b00118
   * C. Bannwarth, S. Ehlert and S. Grimme., J. Chem. Theory Comput., 2019,
     15, 1652-1671. DOI: 10.1021/acs.jctc.8b01176
   * P. Pracht, E. Caldeweyher, S. Ehlert, S. Grimme, ChemRxiv, 2019, preprint.
     DOI: 10.26434/chemrxiv.8326202.v1
   
   for DFT-D4:
   * E. Caldeweyher, C. Bannwarth and S. Grimme, J. Chem. Phys., 2017,
     147, 034112. DOI: 10.1063/1.4993215
   * E. Caldeweyher, S. Ehlert, A. Hansen, H. Neugebauer, S. Spicher,
     C. Bannwarth and S. Grimme, J. Chem. Phys., 2019, 150, 154122.
     DOI: 10.1063/1.5090222
   
   for sTDA-xTB:
   * S. Grimme and C. Bannwarth, J. Chem. Phys., 2016, 145, 054103.
     DOI: 10.1063/1.4959605
   
   in the mass-spec context:
   * V. Asgeirsson, C. Bauer and S. Grimme, Chem. Sci., 2017, 8, 4879.
     DOI: 10.1039/c7sc00601b
   
   for metadynamics refer to:
   * S. Grimme, J. Chem. Theory Comput., 2019, 155, 2847-2862
     DOI: 10.1021/acs.jctc.9b00143
   
   with help from (in alphabetical order)
   C. Bannwarth, F. Bohle, G. Brandenburg, E. Caldeweyher, M. Checinski,
   S. Dohm, S. Ehlert, S. Ehrlich, F. März, H. Neugebauer, J. Pisarek,
   P. Pracht, P. Shushkov, and S. Spicher.
   
 * started run on 2021/05/19 at 11:00:41.279     

           -------------------------------------------------
          |                Calculation Setup                |
           -------------------------------------------------

          program call               : /ihome/ghutchison/geoffh/xtb/xtb 859.xyz -opt
          hostname                   : smp-n83
          coordinate file            : 859.xyz
          omp threads                :                     1
          number of atoms            :                    19
          number of electrons        :                    64
          charge                     :                     0
          spin                       :                   0.0
          first test random number   :      0.05841365454959


########################################################################
# WARNING! Please study the warnings concerning your input carefully
#  - the use of '-opt' is discouraged, please use '--opt' next time
########################################################################

           ------------------------------------------------- 
          |                 G F N 2 - x T B                 |
          | Geometry, Frequencies, Noncovalent interactions |
          |            JCTC 2019 parametrisation            |
           ------------------------------------------------- 
             KAB for C  - Si     :                1.0500
             KAB for H  - Pd     :                0.9500
             k(s)              :                1.8500
             k(p)              :                2.2300
             k(d)              :                2.2300
             k(f)              :                2.0000
             kEN (H0ij)        :               -2.0000
             D4 a1             :                0.5200
             D4 a2             :                5.0000
             D4 s6             :                1.0000
             D4 s8             :                2.7000
             D4 s9             :                5.0000
             alphaj            :                2.0000

  Z AO/shell   Hii/eV     exponent
  1     Wed Apr 25 08:07:45 CEST 2018   EN: 2.200 GM2: 0.406  GM3: 0.0800  RAES: 1.40
     1s    -10.707211    1.230000
  6     Wed Apr 25 08:07:45 CEST 2018   EN: 2.550 GM2: 0.538  GM3: 0.1500  RAES: 3.00
     2s    -13.970922    2.096432
     2p    -10.063292    1.800000
 16     Tue Apr 24 11:44:34 CEST 2018   EN: 2.580 GM2: 0.340  GM3:-0.0502  RAES: 3.10
     3s    -20.029654    1.981333
     3p    -11.377694    2.025643
     3d     -0.420282    1.702555

           ------------------------------------------------- 
          |        Self-Consistent Charge Iterations        |
           ------------------------------------------------- 

          ...................................................
          :                      SETUP                      :
          :.................................................:
          :  # basis functions                  76          :
          :  # atomic orbitals                  73          :
          :  # shells                           35          :
          :  # electrons                        64          :
          :  max. iterations                   250          :
          :  Hamiltonian                  GFN2-xTB          :
          :  restarted?                      false          :
          :  GBSA solvation                  false          :
          :  PC potential                    false          :
          :  electronic temp.          300.0000000     K    :
          :  accuracy                    1.0000000          :
          :  -> integral cutoff          0.2500000E+02      :
          :  -> integral neglect         0.1000000E-07      :
          :  -> SCF convergence          0.1000000E-05 Eh   :
          :  -> wf. convergence          0.1000000E-03 e    :
          :  Broyden damping             0.4000000          :
          ...................................................

 iter      E             dE          RMSdq      gap      omega  full diag
   1    -34.6036843 -0.346037E+02  0.503E+00    2.33       0.0  T
   2    -34.6198089 -0.161246E-01  0.276E+00    2.23       1.0  T
   3    -34.6015092  0.182997E-01  0.126E+00    2.30       1.0  T
   4    -34.6231874 -0.216782E-01  0.490E-01    2.21       1.0  T
   5    -34.6247468 -0.155936E-02  0.220E-01    2.25       1.0  T
   6    -34.6248681 -0.121318E-03  0.122E-01    2.25       1.0  T
   7    -34.6250886 -0.220510E-03  0.294E-02    2.24       1.0  T
   8    -34.6250971 -0.852092E-05  0.128E-02    2.25       1.8  T
   9    -34.6250975 -0.351933E-06  0.778E-03    2.25       2.9  T
  10    -34.6250978 -0.384047E-06  0.261E-03    2.25       8.8  T
  11    -34.6250979 -0.347845E-07  0.113E-03    2.25      20.2  T
  12    -34.6250979 -0.522144E-08  0.683E-04    2.25      33.6  T
  13    -34.6250979 -0.246392E-08  0.357E-04    2.25      64.3  T

   *** convergence criteria satisfied after 13 iterations ***

         #    Occupation            Energy/Eh            Energy/eV
      -------------------------------------------------------------
         1        2.0000           -0.7417673             -20.1845
       ...           ...                  ...                  ...
        26        2.0000           -0.4474402             -12.1755
        27        2.0000           -0.4409381             -11.9985
        28        2.0000           -0.4304662             -11.7136
        29        2.0000           -0.4173042             -11.3554
        30        2.0000           -0.4087894             -11.1237
        31        2.0000           -0.3800775             -10.3424
        32        2.0000           -0.3672268              -9.9927 (HOMO)
        33                         -0.2846862              -7.7467 (LUMO)
        34                         -0.2526242              -6.8743
        35                         -0.2317637              -6.3066
        36                         -0.2184402              -5.9441
        37                         -0.2148425              -5.8462
       ...                                ...                  ...
        73                          0.7283308              19.8189
      -------------------------------------------------------------
                  HL-Gap            0.0825406 Eh            2.2460 eV
             Fermi-level           -0.3259565 Eh           -8.8697 eV

 SCC (total)                   0 d,  0 h,  0 min,  0.044 sec
 SCC setup                      ...        0 min,  0.000 sec (  0.672%)
 Dispersion                     ...        0 min,  0.000 sec (  0.620%)
 integral evaluation            ...        0 min,  0.011 sec ( 25.751%)
 zeroth order Hamiltonian       ...        0 min,  0.000 sec (  0.421%)
 iterations                     ...        0 min,  0.016 sec ( 37.152%)
 molecular gradient             ...        0 min,  0.015 sec ( 34.419%)
 printout                       ...        0 min,  0.000 sec (  0.842%)

         :::::::::::::::::::::::::::::::::::::::::::::::::::::
         ::                     SUMMARY                     ::
         :::::::::::::::::::::::::::::::::::::::::::::::::::::
         :: total energy             -34.150630093541 Eh    ::
         :: gradient norm              0.097296588303 Eh/a0 ::
         :: HOMO-LUMO gap              2.246043094338 eV    ::
         ::.................................................::
         :: SCC energy               -34.625097881968 Eh    ::
         :: -> isotropic ES            0.001963020733 Eh    ::
         :: -> anisotropic ES          0.000774965951 Eh    ::
         :: -> anisotropic XC          0.016029611163 Eh    ::
         :: -> dispersion             -0.024711907800 Eh    ::
         :: repulsion energy           0.474573597218 Eh    ::
         :: add. restraining           0.000000000000 Eh    ::
         :::::::::::::::::::::::::::::::::::::::::::::::::::::

      ----------------------------------------------------------- 
     |                   =====================                   |
     |                        A N C O P T                        |
     |                   =====================                   |
     |               Approximate Normal Coordinate               |
     |                Rational Function Optimizer                |
      ----------------------------------------------------------- 

          ...................................................
          :                      SETUP                      :
          :.................................................:
          :   optimization level            normal          :
          :   max. optcycles                   200          :
          :   ANC micro-cycles                  20          :
          :   degrees of freedom                51          :
          :.................................................:
          :   RF solver                   davidson          :
          :   input Hessian                  false          :
          :   write xtbopt.log                true          :
          :   linear?                        false          :
          :   energy convergence         0.5000000E-05 Eh   :
          :   grad. convergence          0.1000000E-02 Eh/α :
          :   maximium RF displ.         2.0000000          :
          :   Hlow (freq-cutoff)         0.5000000E-02      :
          :   Hmax (freq-cutoff)         5.0000000          :
          :   S6 in model hess.         20.0000000          :
          ...................................................

generating ANC from model Hessian ...
Using Lindh-Hessian (1995)
 Shifting diagonal of input Hessian by   3.450936359294247E-003
 Lowest  eigenvalues of input Hessian
   -0.000000   -0.000000   -0.000000    0.000000    0.000000    0.000000
    0.005000    0.006489    0.008878    0.010759    0.011910    0.019095
    0.021811    0.025985    0.031350    0.037376    0.041996    0.043863
 Highest eigenvalues
    1.674207    1.734582    1.764648    1.918746    1.980083    1.990285
 

........................................................................
.............................. CYCLE    1 ..............................
........................................................................
   1    -34.6250979 -0.346251E+02  0.149E-04    2.25       0.0  T
   2    -34.6250979 -0.183960E-10  0.934E-05    2.25     245.7  T
   3    -34.6250979 -0.290754E-10  0.726E-05    2.25     315.8  T
     SCC iter.                  ...        0 min,  0.004 sec
     gradient                   ...        0 min,  0.015 sec
 * total energy  :   -34.1506301 Eh     change        0.8735761E-08 Eh
   gradient norm :     0.0972960 Eh/α   predicted     0.0000000E+00 (-100.00%)
   displ. norm   :     0.3710726 α      lambda       -0.1811328E-01
   maximum displ.:     0.2470412 α      in ANC's #8, #20, #11, ...

........................................................................
.............................. CYCLE    2 ..............................
........................................................................
   1    -34.6521607 -0.346522E+02  0.424E-01    2.25       0.0  T
   2    -34.6523249 -0.164235E-03  0.247E-01    2.27       1.0  T
   3    -34.6521734  0.151477E-03  0.158E-01    2.26       1.0  T
   4    -34.6525021 -0.328644E-03  0.585E-02    2.27       1.0  T
   5    -34.6525281 -0.260018E-04  0.281E-02    2.27       1.0  T
   6    -34.6525313 -0.325474E-05  0.135E-02    2.27       1.7  T
   7    -34.6525327 -0.143058E-05  0.575E-03    2.27       4.0  T
   8    -34.6525328 -0.573023E-07  0.367E-03    2.27       6.3  T
     SCC iter.                  ...        0 min,  0.009 sec
     gradient                   ...        0 min,  0.014 sec
 * total energy  :   -34.1637267 Eh     change       -0.1309659E-01 Eh
   gradient norm :     0.0485686 Eh/α   predicted    -0.1030370E-01 ( -21.33%)
   displ. norm   :     0.3626094 α      lambda       -0.8011892E-02
   maximum displ.:     0.2811615 α      in ANC's #8, #3, #31, ...

........................................................................
.............................. CYCLE    3 ..............................
........................................................................
   1    -34.6680005 -0.346680E+02  0.336E-01    2.26       0.0  T
   2    -34.6681116 -0.111090E-03  0.207E-01    2.28       1.0  T
   3    -34.6680604  0.512013E-04  0.136E-01    2.28       1.0  T
   4    -34.6682305 -0.170100E-03  0.493E-02    2.28       1.0  T
   5    -34.6682525 -0.220007E-04  0.208E-02    2.28       1.1  T
   6    -34.6682551 -0.263672E-05  0.108E-02    2.28       2.1  T
   7    -34.6682558 -0.659142E-06  0.510E-03    2.28       4.5  T
   8    -34.6682559 -0.521529E-07  0.267E-03    2.28       8.6  T
     SCC iter.                  ...        0 min,  0.009 sec
     gradient                   ...        0 min,  0.014 sec
 * total energy  :   -34.1684489 Eh     change       -0.4722279E-02 Eh
   gradient norm :     0.0179551 Eh/α   predicted    -0.4532680E-02 (  -4.01%)
   displ. norm   :     0.2278628 α      lambda       -0.1198401E-02
   maximum displ.:     0.1526343 α      in ANC's #8, #3, #2, ...

........................................................................
.............................. CYCLE    4 ..............................
........................................................................
   1    -34.6690191 -0.346690E+02  0.163E-01    2.27       0.0  T
   2    -34.6690267 -0.758177E-05  0.898E-02    2.27       1.0  T
   3    -34.6690006  0.261174E-04  0.525E-02    2.27       1.0  T
   4    -34.6690324 -0.318549E-04  0.176E-02    2.27       1.3  T
   5    -34.6690335 -0.108178E-05  0.873E-03    2.27       2.6  T
   6    -34.6690345 -0.965472E-06  0.340E-03    2.27       6.7  T
   7    -34.6690345 -0.395879E-07  0.166E-03    2.27      13.8  T
   8    -34.6690345 -0.693550E-08  0.901E-04    2.27      25.5  T
     SCC iter.                  ...        0 min,  0.009 sec
     gradient                   ...        0 min,  0.014 sec
 * total energy  :   -34.1692526 Eh     change       -0.8036639E-03 Eh
   gradient norm :     0.0102693 Eh/α   predicted    -0.6303199E-03 ( -21.57%)
   displ. norm   :     0.2344284 α      lambda       -0.6810066E-03
   maximum displ.:     0.1320970 α      in ANC's #3, #8, #2, ...

........................................................................
.............................. CYCLE    5 ..............................
........................................................................
   1    -34.6689574 -0.346690E+02  0.179E-01    2.26       0.0  T
   2    -34.6689631 -0.577583E-05  0.974E-02    2.26       1.0  T
   3    -34.6689433  0.197990E-04  0.419E-02    2.27       1.0  T
   4    -34.6689666 -0.232370E-04  0.148E-02    2.26       1.6  T
   5    -34.6689671 -0.520657E-06  0.578E-03    2.26       4.0  T
   6    -34.6689675 -0.420063E-06  0.247E-03    2.26       9.3  T
   7    -34.6689675 -0.304210E-07  0.146E-03    2.26      15.7  T
     SCC iter.                  ...        0 min,  0.008 sec
     gradient                   ...        0 min,  0.014 sec
 * total energy  :   -34.1695911 Eh     change       -0.3385029E-03 Eh
   gradient norm :     0.0066869 Eh/α   predicted    -0.3592167E-03 (   6.12%)
   displ. norm   :     0.1351576 α      lambda       -0.2527543E-03
   maximum displ.:     0.0772137 α      in ANC's #2, #3, #5, ...

........................................................................
.............................. CYCLE    6 ..............................
........................................................................
   1    -34.6695576 -0.346696E+02  0.107E-01    2.26       0.0  T
   2    -34.6695602 -0.262626E-05  0.578E-02    2.26       1.0  T
   3    -34.6695568  0.341710E-05  0.170E-02    2.26       1.3  T
   4    -34.6695609 -0.411964E-05  0.732E-03    2.26       3.1  T
   5    -34.6695612 -0.247561E-06  0.287E-03    2.26       8.0  T
   6    -34.6695613 -0.895333E-07  0.906E-04    2.26      25.3  T
     SCC iter.                  ...        0 min,  0.007 sec
     gradient                   ...        0 min,  0.014 sec
 * total energy  :   -34.1697391 Eh     change       -0.1480229E-03 Eh
   gradient norm :     0.0058061 Eh/α   predicted    -0.1286914E-03 ( -13.06%)
   displ. norm   :     0.1092811 α      lambda       -0.1280825E-03
   maximum displ.:     0.0631403 α      in ANC's #3, #2, #1, ...

........................................................................
.............................. CYCLE    7 ..............................
........................................................................
   1    -34.6705180 -0.346705E+02  0.930E-02    2.26       0.0  T
   2    -34.6705201 -0.209047E-05  0.488E-02    2.26       1.0  T
   3    -34.6705188  0.124382E-05  0.135E-02    2.26       1.7  T
   4    -34.6705206 -0.174303E-05  0.631E-03    2.26       3.6  T
   5    -34.6705207 -0.136917E-06  0.189E-03    2.26      12.1  T
   6    -34.6705207 -0.431570E-07  0.748E-04    2.26      30.7  T
     SCC iter.                  ...        0 min,  0.007 sec
     gradient                   ...        0 min,  0.014 sec
 * total energy  :   -34.1698416 Eh     change       -0.1024665E-03 Eh
   gradient norm :     0.0038003 Eh/α   predicted    -0.6480999E-04 ( -36.75%)
   displ. norm   :     0.2174105 α      lambda       -0.1720073E-03
   maximum displ.:     0.1394678 α      in ANC's #2, #3, #1, ...

........................................................................
.............................. CYCLE    8 ..............................
........................................................................
   1    -34.6704616 -0.346705E+02  0.186E-01    2.26       0.0  T
   2    -34.6704685 -0.681851E-05  0.980E-02    2.26       1.0  T
   3    -34.6704668  0.163441E-05  0.220E-02    2.26       1.0  T
   4    -34.6704696 -0.280026E-05  0.121E-02    2.26       1.9  T
   5    -34.6704703 -0.653710E-06  0.362E-03    2.26       6.3  T
   6    -34.6704705 -0.204232E-06  0.955E-04    2.26      24.0  T
   7    -34.6704705 -0.814602E-08  0.554E-04    2.26      41.4  T
     SCC iter.                  ...        0 min,  0.008 sec
     gradient                   ...        0 min,  0.015 sec
 * total energy  :   -34.1699601 Eh     change       -0.1185055E-03 Eh
   gradient norm :     0.0035266 Eh/α   predicted    -0.9007156E-04 ( -23.99%)
   displ. norm   :     0.1629309 α      lambda       -0.8620074E-04
   maximum displ.:     0.1096765 α      in ANC's #2, #1, #3, ...

........................................................................
.............................. CYCLE    9 ..............................
........................................................................
   1    -34.6707887 -0.346708E+02  0.143E-01    2.26       0.0  T
   2    -34.6707924 -0.377931E-05  0.746E-02    2.26       1.0  T
   3    -34.6707923  0.105778E-06  0.146E-02    2.26       1.6  T
   4    -34.6707925 -0.163628E-06  0.977E-03    2.26       2.3  T
   5    -34.6707935 -0.954485E-06  0.146E-03    2.26      15.8  T
   6    -34.6707935 -0.301011E-07  0.394E-04    2.26      58.3  T
   7    -34.6707935 -0.364729E-09  0.246E-04    2.26      93.4  T
     SCC iter.                  ...        0 min,  0.008 sec
     gradient                   ...        0 min,  0.015 sec
 * total energy  :   -34.1700226 Eh     change       -0.6249796E-04 Eh
   gradient norm :     0.0032733 Eh/α   predicted    -0.4424607E-04 ( -29.20%)
   displ. norm   :     0.1620130 α      lambda       -0.6778989E-04
   maximum displ.:     0.1162058 α      in ANC's #2, #1, #5, ...

........................................................................
.............................. CYCLE   10 ..............................
........................................................................
   1    -34.6709613 -0.346710E+02  0.148E-01    2.26       0.0  T
   2    -34.6709655 -0.422988E-05  0.765E-02    2.26       1.0  T
   3    -34.6709660 -0.481385E-06  0.134E-02    2.26       1.7  T
   4    -34.6709653  0.690118E-06  0.916E-03    2.26       2.5  T
   5    -34.6709666 -0.128587E-05  0.117E-03    2.26      19.6  T
   6    -34.6709666 -0.164252E-07  0.449E-04    2.26      51.1  T
   7    -34.6709666 -0.129189E-08  0.232E-04    2.26      99.1  T
     SCC iter.                  ...        0 min,  0.008 sec
     gradient                   ...        0 min,  0.015 sec
 * total energy  :   -34.1700714 Eh     change       -0.4880066E-04 Eh
   gradient norm :     0.0025766 Eh/α   predicted    -0.3478754E-04 ( -28.72%)
   displ. norm   :     0.1386245 α      lambda       -0.4874288E-04
   maximum displ.:     0.1003073 α      in ANC's #2, #1, #5, ...

........................................................................
.............................. CYCLE   11 ..............................
........................................................................
   1    -34.6713641 -0.346714E+02  0.125E-01    2.26       0.0  T
   2    -34.6713674 -0.328739E-05  0.645E-02    2.26       1.0  T
   3    -34.6713669  0.489175E-06  0.139E-02    2.26       1.6  T
   4    -34.6713678 -0.878552E-06  0.836E-03    2.26       2.7  T
   5    -34.6713682 -0.454720E-06  0.246E-03    2.26       9.3  T
   6    -34.6713683 -0.969834E-07  0.483E-04    2.26      47.5  T
   7    -34.6713683 -0.221454E-08  0.257E-04    2.26      89.2  T
     SCC iter.                  ...        0 min,  0.008 sec
     gradient                   ...        0 min,  0.015 sec
 * total energy  :   -34.1701024 Eh     change       -0.3100328E-04 Eh
   gradient norm :     0.0014712 Eh/α   predicted    -0.2484410E-04 ( -19.87%)
   displ. norm   :     0.1409298 α      lambda       -0.1894653E-04
   maximum displ.:     0.1047335 α      in ANC's #2, #1, #5, ...

........................................................................
.............................. CYCLE   12 ..............................
........................................................................
   1    -34.6707751 -0.346708E+02  0.129E-01    2.25       0.0  T
   2    -34.6707785 -0.344587E-05  0.661E-02    2.25       1.0  T
   3    -34.6707785  0.630662E-07  0.134E-02    2.26       1.7  T
   4    -34.6707790 -0.499950E-06  0.821E-03    2.25       2.8  T
   5    -34.6707794 -0.438797E-06  0.202E-03    2.26      11.4  T
   6    -34.6707795 -0.711598E-07  0.457E-04    2.26      50.2  T
   7    -34.6707795 -0.172034E-08  0.270E-04    2.26      85.1  T
     SCC iter.                  ...        0 min,  0.008 sec
     gradient                   ...        0 min,  0.015 sec
 * total energy  :   -34.1701123 Eh     change       -0.9891472E-05 Eh
   gradient norm :     0.0017747 Eh/α   predicted    -0.9558922E-05 (  -3.36%)
   displ. norm   :     0.0429624 α      lambda       -0.1014366E-04
   maximum displ.:     0.0277581 α      in ANC's #3, #2, #4, ...

........................................................................
.............................. CYCLE   13 ..............................
........................................................................
   1    -34.6720261 -0.346720E+02  0.301E-02    2.26       0.0  T
   2    -34.6720263 -0.151262E-06  0.164E-02    2.26       1.4  T
   3    -34.6720260  0.275682E-06  0.558E-03    2.26       4.1  T
   4    -34.6720263 -0.329131E-06  0.211E-03    2.26      10.9  T
   5    -34.6720263 -0.109262E-07  0.723E-04    2.26      31.7  T
   6    -34.6720263 -0.658233E-08  0.277E-04    2.26      82.9  T
     SCC iter.                  ...        0 min,  0.007 sec
     gradient                   ...        0 min,  0.015 sec
 * total energy  :   -34.1701145 Eh     change       -0.2191489E-05 Eh
   gradient norm :     0.0018624 Eh/α   predicted    -0.5077168E-05 ( 131.68%)
   displ. norm   :     0.0144013 α      lambda       -0.6934520E-05
   maximum displ.:     0.0077277 α      in ANC's #6, #1, #4, ...

........................................................................
.............................. CYCLE   14 ..............................
........................................................................
   1    -34.6713258 -0.346713E+02  0.154E-02    2.26       0.0  T
   2    -34.6713259 -0.107237E-06  0.761E-03    2.26       3.0  T
   3    -34.6713258  0.129663E-06  0.340E-03    2.26       6.7  T
   4    -34.6713259 -0.178178E-06  0.115E-03    2.26      19.9  T
   5    -34.6713259 -0.163538E-08  0.606E-04    2.26      37.8  T
   6    -34.6713259 -0.351875E-08  0.193E-04    2.26     118.8  T
     SCC iter.                  ...        0 min,  0.007 sec
     gradient                   ...        0 min,  0.015 sec
 * total energy  :   -34.1701178 Eh     change       -0.3327788E-05 Eh
   gradient norm :     0.0009429 Eh/α   predicted    -0.3470102E-05 (   4.28%)
   displ. norm   :     0.0091795 α      lambda       -0.2414992E-05
   maximum displ.:     0.0059619 α      in ANC's #6, #11, #9, ...

   *** GEOMETRY OPTIMIZATION CONVERGED AFTER 14 ITERATIONS ***

------------------------------------------------------------------------
 total energy gain   :        -0.0194877 Eh      -12.2287 kcal/mol
 total RMSD          :         0.3925208 a0        0.2077 Å
 total power (kW/mol):        -3.6546448 (step) -105.1173 (real)
------------------------------------------------------------------------

 ANCopt (total)                0 d,  0 h,  0 min,  0.487 sec
 optimizer setup                ...        0 min,  0.000 sec (  0.029%)
 model hessian                  ...        0 min,  0.001 sec (  0.296%)
 ANC generation                 ...        0 min,  0.001 sec (  0.107%)
 coordinate transformation      ...        0 min,  0.000 sec (  0.041%)
 single point calculation       ...        0 min,  0.480 sec ( 98.629%)
 optimization log               ...        0 min,  0.001 sec (  0.246%)
 hessian update                 ...        0 min,  0.000 sec (  0.036%)
 rational function              ...        0 min,  0.002 sec (  0.431%)

================
 final structure:
================
$coord
    3.19997569841264   -2.76996952468082    0.26258926631433      C 
    6.15342089383298   -1.42488382524678    0.08030484384024      S 
    4.92870196453927    1.58385371638008   -0.19822996609951      C 
    2.36824356752649    1.52167473570141   -0.15084686035631      C 
    1.34655281004514   -0.98493795752983    0.11470813174013      C 
   -1.33442606195892   -0.88719955781906    0.14995996232332      C 
   -2.29776064512407    1.53597947687318   -0.07366097419656      C 
    0.04363616602742    3.86949560810492   -0.34572038066414      S 
   -4.94238109978620    1.64189868161506   -0.03608424034938      C 
   -6.00742092514299   -0.71077654092124    0.21875530351804      C 
   -3.71428785649754   -3.09116014178800    0.41213081687076      S 
   -8.65878773309108   -1.28342325385063    0.32875488391601      C 
   -9.62758967324029   -3.58912443700977    0.57887018980214      C 
    3.00952489888985   -4.77399954556183    0.46422640727554      H 
    6.16930711415112    3.17132150954824   -0.37578165418777      H 
   -6.02189084729758    3.35528174290959   -0.18696931301922      H 
   -9.88578382494882    0.35045595961801    0.19649685151696      H 
   -8.43399641378474   -5.23236864449266    0.71851097772087      H 
  -11.63358867246505   -3.90366802839474    0.64932482979131      H 
$end
           -------------------------------------------------
          |                Final Singlepoint                |
           -------------------------------------------------

          ...................................................
          :                      SETUP                      :
          :.................................................:
          :  # basis functions                  76          :
          :  # atomic orbitals                  73          :
          :  # shells                           35          :
          :  # electrons                        64          :
          :  max. iterations                   250          :
          :  Hamiltonian                  GFN2-xTB          :
          :  restarted?                      false          :
          :  GBSA solvation                  false          :
          :  PC potential                    false          :
          :  electronic temp.          300.0000000     K    :
          :  accuracy                    1.0000000          :
          :  -> integral cutoff          0.2500000E+02      :
          :  -> integral neglect         0.1000000E-07      :
          :  -> SCF convergence          0.1000000E-05 Eh   :
          :  -> wf. convergence          0.1000000E-03 e    :
          :  Broyden damping             0.4000000          :
          ...................................................

 iter      E             dE          RMSdq      gap      omega  full diag
   1    -34.6713259 -0.346713E+02  0.131E-04    2.26       0.0  T
   2    -34.6713259 -0.108002E-10  0.644E-05    2.26     356.4  T
   3    -34.6713259 -0.515072E-10  0.596E-05    2.26     385.2  T

   *** convergence criteria satisfied after 3 iterations ***

         #    Occupation            Energy/Eh            Energy/eV
      -------------------------------------------------------------
         1        2.0000           -0.7419469             -20.1894
       ...           ...                  ...                  ...
        26        2.0000           -0.4527893             -12.3210
        27        2.0000           -0.4428905             -12.0517
        28        2.0000           -0.4356402             -11.8544
        29        2.0000           -0.4176954             -11.3661
        30        2.0000           -0.4073906             -11.0857
        31        2.0000           -0.3804769             -10.3533
        32        2.0000           -0.3668239              -9.9818 (HOMO)
        33                         -0.2839142              -7.7257 (LUMO)
        34                         -0.2494292              -6.7873
        35                         -0.2298165              -6.2536
        36                         -0.2146858              -5.8419
        37                         -0.2114731              -5.7545
       ...                                ...                  ...
        73                          0.7463758              20.3099
      -------------------------------------------------------------
                  HL-Gap            0.0829097 Eh            2.2561 eV
             Fermi-level           -0.3253690 Eh           -8.8537 eV

 SCC (total)                   0 d,  0 h,  0 min,  0.031 sec
 SCC setup                      ...        0 min,  0.000 sec (  0.603%)
 Dispersion                     ...        0 min,  0.000 sec (  0.536%)
 integral evaluation            ...        0 min,  0.011 sec ( 35.905%)
 zeroth order Hamiltonian       ...        0 min,  0.000 sec (  0.568%)
 iterations                     ...        0 min,  0.004 sec ( 13.144%)
 molecular gradient             ...        0 min,  0.015 sec ( 47.958%)
 printout                       ...        0 min,  0.000 sec (  1.090%)

         :::::::::::::::::::::::::::::::::::::::::::::::::::::
         ::                     SUMMARY                     ::
         :::::::::::::::::::::::::::::::::::::::::::::::::::::
         :: total energy             -34.170117807282 Eh    ::
         :: gradient norm              0.000943206601 Eh/a0 ::
         :: HOMO-LUMO gap              2.256087558232 eV    ::
         ::.................................................::
         :: SCC energy               -34.671325942201 Eh    ::
         :: -> isotropic ES            0.001731452855 Eh    ::
         :: -> anisotropic ES          0.000965019979 Eh    ::
         :: -> anisotropic XC          0.015245823999 Eh    ::
         :: -> dispersion             -0.025119317263 Eh    ::
         :: repulsion energy           0.501319956758 Eh    ::
         :: add. restraining           0.000000000000 Eh    ::
         :::::::::::::::::::::::::::::::::::::::::::::::::::::

           -------------------------------------------------
          |                Property Printout                |
           -------------------------------------------------

    * Orbital Energies and Occupations

         #    Occupation            Energy/Eh            Energy/eV
      -------------------------------------------------------------
         1        2.0000           -0.7419469             -20.1894
       ...           ...                  ...                  ...
        20        2.0000           -0.4839355             -13.1686
        21        2.0000           -0.4815737             -13.1043
        22        2.0000           -0.4689988             -12.7621
        23        2.0000           -0.4648737             -12.6499
        24        2.0000           -0.4590921             -12.4925
        25        2.0000           -0.4544263             -12.3656
        26        2.0000           -0.4527893             -12.3210
        27        2.0000           -0.4428905             -12.0517
        28        2.0000           -0.4356402             -11.8544
        29        2.0000           -0.4176954             -11.3661
        30        2.0000           -0.4073906             -11.0857
        31        2.0000           -0.3804769             -10.3533
        32        2.0000           -0.3668239              -9.9818 (HOMO)
        33                         -0.2839142              -7.7257 (LUMO)
        34                         -0.2494292              -6.7873
        35                         -0.2298165              -6.2536
        36                         -0.2146858              -5.8419
        37                         -0.2114731              -5.7545
        38                         -0.1971927              -5.3659
        39                         -0.1660266              -4.5178
        40                         -0.1544905              -4.2039
        41                         -0.1443038              -3.9267
        42                         -0.1254042              -3.4124
        43                         -0.1156698              -3.1475
       ...                                ...                  ...
        73                          0.7463758              20.3099
      -------------------------------------------------------------
                  HL-Gap            0.0829097 Eh            2.2561 eV
             Fermi-level           -0.3253690 Eh           -8.8537 eV

     #   Z        covCN         q      C6AA      α(0)
     1   6 C      2.929    -0.033    28.827     8.805
     2  16 S      2.338     0.002   140.974    19.983
     3   6 C      2.934    -0.038    28.934     8.822
     4   6 C      3.218     0.027    26.712     8.405
     5   6 C      3.280    -0.010    26.802     8.329
     6   6 C      3.119     0.008    27.662     8.614
     7   6 C      3.191     0.026    26.939     8.465
     8  16 S      2.153    -0.094   144.995    20.266
     9   6 C      3.074    -0.057    29.346     8.882
    10   6 C      3.001     0.027    27.393     8.585
    11  16 S      2.285    -0.037   142.566    20.096
    12   6 C      2.916    -0.030    28.742     8.791
    13   6 C      2.841    -0.084    30.105     8.992
    14   1 H      0.927     0.053     2.279     2.361
    15   1 H      0.927     0.054     2.272     2.357
    16   1 H      0.926     0.046     2.364     2.404
    17   1 H      0.925     0.045     2.388     2.416
    18   1 H      0.926     0.051     2.312     2.378
    19   1 H      0.926     0.046     2.375     2.410

 Mol. C6AA /au·bohr⁶  :       9603.890970
 Mol. C8AA /au·bohr⁸  :     322307.022523
 Mol. α(0) /au        :        161.363510


Wiberg/Mayer (AO) data.
largest (>0.10) Wiberg bond orders for each atom
          total WBO             WBO to atom ...
     1  C   3.933        C    5 1.512    S    2 1.206    H   14 0.969    C    3 0.121
     2  S   2.635        C    1 1.206    C    3 1.181
     3  C   3.944        C    4 1.581    S    2 1.181    H   15 0.969    C    1 0.121
     4  C   3.953        C    3 1.581    C    5 1.151    S    8 1.064
     5  C   3.982        C    1 1.512    C    6 1.162    C    4 1.151
     6  C   3.947        C    7 1.408    C    5 1.162    S   11 1.135
     7  C   3.952        C    6 1.408    C    9 1.293    S    8 1.056
     8  S   2.424        C    4 1.064    C    7 1.056
     9  C   3.985        C   10 1.511    C    7 1.293    H   16 0.963
    10  C   3.940        C    9 1.511    C   12 1.139    S   11 1.119
    11  S   2.574        C    6 1.135    C   10 1.119
    12  C   3.988        C   13 1.861    C   10 1.139    H   17 0.958
    13  C   3.970        C   12 1.861    H   19 0.978    H   18 0.971
    14  H   0.997        C    1 0.969
    15  H   0.996        C    3 0.969
    16  H   0.997        C    9 0.963
    17  H   0.998        C   12 0.958
    18  H   0.997        C   13 0.971
    19  H   0.997        C   13 0.978

molecular dipole:
                 x           y           z       tot (Debye)
 q only:       -0.161      -0.267       0.030
   full:       -0.368      -0.092       0.017       0.964
molecular quadrupole (traceless):
                xx          xy          yy          xz          yz          zz
 q only:        5.907       0.614      -2.142      -0.252      -0.191      -3.765
  q+dip:        6.572       0.403      -1.769      -0.286      -0.314      -4.803
   full:        5.769       0.514      -2.831      -0.246      -0.021      -2.937

           -------------------------------------------------
          |                Geometry Summary                 |
           -------------------------------------------------

      molecular mass/u    :      222.3374000
   center of mass at/Å    :       -0.4758712      -0.1788964       0.0488675
  moments of inertia/u·Å² :        0.3503247E+03   0.1480943E+04   0.1831265E+04
rotational constants/cm⁻¹ :        0.4812002E-01   0.1138304E-01   0.9205456E-02

 * 20 selected distances

     #   Z        #   Z                                     value/Å
     1   6 C      2  16 S                                 1.7200558
     2  16 S      3   6 C                                 1.7253142
     3   6 C      4   6 C                                 1.3555677
     1   6 C      5   6 C                                 1.3639417
     4   6 C      5   6 C                                 1.4392725
     5   6 C      6   6 C                                 1.4197781
     6   6 C      7   6 C                                 1.3849709
     4   6 C      8  16 S                                 1.7514119
     7   6 C      8  16 S                                 1.7551983 (max)
     7   6 C      9   6 C                                 1.4007361
     9   6 C     10   6 C                                 1.3732465
     6   6 C     11  16 S                                 1.7220568
    10   6 C     11  16 S                                 1.7520546
    12   6 C     13   6 C                                 1.3300566
     1   6 C     14   1 H                                 1.0705957
     3   6 C     15   1 H                                 1.0702837 (min)
     9   6 C     16   1 H                                 1.0746063
    12   6 C     17   1 H                                 1.0835314
    13   6 C     18   1 H                                 1.0772905
    13   6 C     19   1 H                                 1.0751462

 * 3 distinct bonds (by element types)

   Z      Z             #   av. dist./Å        max./Å        min./Å
   1 H    6 C           6     1.0752423     1.0835314     1.0702837
   6 C    6 C           8     1.3834463     1.4392725     1.3300566
   6 C   16 S           6     1.7376820     1.7551983     1.7200558


optimized geometry written to: xtbopt.xyz


           -------------------------------------------------
          | TOTAL ENERGY              -34.170117807282 Eh   |
          | GRADIENT NORM               0.000943206601 Eh/α |
          | HOMO-LUMO GAP               2.256087558232 eV   |
           -------------------------------------------------

------------------------------------------------------------------------
 * finished run on 2021/05/19 at 11:00:41.866     
------------------------------------------------------------------------
 total:
 * wall-time:     0 d,  0 h,  0 min,  0.587 sec
 *  cpu-time:     0 d,  0 h,  0 min,  0.586 sec
 * ratio c/w:     0.998 speedup
 SCF:
 * wall-time:     0 d,  0 h,  0 min,  0.044 sec
 *  cpu-time:     0 d,  0 h,  0 min,  0.044 sec
 * ratio c/w:     1.000 speedup
 ANC optimizer:
 * wall-time:     0 d,  0 h,  0 min,  0.518 sec
 *  cpu-time:     0 d,  0 h,  0 min,  0.518 sec
 * ratio c/w:     1.000 speedup

