      -----------------------------------------------------------      
     |                   =====================                   |     
     |                           x T B                           |     
     |                   =====================                   |     
     |                         S. Grimme                         |     
     |          Mulliken Center for Theoretical Chemistry        |     
     |                    University of Bonn                     |     
     |                Version 6.2 RC2 (SAW190805)                |     
      -----------------------------------------------------------      

   This program is distributed in the hope that it will be useful,
   but WITHOUT ANY WARRANTY; without even the implied warranty of
   MERCHANTABILITY or FITNESS FOR A PARTICULAR PURPOSE.
   
   FOR NON-COMMERCIAL, ACADEMIA USE ONLY.
   
   Cite this work as:
   * S. Grimme, C. Bannwarth, P. Shushkov, J. Chem. Theory Comput., 2017,
     13, 1989-2009. DOI: 10.1021/acs.jctc.7b00118
   * C. Bannwarth, S. Ehlert and S. Grimme., J. Chem. Theory Comput., 2019,
     15, 1652-1671. DOI: 10.1021/acs.jctc.8b01176
   * P. Pracht, E. Caldeweyher, S. Ehlert, S. Grimme, ChemRxiv, 2019, preprint.
     DOI: 10.26434/chemrxiv.8326202.v1
   
   for DFT-D4:
   * E. Caldeweyher, C. Bannwarth and S. Grimme, J. Chem. Phys., 2017,
     147, 034112. DOI: 10.1063/1.4993215
   * E. Caldeweyher, S. Ehlert, A. Hansen, H. Neugebauer, S. Spicher,
     C. Bannwarth and S. Grimme, J. Chem. Phys., 2019, 150, 154122.
     DOI: 10.1063/1.5090222
   
   for sTDA-xTB:
   * S. Grimme and C. Bannwarth, J. Chem. Phys., 2016, 145, 054103.
     DOI: 10.1063/1.4959605
   
   in the mass-spec context:
   * V. Asgeirsson, C. Bauer and S. Grimme, Chem. Sci., 2017, 8, 4879.
     DOI: 10.1039/c7sc00601b
   
   for metadynamics refer to:
   * S. Grimme, J. Chem. Theory Comput., 2019, 155, 2847-2862
     DOI: 10.1021/acs.jctc.9b00143
   
   with help from (in alphabetical order)
   C. Bannwarth, F. Bohle, G. Brandenburg, E. Caldeweyher, M. Checinski,
   S. Dohm, S. Ehlert, S. Ehrlich, F. März, H. Neugebauer, J. Pisarek,
   P. Pracht, P. Shushkov, and S. Spicher.
   
 * started run on 2021/05/19 at 11:00:52.458     

           -------------------------------------------------
          |                Calculation Setup                |
           -------------------------------------------------

          program call               : /ihome/ghutchison/geoffh/xtb/xtb 871.xyz -opt
          hostname                   : smp-n83
          coordinate file            : 871.xyz
          omp threads                :                     1
          number of atoms            :                    11
          number of electrons        :                    31
          charge                     :                     0
          spin                       :                   0.5
          first test random number   :      0.82567562124805


########################################################################
# WARNING! Please study the warnings concerning your input carefully
#  - the use of '-opt' is discouraged, please use '--opt' next time
########################################################################

           ------------------------------------------------- 
          |                 G F N 2 - x T B                 |
          | Geometry, Frequencies, Noncovalent interactions |
          |            JCTC 2019 parametrisation            |
           ------------------------------------------------- 
             KAB for C  - Si     :                1.0500
             KAB for H  - Pd     :                0.9500
             k(s)              :                1.8500
             k(p)              :                2.2300
             k(d)              :                2.2300
             k(f)              :                2.0000
             kEN (H0ij)        :               -2.0000
             D4 a1             :                0.5200
             D4 a2             :                5.0000
             D4 s6             :                1.0000
             D4 s8             :                2.7000
             D4 s9             :                5.0000
             alphaj            :                2.0000

  Z AO/shell   Hii/eV     exponent
  1     Wed Apr 25 08:07:45 CEST 2018   EN: 2.200 GM2: 0.406  GM3: 0.0800  RAES: 1.40
     1s    -10.707211    1.230000
  6     Wed Apr 25 08:07:45 CEST 2018   EN: 2.550 GM2: 0.538  GM3: 0.1500  RAES: 3.00
     2s    -13.970922    2.096432
     2p    -10.063292    1.800000
 16     Tue Apr 24 11:44:34 CEST 2018   EN: 2.580 GM2: 0.340  GM3:-0.0502  RAES: 3.10
     3s    -20.029654    1.981333
     3p    -11.377694    2.025643
     3d     -0.420282    1.702555

           ------------------------------------------------- 
          |        Self-Consistent Charge Iterations        |
           ------------------------------------------------- 

          ...................................................
          :                      SETUP                      :
          :.................................................:
          :  # basis functions                  35          :
          :  # atomic orbitals                  34          :
          :  # shells                           18          :
          :  # electrons                        31          :
          :  max. iterations                   250          :
          :  Hamiltonian                  GFN2-xTB          :
          :  restarted?                      false          :
          :  GBSA solvation                  false          :
          :  PC potential                    false          :
          :  electronic temp.          300.0000000     K    :
          :  accuracy                    1.0000000          :
          :  -> integral cutoff          0.2500000E+02      :
          :  -> integral neglect         0.1000000E-07      :
          :  -> SCF convergence          0.1000000E-05 Eh   :
          :  -> wf. convergence          0.1000000E-03 e    :
          :  Broyden damping             0.4000000          :
          ...................................................

 iter      E             dE          RMSdq      gap      omega  full diag
   1    -16.5805966 -0.165806E+02  0.532E+00    2.54       0.0  T
   2    -16.5940197 -0.134230E-01  0.284E+00    2.72       1.0  T
   3    -16.5878970  0.612270E-02  0.163E+00    2.40       1.0  T
   4    -16.5941009 -0.620399E-02  0.737E-01    2.76       1.0  T
   5    -16.5969294 -0.282846E-02  0.325E-01    2.73       1.0  T
   6    -16.5977831 -0.853644E-03  0.877E-02    2.68       1.0  T
   7    -16.5978266 -0.435362E-04  0.268E-02    2.70       1.1  T
   8    -16.5978267 -0.609657E-07  0.113E-02    2.70       2.7  T
   9    -16.5978268 -0.182429E-06  0.527E-03    2.70       5.7  T
  10    -16.5978269 -0.600256E-07  0.197E-03    2.70      15.3  T
  11    -16.5978269  0.779306E-09  0.140E-03    2.70      21.5  T
  12    -16.5978269 -0.747469E-08  0.609E-04    2.70      49.5  T
  13    -16.5978269 -0.955776E-09  0.130E-04    2.70     232.2  T

   *** convergence criteria satisfied after 13 iterations ***

         #    Occupation            Energy/Eh            Energy/eV
      -------------------------------------------------------------
         1        2.0000           -0.7333841             -19.9564
       ...           ...                  ...                  ...
        10        2.0000           -0.4824263             -13.1275
        11        2.0000           -0.4621245             -12.5750
        12        2.0000           -0.4532306             -12.3330
        13        2.0000           -0.4276431             -11.6368
        14        2.0000           -0.4271750             -11.6240
        15        2.0000           -0.3668177              -9.9816
        16        1.0000           -0.3441067              -9.3636 (HOMO)
        17                         -0.2448888              -6.6638 (LUMO)
        18                         -0.2244219              -6.1068
        19                         -0.1413650              -3.8467
        20                         -0.1150617              -3.1310
        21                         -0.0037331              -0.1016
       ...                                ...                  ...
        34                          0.7831365              21.3102
      -------------------------------------------------------------
                  HL-Gap            0.0992179 Eh            2.6999 eV
             Fermi-level           -0.3249799 Eh           -8.8432 eV

 SCC (total)                   0 d,  0 h,  0 min,  0.026 sec
 SCC setup                      ...        0 min,  0.000 sec (  0.639%)
 Dispersion                     ...        0 min,  0.000 sec (  0.359%)
 integral evaluation            ...        0 min,  0.003 sec ( 10.247%)
 zeroth order Hamiltonian       ...        0 min,  0.000 sec (  0.238%)
 iterations                     ...        0 min,  0.006 sec ( 23.324%)
 molecular gradient             ...        0 min,  0.017 sec ( 63.830%)
 printout                       ...        0 min,  0.000 sec (  1.164%)

         :::::::::::::::::::::::::::::::::::::::::::::::::::::
         ::                     SUMMARY                     ::
         :::::::::::::::::::::::::::::::::::::::::::::::::::::
         :: total energy             -16.348279005400 Eh    ::
         :: gradient norm              0.088961469054 Eh/a0 ::
         :: HOMO-LUMO gap              2.699856567507 eV    ::
         ::.................................................::
         :: SCC energy               -16.597826900716 Eh    ::
         :: -> isotropic ES            0.001024899426 Eh    ::
         :: -> anisotropic ES          0.001998145148 Eh    ::
         :: -> anisotropic XC          0.011739470049 Eh    ::
         :: -> dispersion             -0.007649303247 Eh    ::
         :: repulsion energy           0.249542199657 Eh    ::
         :: add. restraining           0.000000000000 Eh    ::
         :::::::::::::::::::::::::::::::::::::::::::::::::::::

      ----------------------------------------------------------- 
     |                   =====================                   |
     |                        A N C O P T                        |
     |                   =====================                   |
     |               Approximate Normal Coordinate               |
     |                Rational Function Optimizer                |
      ----------------------------------------------------------- 

          ...................................................
          :                      SETUP                      :
          :.................................................:
          :   optimization level            normal          :
          :   max. optcycles                   200          :
          :   ANC micro-cycles                  20          :
          :   degrees of freedom                27          :
          :.................................................:
          :   RF solver                   davidson          :
          :   input Hessian                  false          :
          :   write xtbopt.log                true          :
          :   linear?                        false          :
          :   energy convergence         0.5000000E-05 Eh   :
          :   grad. convergence          0.1000000E-02 Eh/α :
          :   maximium RF displ.         2.0000000          :
          :   Hlow (freq-cutoff)         0.5000000E-02      :
          :   Hmax (freq-cutoff)         5.0000000          :
          :   S6 in model hess.         20.0000000          :
          ...................................................

generating ANC from model Hessian ...
Using Lindh-Hessian (1995)
 Shifting diagonal of input Hessian by   6.659677890465225E-004
 Lowest  eigenvalues of input Hessian
   -0.000000   -0.000000    0.000000    0.000000    0.000000    0.000000
    0.005000    0.010331    0.011905    0.015458    0.030869    0.046429
    0.048313    0.071297    0.096740    0.097480    0.117521    0.157565
 Highest eigenvalues
    1.173538    1.365564    1.644677    1.677167    1.744414    2.021922
 

........................................................................
.............................. CYCLE    1 ..............................
........................................................................
   1    -16.5978269 -0.165978E+02  0.278E-05    2.70       0.0  T
   2    -16.5978269 -0.703437E-12  0.135E-05    2.70    2229.2  T
   3    -16.5978269 -0.486722E-12  0.101E-05    2.70    2982.1  T
     SCC iter.                  ...        0 min,  0.002 sec
     gradient                   ...        0 min,  0.004 sec
 * total energy  :   -16.3482790 Eh     change       -0.5654037E-09 Eh
   gradient norm :     0.0889617 Eh/α   predicted     0.0000000E+00 (-100.00%)
   displ. norm   :     0.1098558 α      lambda       -0.6300188E-02
   maximum displ.:     0.0592786 α      in ANC's #7, #16, #24, ...

........................................................................
.............................. CYCLE    2 ..............................
........................................................................
   1    -16.6067744 -0.166068E+02  0.344E-01    2.68       0.0  T
   2    -16.6068326 -0.582250E-04  0.180E-01    2.68       1.0  T
   3    -16.6067665  0.661272E-04  0.165E-01    2.67       1.0  T
   4    -16.6069714 -0.204934E-03  0.704E-02    2.66       1.0  T
   5    -16.6069895 -0.180293E-04  0.274E-02    2.67       1.1  T
   6    -16.6069929 -0.345312E-05  0.115E-02    2.66       2.6  T
   7    -16.6069933 -0.421922E-06  0.344E-03    2.67       8.8  T
   8    -16.6069934 -0.329352E-07  0.153E-03    2.67      19.8  T
     SCC iter.                  ...        0 min,  0.003 sec
     gradient                   ...        0 min,  0.004 sec
 * total energy  :   -16.3528743 Eh     change       -0.4595276E-02 Eh
   gradient norm :     0.0455561 Eh/α   predicted    -0.3188111E-02 ( -30.62%)
   displ. norm   :     0.1075137 α      lambda       -0.3157448E-02
   maximum displ.:     0.0503259 α      in ANC's #3, #7, #10, ...

........................................................................
.............................. CYCLE    3 ..............................
........................................................................
   1    -16.6093452 -0.166093E+02  0.412E-01    2.64       0.0  T
   2    -16.6095262 -0.180994E-03  0.180E-01    2.64       1.0  T
   3    -16.6094607  0.654383E-04  0.149E-01    2.63       1.0  T
   4    -16.6095740 -0.113265E-03  0.976E-02    2.62       1.0  T
   5    -16.6096357 -0.617433E-04  0.281E-02    2.63       1.1  T
   6    -16.6096379 -0.214353E-05  0.150E-02    2.63       2.0  T
   7    -16.6096389 -0.961118E-06  0.396E-03    2.63       7.6  T
   8    -16.6096389 -0.526207E-07  0.167E-03    2.63      18.1  T
     SCC iter.                  ...        0 min,  0.016 sec
     gradient                   ...        0 min,  0.004 sec
 * total energy  :   -16.3546759 Eh     change       -0.1801581E-02 Eh
   gradient norm :     0.0163375 Eh/α   predicted    -0.1596971E-02 ( -11.36%)
   displ. norm   :     0.0523355 α      lambda       -0.3048336E-03
   maximum displ.:     0.0435369 α      in ANC's #3, #8, #10, ...

........................................................................
.............................. CYCLE    4 ..............................
........................................................................
   1    -16.6079218 -0.166079E+02  0.131E-01    2.63       0.0  T
   2    -16.6079447 -0.228630E-04  0.492E-02    2.63       1.0  T
   3    -16.6079490 -0.424506E-05  0.284E-02    2.63       1.1  T
   4    -16.6079499 -0.926952E-06  0.927E-03    2.63       3.3  T
   5    -16.6079497  0.212954E-06  0.644E-03    2.63       4.7  T
   6    -16.6079499 -0.251403E-06  0.403E-03    2.63       7.5  T
   7    -16.6079500 -0.121784E-06  0.103E-03    2.63      29.2  T
   8    -16.6079500 -0.328069E-08  0.536E-04    2.63      56.3  T
     SCC iter.                  ...        0 min,  0.003 sec
     gradient                   ...        0 min,  0.004 sec
 * total energy  :   -16.3548794 Eh     change       -0.2035151E-03 Eh
   gradient norm :     0.0088226 Eh/α   predicted    -0.1528348E-03 ( -24.90%)
   displ. norm   :     0.0327489 α      lambda       -0.8494145E-04
   maximum displ.:     0.0283184 α      in ANC's #3, #8, #13, ...

........................................................................
.............................. CYCLE    5 ..............................
........................................................................
   1    -16.6073028 -0.166073E+02  0.643E-02    2.65       0.0  T
   2    -16.6073082 -0.537310E-05  0.264E-02    2.64       1.1  T
   3    -16.6073090 -0.745825E-06  0.177E-02    2.64       1.7  T
   4    -16.6073082  0.767311E-06  0.140E-02    2.64       2.2  T
   5    -16.6073100 -0.177628E-05  0.426E-03    2.64       7.1  T
   6    -16.6073100 -0.325687E-07  0.220E-03    2.64      13.7  T
   7    -16.6073100 -0.270562E-07  0.700E-04    2.64      43.1  T
     SCC iter.                  ...        0 min,  0.003 sec
     gradient                   ...        0 min,  0.004 sec
 * total energy  :   -16.3549272 Eh     change       -0.4786202E-04 Eh
   gradient norm :     0.0028150 Eh/α   predicted    -0.4251477E-04 ( -11.17%)
   displ. norm   :     0.0124802 α      lambda       -0.9391978E-05
   maximum displ.:     0.0072593 α      in ANC's #3, #2, #6, ...

........................................................................
.............................. CYCLE    6 ..............................
........................................................................
   1    -16.6075017 -0.166075E+02  0.155E-02    2.65       0.0  T
   2    -16.6075018 -0.902479E-07  0.914E-03    2.65       3.3  T
   3    -16.6075016  0.145030E-06  0.647E-03    2.65       4.7  T
   4    -16.6075018 -0.168430E-06  0.308E-03    2.65       9.8  T
   5    -16.6075019 -0.849002E-07  0.111E-03    2.65      27.1  T
   6    -16.6075019 -0.537069E-08  0.430E-04    2.65      70.1  T
   7    -16.6075019 -0.781633E-09  0.172E-04    2.65     175.6  T
     SCC iter.                  ...        0 min,  0.003 sec
     gradient                   ...        0 min,  0.004 sec
 * total energy  :   -16.3549309 Eh     change       -0.3643981E-05 Eh
   gradient norm :     0.0010904 Eh/α   predicted    -0.4696955E-05 (  28.90%)
   displ. norm   :     0.0124277 α      lambda       -0.4430534E-05
   maximum displ.:     0.0066874 α      in ANC's #2, #6, #3, ...

........................................................................
.............................. CYCLE    7 ..............................
........................................................................
   1    -16.6078177 -0.166078E+02  0.180E-02    2.65       0.0  T
   2    -16.6078178 -0.103555E-06  0.938E-03    2.65       3.2  T
   3    -16.6078177  0.634605E-07  0.721E-03    2.65       4.2  T
   4    -16.6078178 -0.105239E-06  0.305E-03    2.65       9.9  T
   5    -16.6078179 -0.757822E-07  0.884E-04    2.65      34.1  T
   6    -16.6078179 -0.465146E-08  0.449E-04    2.65      67.1  T
     SCC iter.                  ...        0 min,  0.002 sec
     gradient                   ...        0 min,  0.004 sec
 * total energy  :   -16.3549316 Eh     change       -0.7438281E-06 Eh
   gradient norm :     0.0011177 Eh/α   predicted    -0.2216294E-05 ( 197.96%)
   displ. norm   :     0.0057577 α      lambda       -0.1883182E-05
   maximum displ.:     0.0031593 α      in ANC's #2, #6, #3, ...

........................................................................
.............................. CYCLE    8 ..............................
........................................................................
   1    -16.6077381 -0.166077E+02  0.771E-03    2.64       0.0  T
   2    -16.6077381  0.777692E-08  0.469E-03    2.65       6.4  T
   3    -16.6077381  0.830840E-07  0.444E-03    2.65       6.8  T
   4    -16.6077382 -0.110804E-06  0.191E-03    2.64      15.8  T
   5    -16.6077382 -0.292625E-07  0.409E-04    2.65      73.8  T
   6    -16.6077382 -0.805834E-09  0.171E-04    2.65     176.5  T
     SCC iter.                  ...        0 min,  0.002 sec
     gradient                   ...        0 min,  0.004 sec
 * total energy  :   -16.3549330 Eh     change       -0.1391977E-05 Eh
   gradient norm :     0.0001713 Eh/α   predicted    -0.9416433E-06 ( -32.35%)
   displ. norm   :     0.0014536 α      lambda       -0.5700488E-07
   maximum displ.:     0.0006586 α      in ANC's #3, #1, #4, ...

   *** GEOMETRY OPTIMIZATION CONVERGED AFTER 8 ITERATIONS ***

------------------------------------------------------------------------
 total energy gain   :        -0.0066540 Eh       -4.1755 kcal/mol
 total RMSD          :         0.0771547 a0        0.0408 Å
 total power (kW/mol):        -2.1837642 (step) -171.5142 (real)
------------------------------------------------------------------------

 ANCopt (total)                0 d,  0 h,  0 min,  0.102 sec
 optimizer setup                ...        0 min,  0.000 sec (  0.155%)
 model hessian                  ...        0 min,  0.001 sec (  0.750%)
 ANC generation                 ...        0 min,  0.000 sec (  0.299%)
 coordinate transformation      ...        0 min,  0.000 sec (  0.084%)
 single point calculation       ...        0 min,  0.099 sec ( 97.042%)
 optimization log               ...        0 min,  0.000 sec (  0.464%)
 hessian update                 ...        0 min,  0.000 sec (  0.074%)
 rational function              ...        0 min,  0.001 sec (  0.612%)

================
 final structure:
================
$coord
   -0.94452468494265   -2.03721451186106    0.28350729387928      C 
   -1.90243512722076    0.37306577159886    0.05048877499947      C 
    0.44325258186853    1.68030405626430    0.21626617393954      C 
    2.30049958896691   -0.99959047032094    0.55589801558615      S 
   -4.45314268733700    1.25205527714358   -0.25900540672632      C 
   -5.10430562068827    3.67188361426720   -0.46236044343271      C 
   -1.66357362258118   -3.92333153318785    0.31608939239502      H 
    1.03597467923760    3.61145420281154    0.16845570177354      H 
   -5.87326869641374   -0.21888504734311   -0.32057002801284      H 
   -3.71708282991787    5.15936210980363   -0.40572194075475      H 
   -7.04191922865340    4.24206683697043   -0.69201292191721      H 
$end
           -------------------------------------------------
          |                Final Singlepoint                |
           -------------------------------------------------

          ...................................................
          :                      SETUP                      :
          :.................................................:
          :  # basis functions                  35          :
          :  # atomic orbitals                  34          :
          :  # shells                           18          :
          :  # electrons                        31          :
          :  max. iterations                   250          :
          :  Hamiltonian                  GFN2-xTB          :
          :  restarted?                      false          :
          :  GBSA solvation                  false          :
          :  PC potential                    false          :
          :  electronic temp.          300.0000000     K    :
          :  accuracy                    1.0000000          :
          :  -> integral cutoff          0.2500000E+02      :
          :  -> integral neglect         0.1000000E-07      :
          :  -> SCF convergence          0.1000000E-05 Eh   :
          :  -> wf. convergence          0.1000000E-03 e    :
          :  Broyden damping             0.4000000          :
          ...................................................

 iter      E             dE          RMSdq      gap      omega  full diag
   1    -16.6077382 -0.166077E+02  0.841E-05    2.65       0.0  T
   2    -16.6077382  0.839506E-11  0.574E-05    2.65     525.2  T
   3    -16.6077382  0.513722E-11  0.500E-05    2.65     602.6  T

   *** convergence criteria satisfied after 3 iterations ***

         #    Occupation            Energy/Eh            Energy/eV
      -------------------------------------------------------------
         1        2.0000           -0.7272330             -19.7890
       ...           ...                  ...                  ...
        10        2.0000           -0.4822203             -13.1219
        11        2.0000           -0.4618862             -12.5686
        12        2.0000           -0.4532484             -12.3335
        13        2.0000           -0.4313876             -11.7387
        14        2.0000           -0.4279949             -11.6463
        15        2.0000           -0.3671429              -9.9905
        16        1.0000           -0.3464229              -9.4266 (HOMO)
        17                         -0.2492191              -6.7816 (LUMO)
        18                         -0.2335855              -6.3562
        19                         -0.1376067              -3.7445
        20                         -0.1237586              -3.3676
        21                         -0.0037760              -0.1027
       ...                                ...                  ...
        34                          0.7469860              20.3265
      -------------------------------------------------------------
                  HL-Gap            0.0972037 Eh            2.6450 eV
             Fermi-level           -0.3273019 Eh           -8.9063 eV

 SCC (total)                   0 d,  0 h,  0 min,  0.008 sec
 SCC setup                      ...        0 min,  0.000 sec (  1.244%)
 Dispersion                     ...        0 min,  0.000 sec (  0.519%)
 integral evaluation            ...        0 min,  0.002 sec ( 30.358%)
 zeroth order Hamiltonian       ...        0 min,  0.000 sec (  0.601%)
 iterations                     ...        0 min,  0.002 sec ( 19.306%)
 molecular gradient             ...        0 min,  0.004 sec ( 44.800%)
 printout                       ...        0 min,  0.000 sec (  2.520%)

         :::::::::::::::::::::::::::::::::::::::::::::::::::::
         ::                     SUMMARY                     ::
         :::::::::::::::::::::::::::::::::::::::::::::::::::::
         :: total energy             -16.354933014469 Eh    ::
         :: gradient norm              0.000171377482 Eh/a0 ::
         :: HOMO-LUMO gap              2.645048469063 eV    ::
         ::.................................................::
         :: SCC energy               -16.607738191904 Eh    ::
         :: -> isotropic ES            0.001372939488 Eh    ::
         :: -> anisotropic ES          0.001323211941 Eh    ::
         :: -> anisotropic XC          0.012067412546 Eh    ::
         :: -> dispersion             -0.007694459145 Eh    ::
         :: repulsion energy           0.252799728660 Eh    ::
         :: add. restraining           0.000000000000 Eh    ::
         :::::::::::::::::::::::::::::::::::::::::::::::::::::

           -------------------------------------------------
          |                Property Printout                |
           -------------------------------------------------

    * Orbital Energies and Occupations

         #    Occupation            Energy/Eh            Energy/eV
      -------------------------------------------------------------
         1        2.0000           -0.7272330             -19.7890
       ...           ...                  ...                  ...
         4        2.0000           -0.5982771             -16.2799
         5        2.0000           -0.5721840             -15.5699
         6        2.0000           -0.5446396             -14.8204
         7        2.0000           -0.5285246             -14.3819
         8        2.0000           -0.5080627             -13.8251
         9        2.0000           -0.4906965             -13.3525
        10        2.0000           -0.4822203             -13.1219
        11        2.0000           -0.4618862             -12.5686
        12        2.0000           -0.4532484             -12.3335
        13        2.0000           -0.4313876             -11.7387
        14        2.0000           -0.4279949             -11.6463
        15        2.0000           -0.3671429              -9.9905
        16        1.0000           -0.3464229              -9.4266 (HOMO)
        17                         -0.2492191              -6.7816 (LUMO)
        18                         -0.2335855              -6.3562
        19                         -0.1376067              -3.7445
        20                         -0.1237586              -3.3676
        21                         -0.0037760              -0.1027
        22                          0.0126723               0.3448
        23                          0.0417145               1.1351
        24                          0.0924265               2.5151
        25                          0.1329694               3.6183
        26                          0.1452365               3.9521
        27                          0.1939600               5.2779
       ...                                ...                  ...
        34                          0.7469860              20.3265
      -------------------------------------------------------------
                  HL-Gap            0.0972037 Eh            2.6450 eV
             Fermi-level           -0.3273019 Eh           -8.9063 eV

     #   Z        covCN         q      C6AA      α(0)
     1   6 C      3.170    -0.019    28.106     8.661
     2   6 C      3.445     0.004    23.082     7.281
     3   6 C      3.173    -0.002    27.674     8.593
     4  16 S      2.441    -0.085   144.584    20.238
     5   6 C      2.888    -0.030    28.754     8.791
     6   6 C      2.841    -0.087    30.165     9.001
     7   1 H      0.927     0.048     2.338     2.391
     8   1 H      0.927     0.050     2.324     2.384
     9   1 H      0.925     0.039     2.467     2.456
    10   1 H      0.926     0.041     2.433     2.439
    11   1 H      0.926     0.040     2.443     2.444

 Mol. C6AA /au·bohr⁶  :       2111.931466
 Mol. C8AA /au·bohr⁸  :      63453.495542
 Mol. α(0) /au        :         74.678471

(R)spin-density population

 Mulliken population n(s)   n(p)   n(d)
     1 C   0.3730   0.000  0.373  0.000
     2 C   0.0115  -0.000  0.011  0.000
     3 C   0.5151   0.000  0.515  0.000
     4 S   0.0916   0.000  0.065  0.027
     5 C   0.0005   0.000  0.001  0.000
     6 C   0.0083   0.000  0.008  0.000
     7 H   0.0000   0.000  0.000  0.000
     8 H   0.0000   0.000  0.000  0.000
     9 H   0.0000   0.000  0.000  0.000
    10 H   0.0000   0.000  0.000  0.000
    11 H   0.0000   0.000  0.000  0.000

Wiberg/Mayer (AO) data.
largest (>0.10) Wiberg bond orders for each atom
          total WBO             WBO to atom ...
     1  C   3.569        C    2 1.491    S    4 0.996    H    7 0.970
     2  C   3.969        C    1 1.491    C    3 1.229    C    5 1.120
     3  C   3.441        C    2 1.229    S    4 1.189    H    8 0.971
     4  S   2.383        C    3 1.189    C    1 0.996
     5  C   3.992        C    6 1.866    C    2 1.120    H    9 0.963
     6  C   3.984        C    5 1.866    H   11 0.979    H   10 0.977
     7  H   0.998        C    1 0.970
     8  H   0.998        C    3 0.971
     9  H   0.999        C    5 0.963
    10  H   0.998        C    6 0.977
    11  H   0.998        C    6 0.979

molecular dipole:
                 x           y           z       tot (Debye)
 q only:       -0.302       0.131      -0.038
   full:       -0.510       0.208      -0.064       1.410
molecular quadrupole (traceless):
                xx          xy          yy          xz          yz          zz
 q only:       -0.128       0.755       1.448      -0.042      -0.026      -1.321
  q+dip:       -1.076       2.317       4.691      -0.077      -0.148      -3.615
   full:       -1.271       2.185       3.424      -0.241      -0.006      -2.152

           -------------------------------------------------
          |                Geometry Summary                 |
           -------------------------------------------------

      molecular mass/u    :       97.1545000
   center of mass at/Å    :       -0.4755438       0.1973326       0.0807527
  moments of inertia/u·Å² :        0.4699071E+02   0.2815610E+03   0.3285517E+03
rotational constants/cm⁻¹ :        0.3587439E+00   0.5987203E-01   0.5130891E-01

 * 10 selected distances

     #   Z        #   Z                                     value/Å
     1   6 C      2   6 C                                 1.3780309
     2   6 C      3   6 C                                 1.4237332
     3   6 C      4  16 S                                 1.7347453 (max)
     2   6 C      5   6 C                                 1.4370372
     5   6 C      6   6 C                                 1.3304295
     1   6 C      7   1 H                                 1.0683000 (min)
     3   6 C      8   1 H                                 1.0692715
     5   6 C      9   1 H                                 1.0824506
     6   6 C     10   1 H                                 1.0767408
     6   6 C     11   1 H                                 1.0757011

 * 3 distinct bonds (by element types)

   Z      Z             #   av. dist./Å        max./Å        min./Å
   1 H    6 C           5     1.0744928     1.0824506     1.0683000
   6 C    6 C           4     1.3923077     1.4370372     1.3304295
   6 C   16 S           1     1.7347453     1.7347453     1.7347453


optimized geometry written to: xtbopt.xyz


           -------------------------------------------------
          | TOTAL ENERGY              -16.354933014469 Eh   |
          | GRADIENT NORM               0.000171377482 Eh/α |
          | HOMO-LUMO GAP               2.645048469063 eV   |
           -------------------------------------------------

------------------------------------------------------------------------
 * finished run on 2021/05/19 at 11:00:52.610     
------------------------------------------------------------------------
 total:
 * wall-time:     0 d,  0 h,  0 min,  0.152 sec
 *  cpu-time:     0 d,  0 h,  0 min,  0.112 sec
 * ratio c/w:     0.740 speedup
 SCF:
 * wall-time:     0 d,  0 h,  0 min,  0.027 sec
 *  cpu-time:     0 d,  0 h,  0 min,  0.014 sec
 * ratio c/w:     0.512 speedup
 ANC optimizer:
 * wall-time:     0 d,  0 h,  0 min,  0.110 sec
 *  cpu-time:     0 d,  0 h,  0 min,  0.084 sec
 * ratio c/w:     0.765 speedup

