
                                 *****************
                                 * O   R   C   A *
                                 *****************

           --- An Ab Initio, DFT and Semiempirical electronic structure package ---

                  #######################################################
                  #                        -***-                        #
                  #          Department of theory and spectroscopy      #
                  #               Directorship: Frank Neese             #
                  #        Max Planck Institute fuer Kohlenforschung    #
                  #                Kaiser Wilhelm Platz 1               #
                  #                 D-45470 Muelheim/Ruhr               #
                  #                      Germany                        #
                  #                                                     #
                  #                  All rights reserved                #
                  #                        -***-                        #
                  #######################################################


                         Program Version 4.2.0 -  RELEASE  -


 With contributions from (in alphabetic order):
   Daniel Aravena         : Magnetic Suceptibility
   Michael Atanasov       : Ab Initio Ligand Field Theory (pilot matlab implementation)
   Alexander A. Auer      : GIAO ZORA, VPT2
   Ute Becker             : Parallelization
   Giovanni Bistoni       : ED, misc. LED, open-shell LED, HFLED
   Martin Brehm           : Molecular dynamics
   Dmytro Bykov           : SCF Hessian
   Vijay G. Chilkuri      : MRCI spin determinant printing, contributions to CSF-ICE
   Dipayan Datta          : RHF DLPNO-CCSD density
   Achintya Kumar Dutta   : EOM-CC, STEOM-CC
   Dmitry Ganyushin       : Spin-Orbit,Spin-Spin,Magnetic field MRCI
   Miquel Garcia          : C-PCM Hessian, Gaussian charge scheme
   Yang Guo               : DLPNO-NEVPT2, CIM, IAO-localization
   Andreas Hansen         : Spin unrestricted coupled pair/coupled cluster methods
   Benjamin Helmich-Paris : CASSCF linear response (MC-RPA)
   Lee Huntington         : MR-EOM, pCC
   Robert Izsak           : Overlap fitted RIJCOSX, COSX-SCS-MP3, EOM
   Christian Kollmar      : KDIIS, OOCD, Brueckner-CCSD(T), CCSD density
   Simone Kossmann        : Meta GGA functionals, TD-DFT gradient, OOMP2, MP2 Hessian
   Martin Krupicka        : AUTO-CI
   Lucas Lang             : DCDCAS
   Dagmar Lenk            : GEPOL surface, SMD
   Dimitrios Liakos       : Extrapolation schemes; Compound Job, initial MDCI parallelization
   Dimitrios Manganas     : Further ROCIS development; embedding schemes
   Dimitrios Pantazis     : SARC Basis sets
   Taras Petrenko         : DFT Hessian,TD-DFT gradient, ASA, ECA, R-Raman, ABS, FL, XAS/XES, NRVS
   Peter Pinski           : DLPNO-MP2, DLPNO-MP2 Gradient
   Christoph Reimann      : Effective Core Potentials
   Marius Retegan         : Local ZFS, SOC
   Christoph Riplinger    : Optimizer, TS searches, QM/MM, DLPNO-CCSD(T), (RO)-DLPNO pert. Triples
   Tobias Risthaus        : Range-separated hybrids, TD-DFT gradient, RPA, STAB
   Michael Roemelt        : Original ROCIS implementation
   Masaaki Saitow         : Open-shell DLPNO-CCSD energy and density
   Barbara Sandhoefer     : DKH picture change effects
   Avijit Sen             : IP-ROCIS
   Kantharuban Sivalingam : CASSCF convergence, NEVPT2, FIC-MRCI
   Bernardo de Souza      : ESD, SOC TD-DFT
   Georgi Stoychev        : AutoAux, RI-MP2 NMR
   Willem Van den Heuvel  : Paramagnetic NMR
   Boris Wezisla          : Elementary symmetry handling
   Frank Wennmohs         : Technical directorship


 We gratefully acknowledge several colleagues who have allowed us to
 interface, adapt or use parts of their codes:
   Stefan Grimme, W. Hujo, H. Kruse,             : VdW corrections, initial TS optimization,
                  C. Bannwarth                     DFT functionals, gCP, sTDA/sTD-DF
   Ed Valeev, F. Pavosevic, A. Kumar             : LibInt (2-el integral package), F12 methods
   Garnet Chan, S. Sharma, J. Yang, R. Olivares  : DMRG
   Ulf Ekstrom                                   : XCFun DFT Library
   Mihaly Kallay                                 : mrcc  (arbitrary order and MRCC methods)
   Andreas Klamt, Michael Diedenhofen            : otool_cosmo (COSMO solvation model)
   Jiri Pittner, Ondrej Demel                    : Mk-CCSD
   Frank Weinhold                                : gennbo (NPA and NBO analysis)
   Christopher J. Cramer and Donald G. Truhlar   : smd solvation model
   Lars Goerigk                                  : TD-DFT with DH, B97 family of functionals
   V. Asgeirsson, H. Jonsson                     : NEB implementation
   FAccTs GmbH                                   : IRC, NEB, NEB-TS, Multilevel, MM, QM/MM, CI optimization
   S Lehtola, MJT Oliveira, MAL Marques          : LibXC Library


 Your calculation uses the libint2 library for the computation of 2-el integrals
 For citations please refer to: http://libint.valeyev.net

 Your ORCA version has been built with support for libXC version: 4.2.3
 For citations please refer to: https://tddft.org/programs/libxc/

 This ORCA versions uses:
   CBLAS   interface :  Fast vector & matrix operations
   LAPACKE interface :  Fast linear algebra routines
   SCALAPACK package :  Parallel linear algebra routines


XCFun DFT library Copyright 2009-2010 Ulf Ekstrom and contributors.
See http://admol.org/xcfun for more information. This is free soft-
ware; see the source code for copying conditions. There is ABSOLUTELY
NO WARRANTY; not even for MERCHANTABILITY or FITNESS FOR A PARTICULAR
PURPOSE. For details see the documentation. Scientific users of this 
library should cite U. Ekstrom, L. Visscher, R. Bast, A. J. Thorvald-
sen and K. Ruud; J.Chem.Theor.Comp. 2010, DOI: 10.1021/ct100117s
XCFun Version 0.99 
----- Orbital basis set information -----
Your calculation utilizes the basis: def2-SVP
   F. Weigend and R. Ahlrichs, Phys. Chem. Chem. Phys. 7, 3297 (2005).

----- AuxJ basis set information -----
Your calculation utilizes the auxiliary basis: def2/J
   F. Weigend, Phys. Chem. Chem. Phys. 8, 1057 (2006).

================================================================================
                                        WARNINGS
                       Please study these warnings very carefully!
================================================================================

INFO   : Checking CIS options ...

WARNING: CIS/ROCIS methods need fully converged wavefunctions
  ===> : Setting SCFConvForced true
         You can overwrite this default with %scf ConvForced false 


INFO   : the flag for use of LIBINT has been found!

================================================================================
                                       INPUT FILE
================================================================================
NAME = xtbopt.inp
|  1> # ORCA input file
|  2> # SCF done       -179.683426128063          0.000354657910
|  3> ! CAM-B3LYP def2-SVP def2/J RIJCOSX Grid4 TightSCF
|  4> %maxcore 5000
|  5> %tddft
|  6>     Mode sTDDFT
|  7>     Ethresh 5.0
|  8>     maxcore 5000
|  9> end
| 10> 
| 11> %pal
| 12>   nprocs 6
| 13>   end
| 14> * xyz 0 1
| 15>    C        7.56365         8.02991         4.39421
| 16>    C        6.91493         6.89809         4.15980
| 17>    C        6.85605         5.72776         5.03985
| 18>    C        6.97436         4.49109         4.43396
| 19>    C        6.96498         3.30948         5.18317
| 20>    C        7.08010         1.97175         4.73260
| 21>    C        7.40781         1.41842         3.48782
| 22>    C        8.02766         2.05583         2.44519
| 23>    C        8.34255         1.39264         1.24653
| 24>    C        8.01545         0.09755         0.83353
| 25>    C        7.30045        -1.09926         1.19785
| 26>    O        6.67618        -1.41518         2.19488
| 27>    N        7.46397        -1.95911         0.09115
| 28>    C        6.88796        -3.28040         0.08075
| 29>    C        5.44356        -3.25777        -0.41332
| 30>    C        8.24671        -1.38616        -0.87744
| 31>    C        8.64446        -1.95388        -2.12495
| 32>    S        7.58978        -2.89473        -3.14936
| 33>    C        8.73331        -2.88402        -4.41997
| 34>    C        9.87053        -2.19868        -4.09492
| 35>    C        9.83571        -1.68303        -2.77025
| 36>    C       11.03564        -1.09533        -2.15757
| 37>    O       11.24054        -1.06995        -0.96036
| 38>    C       12.03535        -0.62684        -3.14343
| 39>    C       13.03083         0.23342        -2.70252
| 40>    C       14.00973         0.71068        -3.56372
| 41>    C       15.02887         1.69413        -3.07048
| 42>    C       14.43073         3.10277        -3.05021
| 43>    C       13.99185         0.29020        -4.88987
| 44>    C       13.01895        -0.58127        -5.33980
| 45>    C       12.02257        -1.04214        -4.48278
| 46>    C       10.99553        -1.96238        -5.01321
| 47>    O       11.05148        -2.45241        -6.12526
| 48>    C        8.58647        -0.11514        -0.44607
| 49>    C        9.27055         1.09114        -0.85097
| 50>    O        9.87793         1.38657        -1.86202
| 51>    N        9.07154         1.97036         0.22234
| 52>    C        9.70026         3.26719         0.23881
| 53>    C       10.98416         3.26324         1.06535
| 54>    S        6.80970         0.86596         6.04955
| 55>    C        6.64990         2.13589         7.21858
| 56>    C        6.48823         1.89346         8.58926
| 57>    C        6.45094         0.64381         9.13883
| 58>    C        6.32914         0.31158        10.50919
| 59>    C        6.15864         1.23583        11.57594
| 60>    N        6.03335         2.55136        11.31725
| 61>    C        5.85475         3.38285        12.30963
| 62>    C        5.78327         2.94005        13.63965
| 63>    N        5.90950         1.67281        13.92222
| 64>    C        6.10314         0.78613        12.93393
| 65>    C        6.24490        -0.57957        13.29609
| 66>    C        6.26269        -0.95507        14.66993
| 67>    S        5.77949         0.22457        15.87297
| 68>    C        6.02054        -0.90574        17.14429
| 69>    C        6.49146        -2.09620        16.70196
| 70>    C        6.63154        -2.14306        15.29560
| 71>    S        7.29454        -3.57719        14.54806
| 72>    C        6.32753        -1.50255        12.22562
| 73>    N        6.32603        -2.81796        12.49697
| 74>    C        6.39021        -3.67784        11.51722
| 75>    C        6.46842        -3.24540        10.18327
| 76>    N        6.45798        -1.97680         9.87533
| 77>    C        6.37302        -1.06692        10.86462
| 78>    C        6.73413         3.39769         6.58436
| 79>    C        6.58465         4.65528         7.18247
| 80>    C        6.65752         5.81243         6.44332
| 81>    C        6.45615         7.12463         7.13794
| 82>    H        7.58017         8.82496         3.66791
| 83>    H        8.12507         8.20010         5.29583
| 84>    H        6.41697         6.76452         3.20608
| 85>    H        7.06001         4.44696         3.35998
| 86>    H        7.20148         0.36095         3.37628
| 87>    H        8.34676         3.08060         2.55003
| 88>    H        6.90940        -3.64258         1.11296
| 89>    H        7.50252        -3.93388        -0.54281
| 90>    H        4.84217        -2.63720         0.24608
| 91>    H        5.03803        -4.26543        -0.41248
| 92>    H        5.38623        -2.85796        -1.42321
| 93>    H        8.51529        -3.37233        -5.34937
| 94>    H       13.01923         0.52959        -1.66397
| 95>    H       15.90787         1.68064        -3.71747
| 96>    H       15.34056         1.42290        -2.05980
| 97>    H       14.14573         3.40665        -4.05483
| 98>    H       15.15364         3.81653        -2.66209
| 99>    H       13.54299         3.12581        -2.42277
|100>    H       14.74995         0.64623        -5.57282
|101>    H       13.00591        -0.91929        -6.36562
|102>    H        8.99631         4.01617         0.61361
|103>    H        9.93601         3.49833        -0.80425
|104>    H       10.77679         3.02294         2.10576
|105>    H       11.46057         4.23892         1.01737
|106>    H       11.66961         2.51721         0.67096
|107>    H        6.40417         2.75060         9.23920
|108>    H        6.54508        -0.21282         8.48251
|109>    H        5.75866         4.42963        12.05339
|110>    H        5.62086         3.61366        14.46899
|111>    H        5.82655        -0.61829        18.15881
|112>    H        6.72933        -2.93067        17.33850
|113>    H        7.83273        -4.00410        15.71824
|114>    H        6.38588        -4.72342        11.79077
|115>    H        6.53471        -3.94424         9.36083
|116>    H        6.39043         4.71345         8.24280
|117>    H        5.84793         6.98627         8.02925
|118>    H        5.96983         7.84492         6.48479
|119>    H        7.41330         7.54106         7.45197
|120> *
|121> 
|122>                          ****END OF INPUT****
================================================================================

                       ****************************
                       * Single Point Calculation *
                       ****************************

---------------------------------
CARTESIAN COORDINATES (ANGSTROEM)
---------------------------------
  C      7.563650    8.029910    4.394210
  C      6.914930    6.898090    4.159800
  C      6.856050    5.727760    5.039850
  C      6.974360    4.491090    4.433960
  C      6.964980    3.309480    5.183170
  C      7.080100    1.971750    4.732600
  C      7.407810    1.418420    3.487820
  C      8.027660    2.055830    2.445190
  C      8.342550    1.392640    1.246530
  C      8.015450    0.097550    0.833530
  C      7.300450   -1.099260    1.197850
  O      6.676180   -1.415180    2.194880
  N      7.463970   -1.959110    0.091150
  C      6.887960   -3.280400    0.080750
  C      5.443560   -3.257770   -0.413320
  C      8.246710   -1.386160   -0.877440
  C      8.644460   -1.953880   -2.124950
  S      7.589780   -2.894730   -3.149360
  C      8.733310   -2.884020   -4.419970
  C      9.870530   -2.198680   -4.094920
  C      9.835710   -1.683030   -2.770250
  C     11.035640   -1.095330   -2.157570
  O     11.240540   -1.069950   -0.960360
  C     12.035350   -0.626840   -3.143430
  C     13.030830    0.233420   -2.702520
  C     14.009730    0.710680   -3.563720
  C     15.028870    1.694130   -3.070480
  C     14.430730    3.102770   -3.050210
  C     13.991850    0.290200   -4.889870
  C     13.018950   -0.581270   -5.339800
  C     12.022570   -1.042140   -4.482780
  C     10.995530   -1.962380   -5.013210
  O     11.051480   -2.452410   -6.125260
  C      8.586470   -0.115140   -0.446070
  C      9.270550    1.091140   -0.850970
  O      9.877930    1.386570   -1.862020
  N      9.071540    1.970360    0.222340
  C      9.700260    3.267190    0.238810
  C     10.984160    3.263240    1.065350
  S      6.809700    0.865960    6.049550
  C      6.649900    2.135890    7.218580
  C      6.488230    1.893460    8.589260
  C      6.450940    0.643810    9.138830
  C      6.329140    0.311580   10.509190
  C      6.158640    1.235830   11.575940
  N      6.033350    2.551360   11.317250
  C      5.854750    3.382850   12.309630
  C      5.783270    2.940050   13.639650
  N      5.909500    1.672810   13.922220
  C      6.103140    0.786130   12.933930
  C      6.244900   -0.579570   13.296090
  C      6.262690   -0.955070   14.669930
  S      5.779490    0.224570   15.872970
  C      6.020540   -0.905740   17.144290
  C      6.491460   -2.096200   16.701960
  C      6.631540   -2.143060   15.295600
  S      7.294540   -3.577190   14.548060
  C      6.327530   -1.502550   12.225620
  N      6.326030   -2.817960   12.496970
  C      6.390210   -3.677840   11.517220
  C      6.468420   -3.245400   10.183270
  N      6.457980   -1.976800    9.875330
  C      6.373020   -1.066920   10.864620
  C      6.734130    3.397690    6.584360
  C      6.584650    4.655280    7.182470
  C      6.657520    5.812430    6.443320
  C      6.456150    7.124630    7.137940
  H      7.580170    8.824960    3.667910
  H      8.125070    8.200100    5.295830
  H      6.416970    6.764520    3.206080
  H      7.060010    4.446960    3.359980
  H      7.201480    0.360950    3.376280
  H      8.346760    3.080600    2.550030
  H      6.909400   -3.642580    1.112960
  H      7.502520   -3.933880   -0.542810
  H      4.842170   -2.637200    0.246080
  H      5.038030   -4.265430   -0.412480
  H      5.386230   -2.857960   -1.423210
  H      8.515290   -3.372330   -5.349370
  H     13.019230    0.529590   -1.663970
  H     15.907870    1.680640   -3.717470
  H     15.340560    1.422900   -2.059800
  H     14.145730    3.406650   -4.054830
  H     15.153640    3.816530   -2.662090
  H     13.542990    3.125810   -2.422770
  H     14.749950    0.646230   -5.572820
  H     13.005910   -0.919290   -6.365620
  H      8.996310    4.016170    0.613610
  H      9.936010    3.498330   -0.804250
  H     10.776790    3.022940    2.105760
  H     11.460570    4.238920    1.017370
  H     11.669610    2.517210    0.670960
  H      6.404170    2.750600    9.239200
  H      6.545080   -0.212820    8.482510
  H      5.758660    4.429630   12.053390
  H      5.620860    3.613660   14.468990
  H      5.826550   -0.618290   18.158810
  H      6.729330   -2.930670   17.338500
  H      7.832730   -4.004100   15.718240
  H      6.385880   -4.723420   11.790770
  H      6.534710   -3.944240    9.360830
  H      6.390430    4.713450    8.242800
  H      5.847930    6.986270    8.029250
  H      5.969830    7.844920    6.484790
  H      7.413300    7.541060    7.451970

----------------------------
CARTESIAN COORDINATES (A.U.)
----------------------------
  NO LB      ZA    FRAG     MASS         X           Y           Z
   0 C     6.0000    0    12.011   14.293227   15.174331    8.303853
   1 C     6.0000    0    12.011   13.067324   13.035501    7.860883
   2 C     6.0000    0    12.011   12.956057   10.823898    9.523936
   3 C     6.0000    0    12.011   13.179630    8.486930    8.378970
   4 C     6.0000    0    12.011   13.161905    6.254011    9.794772
   5 C     6.0000    0    12.011   13.379450    3.726068    8.943318
   6 C     6.0000    0    12.011   13.998732    2.680425    6.591025
   7 C     6.0000    0    12.011   15.170079    3.884956    4.620739
   8 C     6.0000    0    12.011   15.765135    2.631708    2.355600
   9 C     6.0000    0    12.011   15.147005    0.184343    1.575143
  10 C     6.0000    0    12.011   13.795851   -2.077300    2.263608
  11 O     8.0000    0    15.999   12.616152   -2.674303    4.147722
  12 N     7.0000    0    14.007   14.104859   -3.702181    0.172249
  13 C     6.0000    0    12.011   13.016358   -6.199058    0.152595
  14 C     6.0000    0    12.011   10.286838   -6.156293   -0.781062
  15 C     6.0000    0    12.011   15.584023   -2.619463   -1.658121
  16 C     6.0000    0    12.011   16.335662   -3.692298   -4.015574
  17 S    16.0000    0    32.060   14.342606   -5.470247   -5.951428
  18 C     6.0000    0    12.011   16.503564   -5.450008   -8.352533
  19 C     6.0000    0    12.011   18.652598   -4.154903   -7.738277
  20 C     6.0000    0    12.011   18.586798   -3.180466   -5.235014
  21 C     6.0000    0    12.011   20.854337   -2.069874   -4.077216
  22 O     8.0000    0    15.999   21.241542   -2.021912   -1.814817
  23 C     6.0000    0    12.011   22.743515   -1.184556   -5.940222
  24 C     6.0000    0    12.011   24.624700    0.441100   -5.107023
  25 C     6.0000    0    12.011   26.474553    1.342991   -6.734455
  26 C     6.0000    0    12.011   28.400448    3.201442   -5.802366
  27 C     6.0000    0    12.011   27.270128    5.863386   -5.764062
  28 C     6.0000    0    12.011   26.440765    0.548399   -9.240515
  29 C     6.0000    0    12.011   24.602250   -1.098441  -10.090760
  30 C     6.0000    0    12.011   22.719365   -1.969359   -8.471227
  31 C     6.0000    0    12.011   20.778540   -3.708361   -9.473594
  32 O     8.0000    0    15.999   20.884271   -4.634383  -11.575064
  33 C     6.0000    0    12.011   16.226077   -0.217583   -0.842950
  34 C     6.0000    0    12.011   17.518801    2.061956   -1.608100
  35 O     8.0000    0    15.999   18.666582    2.620238   -3.518708
  36 N     7.0000    0    14.007   17.142726    3.723441    0.420162
  37 C     6.0000    0    12.011   18.330835    6.174094    0.451285
  38 C     6.0000    0    12.011   20.757054    6.166630    2.013220
  39 S    16.0000    0    32.060   12.868468    1.636427   11.431993
  40 C     6.0000    0    12.011   12.566490    4.036247   13.641139
  41 C     6.0000    0    12.011   12.260978    3.578121   16.231349
  42 C     6.0000    0    12.011   12.190510    1.216625   17.269886
  43 C     6.0000    0    12.011   11.960341    0.588801   19.859491
  44 C     6.0000    0    12.011   11.638143    2.335380   21.875356
  45 N     7.0000    0    14.007   11.401379    4.821372   21.386503
  46 C     6.0000    0    12.011   11.063874    6.392660   23.261830
  47 C     6.0000    0    12.011   10.928796    5.555889   25.775203
  48 N     7.0000    0    14.007   11.167337    3.161153   26.309183
  49 C     6.0000    0    12.011   11.533263    1.485570   24.441586
  50 C     6.0000    0    12.011   11.801151   -1.095229   25.125969
  51 C     6.0000    0    12.011   11.834769   -1.804821   27.722150
  52 S    16.0000    0    32.060   10.921653    0.424376   29.995566
  53 C     6.0000    0    12.011   11.377172   -1.711601   32.398013
  54 C     6.0000    0    12.011   12.267082   -3.961244   31.562130
  55 C     6.0000    0    12.011   12.531794   -4.049796   28.904495
  56 S    16.0000    0    32.060   13.784683   -6.759909   27.491849
  57 C     6.0000    0    12.011   11.957299   -2.839408   23.103074
  58 N     7.0000    0    14.007   11.954464   -5.325173   23.615851
  59 C     6.0000    0    12.011   12.075747   -6.950110   21.764392
  60 C     6.0000    0    12.011   12.223542   -6.132917   19.243591
  61 N     7.0000    0    14.007   12.203814   -3.735611   18.661669
  62 C     6.0000    0    12.011   12.043262   -2.016187   20.531156
  63 C     6.0000    0    12.011   12.725661    6.420704   12.442637
  64 C     6.0000    0    12.011   12.443185    8.797204   13.572901
  65 C     6.0000    0    12.011   12.580890   10.983901   12.176110
  66 C     6.0000    0    12.011   12.200355   13.463600   13.488752
  67 H     1.0000    0     1.008   14.324445   16.676758    6.931345
  68 H     1.0000    0     1.008   15.354157   15.495943   10.007668
  69 H     1.0000    0     1.008   12.126316   12.783090    6.058613
  70 H     1.0000    0     1.008   13.341485    8.403537    6.349442
  71 H     1.0000    0     1.008   13.608825    0.682097    6.380245
  72 H     1.0000    0     1.008   15.773091    5.821490    4.818858
  73 H     1.0000    0     1.008   13.056874   -6.883479    2.103190
  74 H     1.0000    0     1.008   14.177708   -7.433956   -1.025762
  75 H     1.0000    0     1.008    9.150375   -4.983586    0.465024
  76 H     1.0000    0     1.008    9.520497   -8.060495   -0.779474
  77 H     1.0000    0     1.008   10.178500   -5.400762   -2.689477
  78 H     1.0000    0     1.008   16.091566   -6.372780  -10.108844
  79 H     1.0000    0     1.008   24.602779    1.000780   -3.144448
  80 H     1.0000    0     1.008   30.061518    3.175949   -7.025000
  81 H     1.0000    0     1.008   28.989457    2.688891   -3.892458
  82 H     1.0000    0     1.008   26.731556    6.437636   -7.662518
  83 H     1.0000    0     1.008   28.636230    7.212196   -5.030621
  84 H     1.0000    0     1.008   25.592542    5.906925   -4.578372
  85 H     1.0000    0     1.008   27.873366    1.221198  -10.531104
  86 H     1.0000    0     1.008   24.577608   -1.737206  -12.029278
  87 H     1.0000    0     1.008   17.000562    7.589461    1.159555
  88 H     1.0000    0     1.008   18.776338    6.610886   -1.519812
  89 H     1.0000    0     1.008   20.365182    5.712529    3.979310
  90 H     1.0000    0     1.008   21.657339    8.010398    1.922551
  91 H     1.0000    0     1.008   22.052367    4.756838    1.267931
  92 H     1.0000    0     1.008   12.102127    5.197881   17.459558
  93 H     1.0000    0     1.008   12.368409   -0.402172   16.029621
  94 H     1.0000    0     1.008   10.882290    8.370788   22.777606
  95 H     1.0000    0     1.008   10.621886    6.828828   27.342429
  96 H     1.0000    0     1.008   11.010584   -1.168399   34.315178
  97 H     1.0000    0     1.008   12.716591   -5.538164   32.765017
  98 H     1.0000    0     1.008   14.801715   -7.566652   29.703169
  99 H     1.0000    0     1.008   12.067564   -8.925970   22.281326
 100 H     1.0000    0     1.008   12.348812   -7.453533   17.689405
 101 H     1.0000    0     1.008   12.076163    8.907130   15.576635
 102 H     1.0000    0     1.008   11.050986   13.202137   15.173084
 103 H     1.0000    0     1.008   11.281344   14.824750   12.254477
 104 H     1.0000    0     1.008   14.009107   14.250538   14.082182

--------------------------------
INTERNAL COORDINATES (ANGSTROEM)
--------------------------------
 C      0   0   0     0.000000000000     0.00000000     0.00000000
 C      1   0   0     1.325444151558     0.00000000     0.00000000
 C      2   1   0     1.465478476744   126.54101196     0.00000000
 C      3   2   1     1.382191244763   116.60519951   222.10027302
 C      4   3   2     1.399144667502   121.35280771   178.39641269
 C      5   4   3     1.416258271715   128.81398333   180.31098871
 C      6   5   4     1.401087142686   132.43025473     9.82960422
 C      7   6   5     1.370249191753   126.73477957    17.52048681
 C      8   7   6     1.405618185639   122.05508901   178.27697493
 C      9   8   7     1.398149318957   129.53307176     6.25284611
 C     10   9   8     1.440940053750   144.16985815     2.76217875
 O     11  10   9     1.218025985027   132.58672225   356.70709238
 N     11  10   9     1.410980404860   104.49738578   177.25373500
 C     13  11  10     1.441423929384   121.19530893   179.64567561
 C     14  13  11     1.526731358753   111.51900663    86.04836587
 C     13  11  10     1.370810051831   111.44905383     1.77232935
 C     16  13  11     1.427162310671   127.62649474   179.18780961
 S     17  16  13     1.745555634461   123.98739664    40.82925892
 C     18  17  16     1.709451765070    91.64176592   170.58131502
 C     19  18  17     1.366973937754   112.51401171   359.95078404
 C     17  16  13     1.381610789984   124.79107256   211.27020211
 C     21  17  16     1.469897981936   125.98405216    18.24057137
 O     22  21  17     1.214882685077   123.83403070    18.36904931
 C     22  21  17     1.480142866010   113.59637635   193.74102618
 C     24  22  21     1.387598402312   117.97844452   164.06247303
 C     25  24  22     1.388411955293   121.45492751   179.60924142
 C     26  25  24     1.499701950289   120.03550230   176.85483283
 C     27  26  25     1.530506119589   110.01850884   279.81984158
 C     26  25  24     1.391329201627   118.57270968   358.90860151
 C     29  26  25     1.381459871223   120.67257858     0.13336022
 C     30  29  26     1.392715886927   120.80876047     1.01016382
 C     20  19  18     1.471298478929   124.62650404   183.38244920
 O     32  20  19     1.216517573198   122.75248325   354.17394068
 C     16  13  11     1.384560859948   107.67808502   358.29699679
 C     34  16  13     1.444652516974   142.69309134   184.23904664
 O     35  34  16     1.215899441484   132.25857441   358.10381883
 N      9   8   7     1.383528812349   123.52508701   185.94139337
 C     37   9   8     1.441293914578   126.66271884     4.84903618
 C     38  37   9     1.526952253379   111.75522078    76.01371403
 S      6   5   4     1.740759887693   110.28559470   187.06332772
 C     40   6   5     1.733461677050    93.39103535   356.44174863
 C     41  40   6     1.401311227458   122.92518100   184.19403468
 C     42  41  40     1.365665717333   123.71610759     0.52216848
 C     43  42  41     1.415308638601   127.35756608   178.09499898
 C     44  43  42     1.421711600501   125.74756615     3.13852383
 N     45  44  43     1.346564993270   120.14073361     3.32877826
 C     46  45  44     1.306939801406   119.23483662   178.85100699
 C     47  46  45     1.403614772935   121.71914930   359.67903184
 N     48  47  46     1.304483436231   120.45047221     0.75352324
 C     49  48  47     1.341795437502   119.76002640   359.70733634
 C     50  49  48     1.419997272251   117.52303402   179.51214281
 C     51  50  49     1.424343034420   120.05269599   356.10752323
 S     52  51  50     1.752808606551   118.76038243    12.53739415
 C     53  52  51     1.718126986285    91.51487221   178.91776692
 C     54  53  52     1.354480153749   112.66511277     2.34966681
 C     52  51  50     1.392420019786   131.42517260   193.80947958
 S     56  52  51     1.747888414202   127.46932024     3.55209324
 C     51  50  49     1.415848091499   116.10152676   174.53752725
 N     58  51  50     1.343107047335   119.05409674   186.67926422
 C     59  58  51     1.305152385471   119.57306201   179.41394170
 C     60  59  58     1.404472769476   120.85495812     0.36164488
 N     61  60  59     1.305481519287   121.51999084   358.87923158
 C     62  61  60     1.346771888666   118.93047424     0.14760434
 C     41  40   6     1.414732816224   110.21770964     3.05924224
 C     64  41  40     1.400575756823   127.08848309   176.59542255
 C     65  64  41     1.375008684300   121.36070115   181.64234694
 C     66  65  64     1.498304261924   118.73052242   178.54246922
 H      1   2   3     1.076981477510   121.23969673   177.64169009
 H      1   2   3     1.075674521823   122.60128840   359.56545208
 H      2   1   3     1.084152639115   119.05069527   184.11036825
 H      4   3   2     1.078293290251   118.68652468   357.45815137
 H      7   6   5     1.083169442608   115.62581219   193.31080725
 H      8   7   6     1.078410769837   120.12713193     2.18012912
 H     14  13  11     1.094116771693   106.78604048   326.83605188
 H     14  13  11     1.092495847864   109.12474562   208.87889949
 H     15  14  13     1.087007551492   109.60720491   299.36193254
 H     15  14  13     1.086201621293   109.82890855   179.85787832
 H     15  14  13     1.087663816213   110.84176390    59.62012932
 H     19  18  17     1.072270365393   120.35672498   180.54090373
 H     25  24  22     1.080017282917   117.89519557   359.18487192
 H     27  26  25     1.091521433688   110.13279821   159.01511391
 H     27  26  25     1.091874732467   109.60464038    39.83727744
 H     28  27  26     1.087579605730   110.32470136   298.28881130
 H     28  27  26     1.087515213733   110.42631340   178.11476557
 H     28  27  26     1.087333482792   110.25617498    57.80446462
 H     29  26  25     1.080691294219   119.58887496   180.40926304
 H     30  29  26     1.080154727065   121.01223985   180.64137164
 H     38  37   9     1.094071150748   109.82845785   312.44827287
 H     38  37   9     1.094064863571   105.85440477   195.27336911
 H     39  38  37     1.087749683981   110.97853368   297.74356622
 H     39  38  37     1.086839468781   110.02025525   177.13580862
 H     39  38  37     1.087173369569   109.60537172    57.43709267
 H     42  41  40     1.078970373458   117.43600917   179.58270807
 H     43  42  41     1.083251235356   118.51737739   359.61115553
 H     47  46  45     1.081961456846   116.60470311   180.04280345
 H     48  47  46     1.080709154121   122.56020853   180.96224515
 H     54  53  52     1.072152252714   119.89460150   180.59710850
 H     55  54  53     1.076153097566   124.41660038   178.60146821
 H     57  56  52     1.356916304199    92.27886789   158.29139592
 H     60  59  58     1.080780221784   116.56291565   179.99286137
 H     61  60  59     1.081285930409   121.79190449   179.21925629
 H     65  64  41     1.079539191600   119.14565013     0.51556858
 H     67  66  65     1.087891802570   110.09551404   334.33200897
 H     67  66  65     1.087165925239   111.21326377   213.34684846
 H     67  66  65     1.090029774043   110.49521666    93.13143381

---------------------------
INTERNAL COORDINATES (A.U.)
---------------------------
 C      0   0   0     0.000000000000     0.00000000     0.00000000
 C      1   0   0     2.504726452253     0.00000000     0.00000000
 C      2   1   0     2.769352976202   126.54101196     0.00000000
 C      3   2   1     2.611962917306   116.60519951   222.10027302
 C      4   3   2     2.644000243316   121.35280771   178.39641269
 C      5   4   3     2.676340268441   128.81398333   180.31098871
 C      6   5   4     2.647670989435   132.43025473     9.82960422
 C      7   6   5     2.589395707640   126.73477957    17.52048681
 C      8   7   6     2.656233419718   122.05508901   178.27697493
 C      9   8   7     2.642119307157   129.53307176     6.25284611
 C     10   9   8     2.722982076985   144.16985815     2.76217875
 O     11  10   9     2.301735535700   132.58672225   356.70709238
 N     11  10   9     2.666366545515   104.49738578   177.25373500
 C     13  11  10     2.723896469416   121.19530893   179.64567561
 C     14  13  11     2.885104148113   111.51900663    86.04836587
 C     13  11  10     2.590455579586   111.44905383     1.77232935
 C     16  13  11     2.696945915823   127.62649474   179.18780961
 S     17  16  13     3.298622100655   123.98739664    40.82925892
 C     18  17  16     3.230395675130    91.64176592   170.58131502
 C     19  18  17     2.583206374564   112.51401171   359.95078404
 C     17  16  13     2.610866016740   124.79107256   211.27020211
 C     21  17  16     2.777704630663   125.98405216    18.24057137
 O     22  21  17     2.295795559639   123.83403070    18.36904931
 C     22  21  17     2.797064655836   113.59637635   193.74102618
 C     24  22  21     2.622180964237   117.97844452   164.06247303
 C     25  24  22     2.623718356566   121.45492751   179.60924142
 C     26  25  24     2.834025968553   120.03550230   176.85483283
 C     27  26  25     2.892237412314   110.01850884   279.81984158
 C     26  25  24     2.629231153202   118.57270968   358.90860151
 C     29  26  25     2.610580821614   120.67257858     0.13336022
 C     30  29  26     2.631851608654   120.80876047     1.01016382
 C     20  19  18     2.780351186431   124.62650404   183.38244920
 O     32  20  19     2.298885050447   122.75248325   354.17394068
 C     16  13  11     2.616440841048   107.67808502   358.29699679
 C     34  16  13     2.729997615761   142.69309134   184.23904664
 O     35  34  16     2.297716950792   132.25857441   358.10381883
 N      9   8   7     2.614490553729   123.52508701   185.94139337
 C     37   9   8     2.723650777040   126.66271884     4.84903618
 C     38  37   9     2.885521578461   111.75522078    76.01371403
 S      6   5   4     3.289559452655   110.28559470   187.06332772
 C     40   6   5     3.275767833272    93.39103535   356.44174863
 C     41  40   6     2.648094448285   122.92518100   184.19403468
 C     42  41  40     2.580734196245   123.71610759     0.52216848
 C     43  42  41     2.674545721930   127.35756608   178.09499898
 C     44  43  42     2.686645566366   125.74756615     3.13852383
 N     45  44  43     2.544639058806   120.14073361     3.32877826
 C     46  45  44     2.469758298179   119.23483662   178.85100699
 C     47  46  45     2.652447518372   121.71914930   359.67903184
 N     48  47  46     2.465116440712   120.45047221     0.75352324
 C     49  48  47     2.535625904623   119.76002640   359.70733634
 C     50  49  48     2.683405955469   117.52303402   179.51214281
 C     51  50  49     2.691618255812   120.05269599   356.10752323
 S     52  51  50     3.312328231562   118.76038243    12.53739415
 C     53  52  51     3.246789467378    91.51487221   178.91776692
 C     54  53  52     2.559596544417   112.66511277     2.34966681
 C     52  51  50     2.631292500784   131.42517260   193.80947958
 S     56  52  51     3.303030415495   127.46932024     3.55209324
 C     51  50  49     2.675565140167   116.10152676   174.53752725
 N     58  51  50     2.538104488002   119.05409674   186.67926422
 C     59  58  51     2.466380571574   119.57306201   179.41394170
 C     60  59  58     2.654068896860   120.85495812     0.36164488
 N     61  60  59     2.467002544348   121.51999084   358.87923158
 C     62  61  60     2.545030034442   118.93047424     0.14760434
 C     41  40   6     2.673457575334   110.21770964     3.05924224
 C     64  41  40     2.646704610205   127.08848309   176.59542255
 C     65  64  41     2.598389845090   121.36070115   181.64234694
 C     66  65  64     2.831384720324   118.73052242   178.54246922
 H      1   2   3     2.035200043800   121.23969673   177.64169009
 H      1   2   3     2.032730255483   122.60128840   359.56545208
 H      2   1   3     2.048751575295   119.05069527   184.11036825
 H      4   3   2     2.037679010619   118.68652468   357.45815137
 H      7   6   5     2.046893603161   115.62581219   193.31080725
 H      8   7   6     2.037901014863   120.12713193     2.18012912
 H     14  13  11     2.067581057030   106.78604048   326.83605188
 H     14  13  11     2.064517954909   109.12474562   208.87889949
 H     15  14  13     2.054146577824   109.60720491   299.36193254
 H     15  14  13     2.052623590465   109.82890855   179.85787832
 H     15  14  13     2.055386738419   110.84176390    59.62012932
 H     19  18  17     2.026297332112   120.35672498   180.54090373
 H     25  24  22     2.040936884615   117.89519557   359.18487192
 H     27  26  25     2.062676578975   110.13279821   159.01511391
 H     27  26  25     2.063344216911   109.60464038    39.83727744
 H     28  27  26     2.055227603668   110.32470136   298.28881130
 H     28  27  26     2.055105920428   110.42631340   178.11476557
 H     28  27  26     2.054762498719   110.25617498    57.80446462
 H     29  26  25     2.042210581386   119.58887496   180.40926304
 H     30  29  26     2.041196616413   121.01223985   180.64137164
 H     38  37   9     2.067494845939   109.82845785   312.44827287
 H     38  37   9     2.067482964895   105.85440477   195.27336911
 H     39  38  37     2.055549004983   110.97853368   297.74356622
 H     39  38  37     2.053828947532   110.02025525   177.13580862
 H     39  38  37     2.054459928578   109.60537172    57.43709267
 H     42  41  40     2.038958512450   117.43600917   179.58270807
 H     43  42  41     2.047048169054   118.51737739   359.61115553
 H     47  46  45     2.044610840897   116.60470311   180.04280345
 H     48  47  46     2.042244331710   122.56020853   180.96224515
 H     54  53  52     2.026074131496   119.89460150   180.59710850
 H     55  54  53     2.033634632570   124.41660038   178.60146821
 H     57  56  52     2.564200201588    92.27886789   158.29139592
 H     60  59  58     2.042378630131   116.56291565   179.99286137
 H     61  60  59     2.043334280935   121.79190449   179.21925629
 H     65  64  41     2.040033422958   119.14565013     0.51556858
 H     67  66  65     2.055817570196   110.09551404   334.33200897
 H     67  66  65     2.054445860832   111.21326377   213.34684846
 H     67  66  65     2.059857750761   110.49521666    93.13143381

---------------------
BASIS SET INFORMATION
---------------------
There are 5 groups of distinct atoms

 Group   1 Type C   : 7s4p1d contracted to 3s2p1d pattern {511/31/1}
 Group   2 Type O   : 7s4p1d contracted to 3s2p1d pattern {511/31/1}
 Group   3 Type N   : 7s4p1d contracted to 3s2p1d pattern {511/31/1}
 Group   4 Type S   : 10s7p1d contracted to 4s3p1d pattern {5311/511/1}
 Group   5 Type H   : 4s1p contracted to 2s1p pattern {31/1}

Atom   0C    basis set group =>   1
Atom   1C    basis set group =>   1
Atom   2C    basis set group =>   1
Atom   3C    basis set group =>   1
Atom   4C    basis set group =>   1
Atom   5C    basis set group =>   1
Atom   6C    basis set group =>   1
Atom   7C    basis set group =>   1
Atom   8C    basis set group =>   1
Atom   9C    basis set group =>   1
Atom  10C    basis set group =>   1
Atom  11O    basis set group =>   2
Atom  12N    basis set group =>   3
Atom  13C    basis set group =>   1
Atom  14C    basis set group =>   1
Atom  15C    basis set group =>   1
Atom  16C    basis set group =>   1
Atom  17S    basis set group =>   4
Atom  18C    basis set group =>   1
Atom  19C    basis set group =>   1
Atom  20C    basis set group =>   1
Atom  21C    basis set group =>   1
Atom  22O    basis set group =>   2
Atom  23C    basis set group =>   1
Atom  24C    basis set group =>   1
Atom  25C    basis set group =>   1
Atom  26C    basis set group =>   1
Atom  27C    basis set group =>   1
Atom  28C    basis set group =>   1
Atom  29C    basis set group =>   1
Atom  30C    basis set group =>   1
Atom  31C    basis set group =>   1
Atom  32O    basis set group =>   2
Atom  33C    basis set group =>   1
Atom  34C    basis set group =>   1
Atom  35O    basis set group =>   2
Atom  36N    basis set group =>   3
Atom  37C    basis set group =>   1
Atom  38C    basis set group =>   1
Atom  39S    basis set group =>   4
Atom  40C    basis set group =>   1
Atom  41C    basis set group =>   1
Atom  42C    basis set group =>   1
Atom  43C    basis set group =>   1
Atom  44C    basis set group =>   1
Atom  45N    basis set group =>   3
Atom  46C    basis set group =>   1
Atom  47C    basis set group =>   1
Atom  48N    basis set group =>   3
Atom  49C    basis set group =>   1
Atom  50C    basis set group =>   1
Atom  51C    basis set group =>   1
Atom  52S    basis set group =>   4
Atom  53C    basis set group =>   1
Atom  54C    basis set group =>   1
Atom  55C    basis set group =>   1
Atom  56S    basis set group =>   4
Atom  57C    basis set group =>   1
Atom  58N    basis set group =>   3
Atom  59C    basis set group =>   1
Atom  60C    basis set group =>   1
Atom  61N    basis set group =>   3
Atom  62C    basis set group =>   1
Atom  63C    basis set group =>   1
Atom  64C    basis set group =>   1
Atom  65C    basis set group =>   1
Atom  66C    basis set group =>   1
Atom  67H    basis set group =>   5
Atom  68H    basis set group =>   5
Atom  69H    basis set group =>   5
Atom  70H    basis set group =>   5
Atom  71H    basis set group =>   5
Atom  72H    basis set group =>   5
Atom  73H    basis set group =>   5
Atom  74H    basis set group =>   5
Atom  75H    basis set group =>   5
Atom  76H    basis set group =>   5
Atom  77H    basis set group =>   5
Atom  78H    basis set group =>   5
Atom  79H    basis set group =>   5
Atom  80H    basis set group =>   5
Atom  81H    basis set group =>   5
Atom  82H    basis set group =>   5
Atom  83H    basis set group =>   5
Atom  84H    basis set group =>   5
Atom  85H    basis set group =>   5
Atom  86H    basis set group =>   5
Atom  87H    basis set group =>   5
Atom  88H    basis set group =>   5
Atom  89H    basis set group =>   5
Atom  90H    basis set group =>   5
Atom  91H    basis set group =>   5
Atom  92H    basis set group =>   5
Atom  93H    basis set group =>   5
Atom  94H    basis set group =>   5
Atom  95H    basis set group =>   5
Atom  96H    basis set group =>   5
Atom  97H    basis set group =>   5
Atom  98H    basis set group =>   5
Atom  99H    basis set group =>   5
Atom 100H    basis set group =>   5
Atom 101H    basis set group =>   5
Atom 102H    basis set group =>   5
Atom 103H    basis set group =>   5
Atom 104H    basis set group =>   5
---------------------------------
AUXILIARY/J BASIS SET INFORMATION
---------------------------------
There are 5 groups of distinct atoms

 Group   1 Type C   : 12s5p4d2f1g contracted to 6s4p3d1f1g pattern {711111/2111/211/2/1}
 Group   2 Type O   : 12s5p4d2f1g contracted to 6s4p3d1f1g pattern {711111/2111/211/2/1}
 Group   3 Type N   : 12s5p4d2f1g contracted to 6s4p3d1f1g pattern {711111/2111/211/2/1}
 Group   4 Type S   : 14s5p5d2f1g contracted to 8s4p3d1f1g pattern {71111111/2111/311/2/1}
 Group   5 Type H   : 5s2p1d contracted to 3s1p1d pattern {311/2/1}

Atom   0C    basis set group =>   1
Atom   1C    basis set group =>   1
Atom   2C    basis set group =>   1
Atom   3C    basis set group =>   1
Atom   4C    basis set group =>   1
Atom   5C    basis set group =>   1
Atom   6C    basis set group =>   1
Atom   7C    basis set group =>   1
Atom   8C    basis set group =>   1
Atom   9C    basis set group =>   1
Atom  10C    basis set group =>   1
Atom  11O    basis set group =>   2
Atom  12N    basis set group =>   3
Atom  13C    basis set group =>   1
Atom  14C    basis set group =>   1
Atom  15C    basis set group =>   1
Atom  16C    basis set group =>   1
Atom  17S    basis set group =>   4
Atom  18C    basis set group =>   1
Atom  19C    basis set group =>   1
Atom  20C    basis set group =>   1
Atom  21C    basis set group =>   1
Atom  22O    basis set group =>   2
Atom  23C    basis set group =>   1
Atom  24C    basis set group =>   1
Atom  25C    basis set group =>   1
Atom  26C    basis set group =>   1
Atom  27C    basis set group =>   1
Atom  28C    basis set group =>   1
Atom  29C    basis set group =>   1
Atom  30C    basis set group =>   1
Atom  31C    basis set group =>   1
Atom  32O    basis set group =>   2
Atom  33C    basis set group =>   1
Atom  34C    basis set group =>   1
Atom  35O    basis set group =>   2
Atom  36N    basis set group =>   3
Atom  37C    basis set group =>   1
Atom  38C    basis set group =>   1
Atom  39S    basis set group =>   4
Atom  40C    basis set group =>   1
Atom  41C    basis set group =>   1
Atom  42C    basis set group =>   1
Atom  43C    basis set group =>   1
Atom  44C    basis set group =>   1
Atom  45N    basis set group =>   3
Atom  46C    basis set group =>   1
Atom  47C    basis set group =>   1
Atom  48N    basis set group =>   3
Atom  49C    basis set group =>   1
Atom  50C    basis set group =>   1
Atom  51C    basis set group =>   1
Atom  52S    basis set group =>   4
Atom  53C    basis set group =>   1
Atom  54C    basis set group =>   1
Atom  55C    basis set group =>   1
Atom  56S    basis set group =>   4
Atom  57C    basis set group =>   1
Atom  58N    basis set group =>   3
Atom  59C    basis set group =>   1
Atom  60C    basis set group =>   1
Atom  61N    basis set group =>   3
Atom  62C    basis set group =>   1
Atom  63C    basis set group =>   1
Atom  64C    basis set group =>   1
Atom  65C    basis set group =>   1
Atom  66C    basis set group =>   1
Atom  67H    basis set group =>   5
Atom  68H    basis set group =>   5
Atom  69H    basis set group =>   5
Atom  70H    basis set group =>   5
Atom  71H    basis set group =>   5
Atom  72H    basis set group =>   5
Atom  73H    basis set group =>   5
Atom  74H    basis set group =>   5
Atom  75H    basis set group =>   5
Atom  76H    basis set group =>   5
Atom  77H    basis set group =>   5
Atom  78H    basis set group =>   5
Atom  79H    basis set group =>   5
Atom  80H    basis set group =>   5
Atom  81H    basis set group =>   5
Atom  82H    basis set group =>   5
Atom  83H    basis set group =>   5
Atom  84H    basis set group =>   5
Atom  85H    basis set group =>   5
Atom  86H    basis set group =>   5
Atom  87H    basis set group =>   5
Atom  88H    basis set group =>   5
Atom  89H    basis set group =>   5
Atom  90H    basis set group =>   5
Atom  91H    basis set group =>   5
Atom  92H    basis set group =>   5
Atom  93H    basis set group =>   5
Atom  94H    basis set group =>   5
Atom  95H    basis set group =>   5
Atom  96H    basis set group =>   5
Atom  97H    basis set group =>   5
Atom  98H    basis set group =>   5
Atom  99H    basis set group =>   5
Atom 100H    basis set group =>   5
Atom 101H    basis set group =>   5
Atom 102H    basis set group =>   5
Atom 103H    basis set group =>   5
Atom 104H    basis set group =>   5


           ************************************************************
           *        Program running with 6 parallel MPI-processes     *
           *              working on a common directory               *
           ************************************************************
------------------------------------------------------------------------------
                           ORCA GTO INTEGRAL CALCULATION
                           -- RI-GTO INTEGRALS CHOSEN --
------------------------------------------------------------------------------

                         BASIS SET STATISTICS AND STARTUP INFO

Gaussian basis set:
 # of primitive gaussian shells          ... 1018
 # of primitive gaussian functions       ... 1922
 # of contracted shells                  ...  524
 # of contracted basis functions         ... 1144
 Highest angular momentum                ...    2
 Maximum contraction depth               ...    5
Auxiliary gaussian basis set:
 # of primitive gaussian shells          ... 1924
 # of primitive gaussian functions       ... 5326
 # of contracted shells                  ... 1203
 # of contracted aux-basis functions     ... 3709
 Highest angular momentum                ...    4
 Maximum contraction depth               ...    7
Ratio of auxiliary to basis functions    ...  3.24
Integral package used                  ... LIBINT
 One Electron integrals                  ... done
 Ordering auxiliary basis shells         ... done
 Integral threshhold             Thresh  ...  2.500e-11
 Primitive cut-off               TCut    ...  2.500e-12
 Pre-screening matrix                    ... done
 Shell pair data                         ... 
 Ordering of the shell pairs             ... done (   0.008 sec) 47664 of 137550 pairs
 Determination of significant pairs      ... done (   0.000 sec)
 Creation of shell pair data             ... done (   0.007 sec)
 Storage of shell pair data              ... done (   0.009 sec)
 Shell pair data done in (   0.025 sec)
 Computing two index integrals           ... done
 Cholesky decomposition of the V-matrix  ... done


Timings:
 Total evaluation time                   ...   2.245 sec (  0.037 min)
 One electron matrix time                ...   0.634 sec (  0.011 min) = 28.2%
 Schwartz matrix evaluation time         ...   0.606 sec (  0.010 min) = 27.0%
 Two index repulsion integral time       ...   0.352 sec (  0.006 min) = 15.7%
 Cholesky decomposition of V             ...   0.614 sec (  0.010 min) = 27.3%
 Three index repulsion integral time     ...   0.000 sec (  0.000 min) =  0.0%



           ************************************************************
           *        Program running with 6 parallel MPI-processes     *
           *              working on a common directory               *
           ************************************************************
-------------------------------------------------------------------------------
                                 ORCA SCF
-------------------------------------------------------------------------------

------------
SCF SETTINGS
------------
Hamiltonian:
 Density Functional     Method          .... DFT(GTOs)
 Exchange Functional    Exchange        .... WB88
 Correlation Functional Correlation     .... LYP
 LDA part of GGA corr.  LDAOpt          .... VWN-5
 Gradients option       PostSCFGGA      .... off
 Hybrid DFT is turned on
   Fraction HF Exchange ScalHFX         ....  0.190000
   Scaling of DF-GGA-X  ScalDFX         ....  0.350000
   Scaling of DF-GGA-C  ScalDFC         ....  0.810000
   Scaling of DF-LDA-C  ScalLDAC        ....  1.000000
   Perturbative correction              ....  0.000000
   Density functional embedding theory  .... OFF
 Long-range corrected/Screened/Range-Separated Hybrid DFT is turned on
   Amount of maximum screened exact exchange              ....  0.460000
   Range separation parameter mu (erf(mu*r12)/r12)        ....  0.330000
 RI-approximation to the Coulomb term is turned on
   Number of auxiliary basis functions  .... 3709
   RIJ-COSX (HFX calculated with COS-X)).... on


General Settings:
 Integral files         IntName         .... xtbopt
 Hartree-Fock type      HFTyp           .... RHF
 Total Charge           Charge          ....    0
 Multiplicity           Mult            ....    1
 Number of Electrons    NEL             ....  494
 Basis Dimension        Dim             .... 1144
 Nuclear Repulsion      ENuc            ....   9928.4584541160 Eh

Convergence Acceleration:
 DIIS                   CNVDIIS         .... on
   Start iteration      DIISMaxIt       ....    12
   Startup error        DIISStart       ....  0.200000
   # of expansion vecs  DIISMaxEq       ....     5
   Bias factor          DIISBfac        ....   1.050
   Max. coefficient     DIISMaxC        ....  10.000
 Newton-Raphson         CNVNR           .... off
 SOSCF                  CNVSOSCF        .... on
   Start iteration      SOSCFMaxIt      ....   150
   Startup grad/error   SOSCFStart      ....  0.003300
 Level Shifting         CNVShift        .... on
   Level shift para.    LevelShift      ....    0.2500
   Turn off err/grad.   ShiftErr        ....    0.0010
 Zerner damping         CNVZerner       .... off
 Static damping         CNVDamp         .... on
   Fraction old density DampFac         ....    0.7000
   Max. Damping (<1)    DampMax         ....    0.9800
   Min. Damping (>=0)   DampMin         ....    0.0000
   Turn off err/grad.   DampErr         ....    0.1000
 Fernandez-Rico         CNVRico         .... off

SCF Procedure:
 Maximum # iterations   MaxIter         ....   125
 SCF integral mode      SCFMode         .... Direct
   Integral package                     .... LIBINT
 Reset frequency        DirectResetFreq ....    20
 Integral Threshold     Thresh          ....  2.500e-11 Eh
 Primitive CutOff       TCut            ....  2.500e-12 Eh

Convergence Tolerance:
 Convergence Check Mode ConvCheckMode   .... Total+1el-Energy
 Convergence forced     ConvForced      .... 1
 Energy Change          TolE            ....  1.000e-08 Eh
 1-El. energy change                    ....  1.000e-05 Eh
 Orbital Gradient       TolG            ....  1.000e-05
 Orbital Rotation angle TolX            ....  1.000e-05
 DIIS Error             TolErr          ....  5.000e-07


Diagonalization of the overlap matrix:
Smallest eigenvalue                        ... 1.126e-04
Time for diagonalization                   ...    0.182 sec
Threshold for overlap eigenvalues          ... 1.000e-08
Number of eigenvalues below threshold      ... 0
Time for construction of square roots      ...    0.130 sec
Total time needed                          ...    0.315 sec

-------------------
DFT GRID GENERATION
-------------------

General Integration Accuracy     IntAcc      ...  4.670
Radial Grid Type                 RadialGrid  ... Gauss-Chebyshev
Angular Grid (max. acc.)         AngularGrid ... Lebedev-302
Angular grid pruning method      GridPruning ... 3 (G Style)
Weight generation scheme         WeightScheme... Becke
Basis function cutoff            BFCut       ...    1.0000e-11
Integration weight cutoff        WCut        ...    1.0000e-14
Grids for H and He will be reduced by one unit

# of grid points (after initial pruning)     ... 547712 (   0.0 sec)
# of grid points (after weights+screening)   ... 466340 (   4.1 sec)
nearest neighbour list constructed           ...    0.0 sec
Grid point re-assignment to atoms done       ...    0.1 sec
Grid point division into batches done        ...    1.3 sec
Reduced shell lists constructed in    2.5 sec

Total number of grid points                  ...   466340
Total number of batches                      ...     7342
Average number of points per batch           ...       63
Average number of grid points per atom       ...     4441
Average number of shells per batch           ...   119.20 (22.75%)
Average number of basis functions per batch  ...   242.49 (21.20%)
Average number of large shells per batch     ...    70.53 (59.17%)
Average number of large basis fcns per batch ...   146.81 (60.54%)
Maximum spatial batch extension              ...  18.57, 19.45, 15.08 au
Average spatial batch extension              ...   0.28,  0.25,  0.24 au

Time for grid setup =    6.784 sec

------------------------------
INITIAL GUESS: MODEL POTENTIAL
------------------------------
Loading Hartree-Fock densities                     ... done
Calculating cut-offs                               ... done
Setting up the integral package                    ... done
Initializing the effective Hamiltonian             ... done
Starting the Coulomb interaction                   ... done (   1.3 sec)
Reading the grid                                   ... done
Mapping shells                                     ... done
Starting the XC term evaluation                    ... done (   1.4 sec)
  promolecular density results
     # of electrons  =    493.979933685
     EX              =   -454.209730050
     EC              =    -17.125867669
     EX+EC           =   -471.335597719
Transforming the Hamiltonian                       ... done (   0.1 sec)
Diagonalizing the Hamiltonian                      ... done (   0.2 sec)
Back transforming the eigenvectors                 ... done (   0.0 sec)
Now organizing SCF variables                       ... done
                      ------------------
                      INITIAL GUESS DONE (   9.9 sec)
                      ------------------
--------------------
COSX GRID GENERATION
--------------------

General Integration Accuracy     IntAcc      ...  3.340
Radial Grid Type                 RadialGrid  ... Gauss-Chebyshev
Angular Grid (max. acc.)         AngularGrid ... Lebedev-50
Angular grid pruning method      GridPruning ... 3 (G Style)
Weight generation scheme         WeightScheme... Becke
Basis function cutoff            BFCut       ...    1.0000e-11
Integration weight cutoff        WCut        ...    1.0000e-14
Grids for H and He will be reduced by one unit

# of grid points (after initial pruning)     ...  51440 (   0.0 sec)
# of grid points (after weights+screening)   ...  45863 (   0.4 sec)
nearest neighbour list constructed           ...    0.0 sec
Grid point re-assignment to atoms done       ...    0.0 sec
Grid point division into batches done        ...    0.0 sec
Reduced shell lists constructed in    0.2 sec

Total number of grid points                  ...    45863
Total number of batches                      ...      776
Average number of points per batch           ...       59
Average number of grid points per atom       ...      437
Average number of shells per batch           ...   138.63 (26.46%)
Average number of basis functions per batch  ...   284.17 (24.84%)
Average number of large shells per batch     ...    81.01 (58.44%)
Average number of large basis fcns per batch ...   170.17 (59.88%)
Maximum spatial batch extension              ...  16.16,  7.70, 11.01 au
Average spatial batch extension              ...   0.59,  0.45,  0.48 au

Overlap Fitting                  UseSFitting ... on
Constructing numerical overlap ... done (      0.1 sec)
Inverting numerical overlap    ... done (      0.0 sec)
Obtaining analytic overlap     ... done (      0.0 sec)
Final contraction and storage  ... done (      0.1 sec)


General Integration Accuracy     IntAcc      ...  3.670
Radial Grid Type                 RadialGrid  ... Gauss-Chebyshev
Angular Grid (max. acc.)         AngularGrid ... Lebedev-50
Angular grid pruning method      GridPruning ... 3 (G Style)
Weight generation scheme         WeightScheme... Becke
Basis function cutoff            BFCut       ...    1.0000e-11
Integration weight cutoff        WCut        ...    1.0000e-14
Grids for H and He will be reduced by one unit

# of grid points (after initial pruning)     ...  64622 (   0.0 sec)
# of grid points (after weights+screening)   ...  57345 (   0.5 sec)
nearest neighbour list constructed           ...    0.0 sec
Grid point re-assignment to atoms done       ...    0.0 sec
Grid point division into batches done        ...    0.0 sec
Reduced shell lists constructed in    0.2 sec

Total number of grid points                  ...    57345
Total number of batches                      ...      947
Average number of points per batch           ...       60
Average number of grid points per atom       ...      546
Average number of shells per batch           ...   137.00 (26.15%)
Average number of basis functions per batch  ...   280.62 (24.53%)
Average number of large shells per batch     ...    80.02 (58.41%)
Average number of large basis fcns per batch ...   168.42 (60.02%)
Maximum spatial batch extension              ...  17.32,  9.93, 12.02 au
Average spatial batch extension              ...   0.57,  0.46,  0.46 au

Overlap Fitting                  UseSFitting ... on
Constructing numerical overlap ... done (      0.1 sec)
Inverting numerical overlap    ... done (      0.0 sec)
Obtaining analytic overlap     ... done (      0.0 sec)
Final contraction and storage  ... done (      0.1 sec)


General Integration Accuracy     IntAcc      ...  4.010
Radial Grid Type                 RadialGrid  ... Gauss-Chebyshev
Angular Grid (max. acc.)         AngularGrid ... Lebedev-110
Angular grid pruning method      GridPruning ... 3 (G Style)
Weight generation scheme         WeightScheme... Becke
Basis function cutoff            BFCut       ...    1.0000e-11
Integration weight cutoff        WCut        ...    1.0000e-14
Grids for H and He will be reduced by one unit

# of grid points (after initial pruning)     ... 124212 (   0.0 sec)
# of grid points (after weights+screening)   ... 109070 (   1.0 sec)
nearest neighbour list constructed           ...    0.0 sec
Grid point re-assignment to atoms done       ...    0.0 sec
Grid point division into batches done        ...    0.1 sec
Reduced shell lists constructed in    0.4 sec

Total number of grid points                  ...   109070
Total number of batches                      ...     1751
Average number of points per batch           ...       62
Average number of grid points per atom       ...     1039
Average number of shells per batch           ...   132.07 (25.20%)
Average number of basis functions per batch  ...   270.27 (23.62%)
Average number of large shells per batch     ...    78.07 (59.11%)
Average number of large basis fcns per batch ...   163.36 (60.44%)
Maximum spatial batch extension              ...  17.76, 14.17, 13.26 au
Average spatial batch extension              ...   0.48,  0.38,  0.39 au

Overlap Fitting                  UseSFitting ... on
Constructing numerical overlap ... done (      0.1 sec)
Inverting numerical overlap    ... done (      0.0 sec)
Obtaining analytic overlap     ... done (      0.0 sec)
Final contraction and storage  ... done (      0.1 sec)

Time for X-Grid setup             =    3.466 sec
--------------
SCF ITERATIONS
--------------
ITER       Energy         Delta-E        Max-DP      RMS-DP      [F,P]     Damp
               ***  Starting incremental Fock matrix formation  ***
  0  -4259.5737405849   0.000000000000 0.07595871  0.00099131  0.2391764 0.7000
  1  -4260.1171909296  -0.543450344707 0.05280963  0.00071425  0.1044573 0.7000
                               ***Turning on DIIS***
  2  -4260.3675820275  -0.250391097890 0.11433535  0.00127330  0.0439836 0.0000
  3  -4260.7596747211  -0.392092693619 0.06230227  0.00054921  0.0580284 0.0000
  4  -4260.8384927497  -0.078818028540 0.01134347  0.00015265  0.0094729 0.0000
  5  -4260.8424547772  -0.003962027569 0.00923775  0.00007253  0.0100431 0.0000
                      *** Initiating the SOSCF procedure ***
                           *** Shutting down DIIS ***
                      *** Re-Reading the Fockian *** 
                      *** Removing any level shift *** 
ITER      Energy       Delta-E        Grad      Rot      Max-DP    RMS-DP
  6  -4260.84365715  -0.0012023752  0.002835  0.002835  0.002596  0.000038
               *** Restarting incremental Fock matrix formation ***
  7  -4260.84405741  -0.0004002617  0.002222  0.016522  0.003772  0.000049
  8  -4260.84447101  -0.0004135946  0.000876  0.020148  0.005387  0.000071
  9  -4260.84452848  -0.0000574754  0.000791  0.005172  0.002174  0.000025
 10  -4260.84463703  -0.0001085482  0.000155  0.002094  0.001548  0.000010
 11  -4260.84463794  -0.0000009096  0.000212  0.001018  0.000435  0.000005
 12  -4260.84464366  -0.0000057166  0.000043  0.000452  0.000501  0.000003
 13  -4260.84464379  -0.0000001354  0.000045  0.000140  0.000176  0.000001
 14  -4260.84464407  -0.0000002760  0.000012  0.000096  0.000150  0.000001
 15  -4260.84464407  -0.0000000009  0.000009  0.000030  0.000066  0.000000
 16  -4260.84464409  -0.0000000169  0.000003  0.000034  0.000030  0.000000
                  ***Gradient check signals convergence***
              ***Rediagonalizing the Fockian in SOSCF/NRSCF***

               *****************************************************
               *                     SUCCESS                       *
               *           SCF CONVERGED AFTER  17 CYCLES          *
               *****************************************************

Setting up the final grid:

General Integration Accuracy     IntAcc      ...  5.010
Radial Grid Type                 RadialGrid  ... Gauss-Chebyshev
Angular Grid (max. acc.)         AngularGrid ... Lebedev-434
Angular grid pruning method      GridPruning ... 3 (G Style)
Weight generation scheme         WeightScheme... Becke
Basis function cutoff            BFCut       ...    1.0000e-11
Integration weight cutoff        WCut        ...    1.0000e-14
Grids for H and He will be reduced by one unit

# of grid points (after initial pruning)     ... 975158 (   0.0 sec)
# of grid points (after weights+screening)   ... 827862 (   7.1 sec)
nearest neighbour list constructed           ...    0.0 sec
Grid point re-assignment to atoms done       ...    0.1 sec
Grid point division into batches done        ...    4.4 sec
Reduced shell lists constructed in    6.4 sec

Total number of grid points                  ...   827862
Total number of batches                      ...    12983
Average number of points per batch           ...       63
Average number of grid points per atom       ...     7884
Average number of shells per batch           ...   115.30 (22.00%)
Average number of basis functions per batch  ...   234.23 (20.47%)
Average number of large shells per batch     ...    68.11 (59.07%)
Average number of large basis fcns per batch ...   141.53 (60.43%)
Maximum spatial batch extension              ...  23.51, 19.98, 16.53 au
Average spatial batch extension              ...   0.22,  0.21,  0.20 au

Final grid set up in   13.7 sec
Final integration                            ... done (   2.8 sec)
Change in XC energy                          ...    -0.000057125
Integrated number of electrons               ...   493.999868908
Previous integrated no of electrons          ...   493.999398101
Old exchange energy                            =   -126.334009908 Eh
New exchange energy                            =   -126.332377869 Eh
Exchange energy change after final integration =      0.001632039 Eh
Total energy after final integration           =  -4260.843069187 Eh
Final COS-X integration done in                =    57.195 sec

----------------
TOTAL SCF ENERGY
----------------

Total Energy       :        -4260.84306919 Eh         -115943.43436 eV

Components:
Nuclear Repulsion  :         9928.45845412 Eh          270167.08957 eV
Electronic Energy  :       -14189.30152330 Eh         -386110.52393 eV
One Electron Energy:       -25604.99684871 Eh         -696747.38621 eV
Two Electron Energy:        11415.69532540 Eh          310636.86228 eV

Virial components:
Potential Energy   :        -8492.70310667 Eh         -231098.20034 eV
Kinetic Energy     :         4231.86003748 Eh          115154.76598 eV
Virial Ratio       :            2.00684877


DFT components:
N(Alpha)           :      246.999934453867 electrons
N(Beta)            :      246.999934453867 electrons
N(Total)           :      493.999868907735 electrons
E(XC)              :     -352.975400102187 Eh       
DFET-embed. en.    :        0.000000000000 Eh       

---------------
SCF CONVERGENCE
---------------

  Last Energy change         ...   -1.3199e-08  Tolerance :   1.0000e-08
  Last MAX-Density change    ...    9.7700e-15  Tolerance :   1.0000e-07
  Last RMS-Density change    ...    3.5128e-17  Tolerance :   5.0000e-09
  Last Orbital Gradient      ...    2.2045e-06  Tolerance :   1.0000e-05
  Last Orbital Rotation      ...    1.0309e-05  Tolerance :   1.0000e-05

             **** THE GBW FILE WAS UPDATED (xtbopt.gbw) ****
             **** DENSITY FILE WAS UPDATED (xtbopt.scfp) ****
             **** ENERGY FILE WAS UPDATED (xtbopt.en.tmp) ****
             **** THE GBW FILE WAS UPDATED (xtbopt.gbw) ****
             **** DENSITY FILE WAS UPDATED (xtbopt.scfp) ****
----------------
ORBITAL ENERGIES
----------------

  NO   OCC          E(Eh)            E(eV) 
   0   2.0000     -88.971381     -2421.0344 
   1   2.0000     -88.959574     -2420.7131 
   2   2.0000     -88.938433     -2420.1378 
   3   2.0000     -88.920210     -2419.6419 
   4   2.0000     -19.195530      -522.3369 
   5   2.0000     -19.191924      -522.2388 
   6   2.0000     -19.179024      -521.8878 
   7   2.0000     -19.171991      -521.6964 
   8   2.0000     -14.440141      -392.9362 
   9   2.0000     -14.438994      -392.9050 
  10   2.0000     -14.433849      -392.7650 
  11   2.0000     -14.431693      -392.7063 
  12   2.0000     -14.431074      -392.6895 
  13   2.0000     -14.425392      -392.5349 
  14   2.0000     -10.360085      -281.9122 
  15   2.0000     -10.355391      -281.7845 
  16   2.0000     -10.351032      -281.6659 
  17   2.0000     -10.349726      -281.6304 
  18   2.0000     -10.328674      -281.0575 
  19   2.0000     -10.328289      -281.0470 
  20   2.0000     -10.325902      -280.9821 
  21   2.0000     -10.325057      -280.9591 
  22   2.0000     -10.323919      -280.9281 
  23   2.0000     -10.323841      -280.9260 
  24   2.0000     -10.323161      -280.9075 
  25   2.0000     -10.322302      -280.8841 
  26   2.0000     -10.321831      -280.8713 
  27   2.0000     -10.321229      -280.8549 
  28   2.0000     -10.314780      -280.6794 
  29   2.0000     -10.305009      -280.4135 
  30   2.0000     -10.303685      -280.3775 
  31   2.0000     -10.301628      -280.3216 
  32   2.0000     -10.299487      -280.2633 
  33   2.0000     -10.298569      -280.2383 
  34   2.0000     -10.298290      -280.2307 
  35   2.0000     -10.297187      -280.2007 
  36   2.0000     -10.294005      -280.1141 
  37   2.0000     -10.288713      -279.9701 
  38   2.0000     -10.284929      -279.8671 
  39   2.0000     -10.281349      -279.7697 
  40   2.0000     -10.280481      -279.7461 
  41   2.0000     -10.280401      -279.7439 
  42   2.0000     -10.279629      -279.7229 
  43   2.0000     -10.278889      -279.7028 
  44   2.0000     -10.278530      -279.6930 
  45   2.0000     -10.278496      -279.6921 
  46   2.0000     -10.274901      -279.5943 
  47   2.0000     -10.273538      -279.5572 
  48   2.0000     -10.273199      -279.5480 
  49   2.0000     -10.273034      -279.5435 
  50   2.0000     -10.271565      -279.5035 
  51   2.0000     -10.270278      -279.4685 
  52   2.0000     -10.269986      -279.4605 
  53   2.0000     -10.269917      -279.4586 
  54   2.0000     -10.268835      -279.4292 
  55   2.0000     -10.267005      -279.3794 
  56   2.0000     -10.266176      -279.3568 
  57   2.0000     -10.266077      -279.3542 
  58   2.0000     -10.262479      -279.2563 
  59   2.0000     -10.262113      -279.2463 
  60   2.0000     -10.262002      -279.2433 
  61   2.0000     -10.261826      -279.2385 
  62   2.0000     -10.254719      -279.0451 
  63   2.0000     -10.251479      -278.9569 
  64   2.0000     -10.251396      -278.9547 
  65   2.0000     -10.245473      -278.7935 
  66   2.0000     -10.241912      -278.6966 
  67   2.0000      -8.066426      -219.4986 
  68   2.0000      -8.054469      -219.1732 
  69   2.0000      -8.032234      -218.5682 
  70   2.0000      -8.013284      -218.0526 
  71   2.0000      -6.035597      -164.2369 
  72   2.0000      -6.031156      -164.1161 
  73   2.0000      -6.029184      -164.0624 
  74   2.0000      -6.023298      -163.9023 
  75   2.0000      -6.019330      -163.7943 
  76   2.0000      -6.017432      -163.7427 
  77   2.0000      -6.001963      -163.3217 
  78   2.0000      -5.997111      -163.1897 
  79   2.0000      -5.994226      -163.1112 
  80   2.0000      -5.983680      -162.8242 
  81   2.0000      -5.979420      -162.7083 
  82   2.0000      -5.973478      -162.5466 
  83   2.0000      -1.120101       -30.4795 
  84   2.0000      -1.111525       -30.2461 
  85   2.0000      -1.110752       -30.2251 
  86   2.0000      -1.107379       -30.1333 
  87   2.0000      -1.092791       -29.7364 
  88   2.0000      -1.084295       -29.5052 
  89   2.0000      -1.048901       -28.5421 
  90   2.0000      -1.041264       -28.3342 
  91   2.0000      -1.017046       -27.6752 
  92   2.0000      -1.007760       -27.4225 
  93   2.0000      -0.992776       -27.0148 
  94   2.0000      -0.990143       -26.9431 
  95   2.0000      -0.974102       -26.5067 
  96   2.0000      -0.953199       -25.9379 
  97   2.0000      -0.948860       -25.8198 
  98   2.0000      -0.941898       -25.6303 
  99   2.0000      -0.915827       -24.9209 
 100   2.0000      -0.907402       -24.6917 
 101   2.0000      -0.892899       -24.2970 
 102   2.0000      -0.890211       -24.2239 
 103   2.0000      -0.873954       -23.7815 
 104   2.0000      -0.873662       -23.7736 
 105   2.0000      -0.869789       -23.6682 
 106   2.0000      -0.864260       -23.5177 
 107   2.0000      -0.862637       -23.4736 
 108   2.0000      -0.859434       -23.3864 
 109   2.0000      -0.851043       -23.1581 
 110   2.0000      -0.849153       -23.1066 
 111   2.0000      -0.832915       -22.6648 
 112   2.0000      -0.829302       -22.5665 
 113   2.0000      -0.809825       -22.0365 
 114   2.0000      -0.808546       -22.0017 
 115   2.0000      -0.808400       -21.9977 
 116   2.0000      -0.797031       -21.6883 
 117   2.0000      -0.796411       -21.6715 
 118   2.0000      -0.779350       -21.2072 
 119   2.0000      -0.772291       -21.0151 
 120   2.0000      -0.770131       -20.9563 
 121   2.0000      -0.762505       -20.7488 
 122   2.0000      -0.751104       -20.4386 
 123   2.0000      -0.749006       -20.3815 
 124   2.0000      -0.736612       -20.0442 
 125   2.0000      -0.729028       -19.8379 
 126   2.0000      -0.726618       -19.7723 
 127   2.0000      -0.717233       -19.5169 
 128   2.0000      -0.707164       -19.2429 
 129   2.0000      -0.699356       -19.0304 
 130   2.0000      -0.698746       -19.0138 
 131   2.0000      -0.694803       -18.9066 
 132   2.0000      -0.688170       -18.7261 
 133   2.0000      -0.677187       -18.4272 
 134   2.0000      -0.664412       -18.0796 
 135   2.0000      -0.662692       -18.0328 
 136   2.0000      -0.660726       -17.9793 
 137   2.0000      -0.658914       -17.9300 
 138   2.0000      -0.650462       -17.7000 
 139   2.0000      -0.648379       -17.6433 
 140   2.0000      -0.643328       -17.5059 
 141   2.0000      -0.637768       -17.3545 
 142   2.0000      -0.631739       -17.1905 
 143   2.0000      -0.612359       -16.6631 
 144   2.0000      -0.606028       -16.4909 
 145   2.0000      -0.605980       -16.4896 
 146   2.0000      -0.599721       -16.3192 
 147   2.0000      -0.597365       -16.2551 
 148   2.0000      -0.591590       -16.0980 
 149   2.0000      -0.582166       -15.8415 
 150   2.0000      -0.580890       -15.8068 
 151   2.0000      -0.574550       -15.6343 
 152   2.0000      -0.571927       -15.5629 
 153   2.0000      -0.568768       -15.4770 
 154   2.0000      -0.562755       -15.3133 
 155   2.0000      -0.561277       -15.2731 
 156   2.0000      -0.557672       -15.1750 
 157   2.0000      -0.554128       -15.0786 
 158   2.0000      -0.551929       -15.0188 
 159   2.0000      -0.549633       -14.9563 
 160   2.0000      -0.547761       -14.9053 
 161   2.0000      -0.541326       -14.7302 
 162   2.0000      -0.530670       -14.4403 
 163   2.0000      -0.528131       -14.3712 
 164   2.0000      -0.526351       -14.3227 
 165   2.0000      -0.523900       -14.2560 
 166   2.0000      -0.522960       -14.2305 
 167   2.0000      -0.521586       -14.1931 
 168   2.0000      -0.520110       -14.1529 
 169   2.0000      -0.518738       -14.1156 
 170   2.0000      -0.516349       -14.0506 
 171   2.0000      -0.515825       -14.0363 
 172   2.0000      -0.512332       -13.9412 
 173   2.0000      -0.508832       -13.8460 
 174   2.0000      -0.504232       -13.7208 
 175   2.0000      -0.502729       -13.6799 
 176   2.0000      -0.501116       -13.6361 
 177   2.0000      -0.500866       -13.6293 
 178   2.0000      -0.499097       -13.5811 
 179   2.0000      -0.498300       -13.5594 
 180   2.0000      -0.496213       -13.5026 
 181   2.0000      -0.493764       -13.4360 
 182   2.0000      -0.490738       -13.3537 
 183   2.0000      -0.487958       -13.2780 
 184   2.0000      -0.486326       -13.2336 
 185   2.0000      -0.483497       -13.1566 
 186   2.0000      -0.482532       -13.1304 
 187   2.0000      -0.479471       -13.0471 
 188   2.0000      -0.477096       -12.9824 
 189   2.0000      -0.475892       -12.9497 
 190   2.0000      -0.468296       -12.7430 
 191   2.0000      -0.467277       -12.7153 
 192   2.0000      -0.463582       -12.6147 
 193   2.0000      -0.460068       -12.5191 
 194   2.0000      -0.456949       -12.4342 
 195   2.0000      -0.456394       -12.4191 
 196   2.0000      -0.454425       -12.3655 
 197   2.0000      -0.453342       -12.3361 
 198   2.0000      -0.452047       -12.3008 
 199   2.0000      -0.448627       -12.2078 
 200   2.0000      -0.447274       -12.1709 
 201   2.0000      -0.445514       -12.1231 
 202   2.0000      -0.440037       -11.9740 
 203   2.0000      -0.439304       -11.9541 
 204   2.0000      -0.439074       -11.9478 
 205   2.0000      -0.430752       -11.7214 
 206   2.0000      -0.429151       -11.6778 
 207   2.0000      -0.427092       -11.6218 
 208   2.0000      -0.424165       -11.5421 
 209   2.0000      -0.423384       -11.5209 
 210   2.0000      -0.422406       -11.4943 
 211   2.0000      -0.419775       -11.4226 
 212   2.0000      -0.418589       -11.3904 
 213   2.0000      -0.415769       -11.3137 
 214   2.0000      -0.415364       -11.3026 
 215   2.0000      -0.413845       -11.2613 
 216   2.0000      -0.411006       -11.1840 
 217   2.0000      -0.408442       -11.1143 
 218   2.0000      -0.406395       -11.0586 
 219   2.0000      -0.403660       -10.9842 
 220   2.0000      -0.402147       -10.9430 
 221   2.0000      -0.393234       -10.7004 
 222   2.0000      -0.389043       -10.5864 
 223   2.0000      -0.366660        -9.9773 
 224   2.0000      -0.362708        -9.8698 
 225   2.0000      -0.357706        -9.7337 
 226   2.0000      -0.350663        -9.5420 
 227   2.0000      -0.347492        -9.4557 
 228   2.0000      -0.335709        -9.1351 
 229   2.0000      -0.335347        -9.1253 
 230   2.0000      -0.329854        -8.9758 
 231   2.0000      -0.327743        -8.9183 
[...]
  34   4.389     282.5   0.034756   0.029818  45.141015  46.779236     0.14 (  87->  96)    0.10 (  87->  97)    0.09 (  95-> 104)
  35   4.405     281.5   0.008466   0.007594  34.218956  26.383746     0.19 (  72->  96)    0.16 (  95-> 104)    0.12 (  75->  96)
  36   4.423     280.3   0.301903   0.263355  69.185634  40.767817     0.14 (  95-> 104)    0.13 (  94-> 100)    0.13 (  72->  96)
  37   4.437     279.4   0.193914   0.176437  41.817650  41.268716     0.16 (  72->  96)    0.13 (  93-> 100)    0.13 (  94-> 100)
  38   4.474     277.1   0.012803   0.013583  -27.154408  -29.939573     0.29 (  93->  98)    0.13 (  95-> 105)    0.06 (  93->  99)
  39   4.500     275.5   0.044616   0.037746  -48.583307  -37.135198     0.13 (  82->  96)    0.08 (  87->  98)    0.06 (  82->  97)
  40   4.554     272.2   0.014597   0.015301  -4.926830  -8.499652     0.37 (  86->  97)    0.17 (  86->  96)    0.08 (  86->  98)
  41   4.581     270.6   0.014031   0.010913  -8.296934  -6.154294     0.18 (  94-> 102)    0.17 (  95-> 105)    0.17 (  93->  98)
  42   4.669     265.5   0.024507   0.023580  -16.081609  -14.792946     0.17 (  85->  97)    0.10 (  88->  98)    0.08 (  88->  96)
  43   4.681     264.9   0.013676   0.013304  -2.146763  -1.316603     0.17 (  85->  97)    0.06 (  88->  98)    0.06 (  88->  96)
  44   4.700     263.8   0.006616   0.004609   5.630544   4.274883     0.23 (  75->  96)    0.09 (  92-> 101)    0.07 (  92-> 100)
  45   4.701     263.8   0.006904   0.005818  -12.423405  -12.790392     0.11 (  80->  96)    0.09 (  80->  97)    0.08 (  79->  96)
  46   4.738     261.7   0.061052   0.052969   9.631627   6.105989     0.25 (  89->  96)    0.24 (  89->  98)    0.07 (  89->  99)
  47   4.794     258.6   0.039642   0.031812  17.197447   7.338182     0.10 (  79->  96)    0.07 (  89->  98)    0.07 (  89->  96)
  48   4.813     257.6   0.007520   0.005698   8.957612   3.118652     0.15 (  91->  98)    0.14 (  90->  98)    0.08 (  87->  98)
  49   4.821     257.2   0.029321   0.030486  15.735022  17.324991     0.29 (  94-> 103)    0.23 (  76->  96)    0.04 (  90->  98)
  50   4.855     255.4   0.017070   0.015775  -4.316307  -4.718197     0.23 (  94-> 103)    0.17 (  76->  96)    0.07 (  92-> 100)
  51   4.870     254.6   0.006341   0.004366  36.924071  32.100830     0.16 (  95-> 106)    0.08 (  82->  96)    0.06 (  87->  96)
  52   4.900     253.0   0.116200   0.100539  -0.612147  -4.153136     0.16 (  75->  96)    0.13 (  92-> 101)    0.12 (  93-> 101)
  53   4.912     252.4   0.003156   0.002454   2.441724   1.340853     0.12 (  95-> 106)    0.12 (  76->  96)    0.12 (  75->  96)
  54   4.932     251.4   0.046536   0.039903  305.780237  298.516976     0.10 (  84->  96)    0.09 (  92-> 100)    0.06 (  93-> 100)
  55   4.940     251.0   0.112389   0.095925  -358.519005  -347.096010     0.11 (  92-> 100)    0.09 (  94-> 103)    0.08 (  93-> 100)
  56   4.959     250.0   0.005834   0.004070  12.165409   6.920218     0.21 (  83->  97)    0.10 (  85->  97)    0.09 (  95-> 106)
  57   4.998     248.1   0.022795   0.020048  -13.899866  -7.518856     0.09 (  82->  96)    0.07 (  83->  97)    0.07 (  95-> 106)

-----------------------------------------------------------------------------
         ABSORPTION SPECTRUM VIA TRANSITION ELECTRIC DIPOLE MOMENTS
-----------------------------------------------------------------------------
State   Energy  Wavelength   fosc         T2         TX        TY        TZ  
        (cm-1)    (nm)                  (au**2)     (au)      (au)      (au) 
-----------------------------------------------------------------------------
   0    9538.7   1048.4   0.908626498  31.35967  -0.70294  -0.29250   5.54797
   1   14417.7    693.6   0.330502470   7.54667   0.55005  -2.34335  -1.32394
   2   16555.3    604.0   0.154436576   3.07107  -0.08155  -0.81430   1.54962
   3   19157.6    522.0   0.100452210   1.72621   0.11325   0.35546  -1.25978
   4   19866.6    503.4   0.026338556   0.43646   0.52504  -0.15940  -0.36795
   5   22304.6    448.3   0.004577604   0.06756  -0.11147  -0.19650   0.12855
   6   23325.4    428.7   0.158936425   2.24321  -0.30529  -1.40665   0.41393
   7   24161.0    413.9   0.013299907   0.18122   0.12406  -0.12117  -0.38878
   8   24286.0    411.8   0.013502557   0.18304   0.24399   0.07631   0.34304
   9   25439.8    393.1   0.002037613   0.02637  -0.10585  -0.11986   0.02827
  10   25883.2    386.4   0.007028837   0.08940   0.08434  -0.28686  -0.00022
  11   26107.0    383.0   0.007976212   0.10058  -0.06737  -0.29161   0.10492
  12   26368.5    379.2   0.113394104   1.41573  -0.15473   1.15722  -0.22943
  13   26784.5    373.3   0.043731304   0.53751   0.06543  -0.71695  -0.13859
  14   27967.9    357.6   0.043211188   0.50864  -0.25783   0.46054   0.47966
  15   28612.7    349.5   0.019917129   0.22916  -0.10770   0.10500  -0.45447
  16   28642.1    349.1   0.012848607   0.14768  -0.13128  -0.32602  -0.15543
  17   28966.9    345.2   0.008591535   0.09764  -0.23848  -0.16473  -0.11676
  18   29249.5    341.9   0.020302053   0.22851  -0.23636  -0.18770   0.37068
  19   30441.9    328.5   0.344267090   3.72306   0.00041   1.50662  -1.20546
  20   31559.3    316.9   0.148113676   1.54505   0.22218   0.45335  -1.13585
  21   31883.6    313.6   0.002073985   0.02141  -0.04533   0.09565   0.10105
  22   32117.4    311.4   0.003034069   0.03110  -0.11552   0.12640  -0.04217
  23   32565.9    307.1   0.033106778   0.33468   0.42370   0.00951  -0.39379
  24   33265.5    300.6   0.141740417   1.40273   0.04515   1.10247  -0.43041
  25   33394.3    299.5   0.112150813   1.10562  -0.35254   0.85884   0.49369
  26   33557.4    298.0   0.089199722   0.87509   0.20694  -0.66063  -0.62915
  27   33854.5    295.4   0.040786144   0.39662   0.06374  -0.35429  -0.51675
  28   34042.7    293.7   0.065852418   0.63683  -0.44108  -0.00504   0.66502
  29   34266.2    291.8   0.061085118   0.58688  -0.12539   0.63925  -0.40313
  30   34482.4    290.0   0.043231405   0.41274   0.02412  -0.08518  -0.63632
  31   34642.5    288.7   0.058752409   0.55833  -0.29603  -0.36319   0.58206
  32   34933.9    286.3   0.025814498   0.24327   0.06100   0.30920  -0.37940
  33   35103.2    284.9   0.129301010   1.21264   0.76092   0.02610  -0.79559
  34   35402.8    282.5   0.034755700   0.32319  -0.40058  -0.35050  -0.19970
  35   35529.1    281.5   0.008466238   0.07845   0.16248   0.19010  -0.12613
  36   35671.6    280.3   0.301903423   2.78625  -0.03064   1.60310   0.46409
  37   35785.5    279.4   0.193913517   1.78392  -0.28533   1.24125   0.40225
  38   36086.6    277.1   0.012803068   0.11680   0.15449   0.29308  -0.08390
  39   36292.3    275.5   0.044616455   0.40472  -0.52141  -0.25249   0.26287
  40   36733.8    272.2   0.014597323   0.13082  -0.22926  -0.20589  -0.18939
  41   36950.3    270.6   0.014030917   0.12501   0.21406   0.00707  -0.28132
  42   37657.8    265.5   0.024506865   0.21424   0.08852   0.31489  -0.32749
  43   37754.2    264.9   0.013676486   0.11926   0.07509  -0.33241   0.05589
  44   37910.6    263.8   0.006616351   0.05746  -0.06697  -0.15488   0.17025
  45   37914.2    263.8   0.006904029   0.05995  -0.07376  -0.21781  -0.08407
  46   38215.4    261.7   0.061052010   0.52594  -0.58998  -0.37399   0.19491
  47   38665.7    258.6   0.039642163   0.33753   0.38904   0.32851   0.27975
  48   38815.9    257.6   0.007519570   0.06378  -0.17125  -0.10601  -0.15236
  49   38884.6    257.2   0.029320928   0.24824   0.03100  -0.41628  -0.27201
  50   39160.9    255.4   0.017070318   0.14350   0.00899  -0.00567   0.37867
  51   39281.4    254.6   0.006341402   0.05315   0.08565  -0.20906  -0.04585
  52   39517.9    253.0   0.116199719   0.96802   0.33037  -0.67982  -0.62986
  53   39614.2    252.4   0.003156013   0.02623   0.06308  -0.00338  -0.14912
  54   39779.9    251.4   0.046536076   0.38513  -0.30973   0.48080  -0.24088
  55   39840.6    251.0   0.112389184   0.92870  -0.27232  -0.91715  -0.11560
  56   39994.5    250.0   0.005833515   0.04802  -0.07986  -0.08508  -0.18548
  57   40310.0    248.1   0.022794756   0.18616  -0.20947  -0.14608   0.34778

-----------------------------------------------------------------------------
         ABSORPTION SPECTRUM VIA TRANSITION VELOCITY DIPOLE MOMENTS
-----------------------------------------------------------------------------
State   Energy  Wavelength   fosc         P2         PX        PY        PZ  
        (cm-1)    (nm)                  (au**2)     (au)      (au)      (au) 
-----------------------------------------------------------------------------
   0    9538.7   1048.4   1.974169572   0.12870  -0.04110  -0.01843   0.35591
   1   14417.7    693.6   0.475610762   0.04687   0.03919  -0.19061  -0.09486
   2   16555.3    604.0   0.225385416   0.02550  -0.00830  -0.07285   0.14186
   3   19157.6    522.0   0.121652808   0.01593   0.01453   0.02943  -0.12187
   4   19866.6    503.4   0.029389024   0.00399   0.05132  -0.01314  -0.03441
   5   22304.6    448.3   0.002901645   0.00044  -0.01343  -0.01610   0.00168
   6   23325.4    428.7   0.175893351   0.02804  -0.03372  -0.15880   0.04108
   7   24161.0    413.9   0.008547385   0.00141   0.01583  -0.01100  -0.03224
   8   24286.0    411.8   0.014705452   0.00244   0.03604   0.00679   0.03310
   9   25439.8    393.1   0.002448613   0.00043  -0.01311  -0.01587   0.00142
  10   25883.2    386.4   0.006367469   0.00113   0.01103  -0.03162   0.00225
  11   26107.0    383.0   0.008511419   0.00152  -0.00877  -0.03569   0.01296
  12   26368.5    379.2   0.116747770   0.02104  -0.02092   0.14033  -0.03018
  13   26784.5    373.3   0.054995234   0.01007   0.00830  -0.09802  -0.01976
  14   27967.9    357.6   0.035589918   0.00680  -0.03219   0.04922   0.05783
  15   28612.7    349.5   0.017081433   0.00334  -0.01509   0.01604  -0.05344
  16   28642.1    349.1   0.013428724   0.00263  -0.02015  -0.03992  -0.02508
  17   28966.9    345.2   0.009341855   0.00185  -0.03047  -0.02352  -0.01919
  18   29249.5    341.9   0.022091088   0.00442  -0.03358  -0.02770   0.05021
  19   30441.9    328.5   0.313299500   0.06518  -0.00149   0.19944  -0.15938
  20   31559.3    316.9   0.141686128   0.03056   0.03063   0.05924  -0.16160
  21   31883.6    313.6   0.001809636   0.00039  -0.00574   0.01447   0.01232
  22   32117.4    311.4   0.002989195   0.00066  -0.01868   0.01727  -0.00300
  23   32565.9    307.1   0.027050965   0.00602   0.05940   0.00419  -0.04975
  24   33265.5    300.6   0.119580358   0.02719   0.00691   0.15375  -0.05916
  25   33394.3    299.5   0.095797803   0.02186  -0.05014   0.12131   0.06807
  26   33557.4    298.0   0.073905541   0.01695   0.03020  -0.09419  -0.08465
  27   33854.5    295.4   0.034330758   0.00794   0.00416  -0.05502  -0.06999
  28   34042.7    293.7   0.058294666   0.01356  -0.06270  -0.00305   0.09809
  29   34266.2    291.8   0.051898586   0.01215  -0.02048   0.09236  -0.05661
  30   34482.4    290.0   0.040791228   0.00961   0.00463  -0.01432  -0.09689
  31   34642.5    288.7   0.049760927   0.01178  -0.04461  -0.05653   0.08121
  32   34933.9    286.3   0.021382385   0.00511   0.00729   0.04440  -0.05551
  33   35103.2    284.9   0.113073637   0.02713   0.11359   0.00403  -0.11920
  34   35402.8    282.5   0.029817984   0.00721  -0.05805  -0.05220  -0.03346
  35   35529.1    281.5   0.007593792   0.00184   0.02584   0.02608  -0.02227
  36   35671.6    280.3   0.263355086   0.06421  -0.00348   0.24435   0.06698
  37   35785.5    279.4   0.176436595   0.04315  -0.04450   0.19298   0.06271
  38   36086.6    277.1   0.013582721   0.00335   0.02555   0.04925  -0.01649
  39   36292.3    275.5   0.037746240   0.00936  -0.08011  -0.04056   0.03604
  40   36733.8    272.2   0.015300903   0.00384  -0.04129  -0.03376  -0.03158
  41   36950.3    270.6   0.010913166   0.00276   0.03317   0.00226  -0.04063
  42   37657.8    265.5   0.023579847   0.00607   0.01462   0.05349  -0.05472
  43   37754.2    264.9   0.013303929   0.00343   0.01366  -0.05597   0.01065
  44   37910.6    263.8   0.004608941   0.00119  -0.01022  -0.02257   0.02409
  45   37914.2    263.8   0.005817570   0.00151  -0.01188  -0.03485  -0.01232
  46   38215.4    261.7   0.052968980   0.01383  -0.09502  -0.06140   0.03220
  47   38665.7    258.6   0.031812372   0.00841   0.06250   0.05340   0.04060
  48   38815.9    257.6   0.005697715   0.00151  -0.02682  -0.01930  -0.02048
  49   38884.6    257.2   0.030486207   0.00810   0.00612  -0.07489  -0.04955
  50   39160.9    255.4   0.015775278   0.00422   0.00098  -0.00005   0.06497
  51   39281.4    254.6   0.004365882   0.00117   0.01446  -0.03043  -0.00610
  52   39517.9    253.0   0.100539411   0.02715   0.05481  -0.11427  -0.10532
  53   39614.2    252.4   0.002454483   0.00066   0.00924  -0.00219  -0.02396
  54   39779.9    251.4   0.039903083   0.01085  -0.05489   0.08145  -0.03466
  55   39840.6    251.0   0.095924574   0.02612  -0.04555  -0.15441  -0.01417
  56   39994.5    250.0   0.004069594   0.00111  -0.01461  -0.01688  -0.02478
  57   40310.0    248.1   0.020047792   0.00552  -0.03698  -0.02866   0.05774

-------------------------------------------------------------------
                             CD SPECTRUM
-------------------------------------------------------------------
State   Energy Wavelength       R         MX        MY        MZ   
        (cm-1)   (nm)       (1e40*cgs)   (au)      (au)      (au)  
-------------------------------------------------------------------
   0    9538.7   1048.4    114.63419  -2.38735   4.91183  -0.13117
   1   14417.7    693.6    -31.48561  -0.88629  -1.78381   2.68821
   2   16555.3    604.0    -61.54762  -1.51996   1.53280   0.89396
   3   19157.6    522.0    154.33808   1.11530  -2.34455  -0.04154
   4   19866.6    503.4     84.95014  -1.03257  -1.28514   0.06279
   5   22304.6    448.3    -41.32061  -0.97036  -0.19153   0.22939
   6   23325.4    428.7    -243.61197  -1.21483   0.20936   2.31220
   7   24161.0    413.9    -11.63874   0.08234  -0.92631   0.18797
   8   24286.0    411.8      9.78550   0.25694  -0.23300  -0.25193
   9   25439.8    393.1     15.08709   0.18681   0.48522   0.49275
  10   25883.2    386.4      3.41213  -1.01363  -0.24783   0.33794
  11   26107.0    383.0    -25.06209   0.32568  -0.10741   0.92400
  12   26368.5    379.2     13.61488   1.54678  -0.19220  -1.76091
  13   26784.5    373.3     -0.81069  -1.70902  -0.38751   1.17295
  14   27967.9    357.6     16.49443   0.74709   0.91785  -0.62557
  15   28612.7    349.5    -14.51511   0.50020  -0.44083  -0.35588
  16   28642.1    349.1    -19.87669  -0.54213  -0.31911   0.58474
  17   28966.9    345.2     26.05640   0.26843  -0.15755   0.62071
  18   29249.5    341.9    -75.17614  -0.28106   0.35098   0.85887
  19   30441.9    328.5    -16.82744   2.70238  -1.92457  -2.46369
  20   31559.3    316.9      7.99131   1.15775  -2.23780  -0.63685
  21   31883.6    313.6     13.12139   0.00433   0.11220  -0.65514
  22   32117.4    311.4      4.90897   0.29310   0.08469  -0.05525
  23   32565.9    307.1     59.82313  -0.79180  -0.77060  -0.22607
  24   33265.5    300.6    -149.90355   4.24109  -0.30825  -1.82217
  25   33394.3    299.5    120.30467   1.38407   0.80267  -1.44176
  26   33557.4    298.0     87.67305  -2.85297  -1.26529   0.98135
  27   33854.5    295.4    -24.57490   0.02848  -1.69253   0.96219
  28   34042.7    293.7    -40.83127  -0.23961   1.36257   0.11187
  29   34266.2    291.8     15.96763   2.54404  -0.24776  -1.01616
  30   34482.4    290.0     -3.89585  -0.28040  -1.64453   0.18354
  31   34642.5    288.7    -98.25755  -0.24192   0.76005   1.06736
  32   34933.9    286.3    -12.97019   0.50482  -0.20503  -0.23096
  33   35103.2    284.9     82.16940  -0.74932  -2.11469  -0.34790
  34   35402.8    282.5     45.14101   0.03992  -0.04403   0.95615
  35   35529.1    281.5     34.21896   0.37644  -1.14629  -0.09181
  36   35671.6    280.3     69.18563   4.76091   0.75358  -2.92116
  37   35785.5    279.4     41.81765   4.16531   1.55770  -2.29315
  38   36086.6    277.1    -27.15441   0.65873  -0.16937  -0.75169
  39   36292.3    275.5    -48.58331   0.00978   0.35727   1.14662
  40   36733.8    272.2     -4.92683  -0.75173   0.43946   0.32189
  41   36950.3    270.6     -8.29693  -0.04061  -0.48024  -0.16809
  42   37657.8    265.5    -16.08161   0.45784  -0.63356  -0.69375
  43   37754.2    264.9     -2.14676  -1.13430  -0.20521   0.46642
  44   37910.6    263.8      5.63054  -1.08953   0.85154   0.20580
  45   37914.2    263.8    -12.42340  -0.25285  -0.46964   0.81166
  46   38215.4    261.7      9.63163   1.00446  -0.58488   1.70853
  47   38665.7    258.6     17.19745  -0.26100   1.16784  -1.26921
  48   38815.9    257.6      8.95761   0.07693  -0.60619   0.58474
  49   38884.6    257.2     15.73502  -0.75373  -0.53745   0.98199
  50   39160.9    255.4     -4.31631   0.53719   0.79843   0.04755
  51   39281.4    254.6     36.92407  -0.81157   0.39998   0.07653
  52   39517.9    253.0     -0.61215  -2.81412  -2.57865   1.30303
  53   39614.2    252.4      2.44172   0.34906  -0.57628   0.23019
  54   39779.9    251.4    305.78024   2.65713  -1.25904  -0.54441
  55   39840.6    251.0    -358.51901  -2.79970  -1.11390   2.27597
  56   39994.5    250.0     12.16541   0.09114  -0.34530   0.39741
  57   40310.0    248.1    -13.89987  -0.33810   1.06153   0.41180

sTD-DFT done

Total run time:        2.968 sec

           *** ORCA-CIS/TD-DFT FINISHED WITHOUT ERROR ***

-------------------------   --------------------
FINAL SINGLE POINT ENERGY     -4260.843069186954
-------------------------   --------------------


                            ***************************************
                            *     ORCA property calculations      *
                            ***************************************

                                    ---------------------
                                    Active property flags
                                    ---------------------
   (+) Dipole Moment


------------------------------------------------------------------------------
                       ORCA ELECTRIC PROPERTIES CALCULATION
------------------------------------------------------------------------------

Dipole Moment Calculation                       ... on
Quadrupole Moment Calculation                   ... off
Polarizability Calculation                      ... off
GBWName                                         ... xtbopt.gbw
Electron density file                           ... xtbopt.scfp
The origin for moment calculation is the CENTER OF MASS  = (15.318271,  0.706389  8.772523)

-------------
DIPOLE MOMENT
-------------
                                X             Y             Z
Electronic contribution:    -24.82073     -44.49717      40.00987
Nuclear contribution   :     24.45677      46.27930     -37.66729
                        -----------------------------------------
Total Dipole Moment    :     -0.36396       1.78213       2.34258
                        -----------------------------------------
Magnitude (a.u.)       :      2.96583
Magnitude (Debye)      :      7.53853



--------------------
Rotational spectrum 
--------------------
 
Rotational constants in cm-1:     0.001728     0.000332     0.000302 
Rotational constants in MHz :    51.807231     9.940531     9.048795 

 Dipole components along the rotational axes: 
x,y,z [a.u.] :     2.392745    -1.736356     0.236577 
x,y,z [Debye]:     6.081875    -4.413465     0.601332 

 

Timings for individual modules:

Sum of individual times         ...      587.995 sec (=   9.800 min)
GTO integral calculation        ...        3.653 sec (=   0.061 min)   0.6 %
SCF iterations                  ...      579.671 sec (=   9.661 min)  98.6 %
CIS module                      ...        4.672 sec (=   0.078 min)   0.8 %
                             ****ORCA TERMINATED NORMALLY****
TOTAL RUN TIME: 0 days 0 hours 9 minutes 48 seconds 929 msec
