
                                 *****************
                                 * O   R   C   A *
                                 *****************

           --- An Ab Initio, DFT and Semiempirical electronic structure package ---

                  #######################################################
                  #                        -***-                        #
                  #          Department of theory and spectroscopy      #
                  #               Directorship: Frank Neese             #
                  #        Max Planck Institute fuer Kohlenforschung    #
                  #                Kaiser Wilhelm Platz 1               #
                  #                 D-45470 Muelheim/Ruhr               #
                  #                      Germany                        #
                  #                                                     #
                  #                  All rights reserved                #
                  #                        -***-                        #
                  #######################################################


                         Program Version 4.2.0 -  RELEASE  -


 With contributions from (in alphabetic order):
   Daniel Aravena         : Magnetic Suceptibility
   Michael Atanasov       : Ab Initio Ligand Field Theory (pilot matlab implementation)
   Alexander A. Auer      : GIAO ZORA, VPT2
   Ute Becker             : Parallelization
   Giovanni Bistoni       : ED, misc. LED, open-shell LED, HFLED
   Martin Brehm           : Molecular dynamics
   Dmytro Bykov           : SCF Hessian
   Vijay G. Chilkuri      : MRCI spin determinant printing, contributions to CSF-ICE
   Dipayan Datta          : RHF DLPNO-CCSD density
   Achintya Kumar Dutta   : EOM-CC, STEOM-CC
   Dmitry Ganyushin       : Spin-Orbit,Spin-Spin,Magnetic field MRCI
   Miquel Garcia          : C-PCM Hessian, Gaussian charge scheme
   Yang Guo               : DLPNO-NEVPT2, CIM, IAO-localization
   Andreas Hansen         : Spin unrestricted coupled pair/coupled cluster methods
   Benjamin Helmich-Paris : CASSCF linear response (MC-RPA)
   Lee Huntington         : MR-EOM, pCC
   Robert Izsak           : Overlap fitted RIJCOSX, COSX-SCS-MP3, EOM
   Christian Kollmar      : KDIIS, OOCD, Brueckner-CCSD(T), CCSD density
   Simone Kossmann        : Meta GGA functionals, TD-DFT gradient, OOMP2, MP2 Hessian
   Martin Krupicka        : AUTO-CI
   Lucas Lang             : DCDCAS
   Dagmar Lenk            : GEPOL surface, SMD
   Dimitrios Liakos       : Extrapolation schemes; Compound Job, initial MDCI parallelization
   Dimitrios Manganas     : Further ROCIS development; embedding schemes
   Dimitrios Pantazis     : SARC Basis sets
   Taras Petrenko         : DFT Hessian,TD-DFT gradient, ASA, ECA, R-Raman, ABS, FL, XAS/XES, NRVS
   Peter Pinski           : DLPNO-MP2, DLPNO-MP2 Gradient
   Christoph Reimann      : Effective Core Potentials
   Marius Retegan         : Local ZFS, SOC
   Christoph Riplinger    : Optimizer, TS searches, QM/MM, DLPNO-CCSD(T), (RO)-DLPNO pert. Triples
   Tobias Risthaus        : Range-separated hybrids, TD-DFT gradient, RPA, STAB
   Michael Roemelt        : Original ROCIS implementation
   Masaaki Saitow         : Open-shell DLPNO-CCSD energy and density
   Barbara Sandhoefer     : DKH picture change effects
   Avijit Sen             : IP-ROCIS
   Kantharuban Sivalingam : CASSCF convergence, NEVPT2, FIC-MRCI
   Bernardo de Souza      : ESD, SOC TD-DFT
   Georgi Stoychev        : AutoAux, RI-MP2 NMR
   Willem Van den Heuvel  : Paramagnetic NMR
   Boris Wezisla          : Elementary symmetry handling
   Frank Wennmohs         : Technical directorship


 We gratefully acknowledge several colleagues who have allowed us to
 interface, adapt or use parts of their codes:
   Stefan Grimme, W. Hujo, H. Kruse,             : VdW corrections, initial TS optimization,
                  C. Bannwarth                     DFT functionals, gCP, sTDA/sTD-DF
   Ed Valeev, F. Pavosevic, A. Kumar             : LibInt (2-el integral package), F12 methods
   Garnet Chan, S. Sharma, J. Yang, R. Olivares  : DMRG
   Ulf Ekstrom                                   : XCFun DFT Library
   Mihaly Kallay                                 : mrcc  (arbitrary order and MRCC methods)
   Andreas Klamt, Michael Diedenhofen            : otool_cosmo (COSMO solvation model)
   Jiri Pittner, Ondrej Demel                    : Mk-CCSD
   Frank Weinhold                                : gennbo (NPA and NBO analysis)
   Christopher J. Cramer and Donald G. Truhlar   : smd solvation model
   Lars Goerigk                                  : TD-DFT with DH, B97 family of functionals
   V. Asgeirsson, H. Jonsson                     : NEB implementation
   FAccTs GmbH                                   : IRC, NEB, NEB-TS, Multilevel, MM, QM/MM, CI optimization
   S Lehtola, MJT Oliveira, MAL Marques          : LibXC Library


 Your calculation uses the libint2 library for the computation of 2-el integrals
 For citations please refer to: http://libint.valeyev.net

 Your ORCA version has been built with support for libXC version: 4.2.3
 For citations please refer to: https://tddft.org/programs/libxc/

 This ORCA versions uses:
   CBLAS   interface :  Fast vector & matrix operations
   LAPACKE interface :  Fast linear algebra routines
   SCALAPACK package :  Parallel linear algebra routines


XCFun DFT library Copyright 2009-2010 Ulf Ekstrom and contributors.
See http://admol.org/xcfun for more information. This is free soft-
ware; see the source code for copying conditions. There is ABSOLUTELY
NO WARRANTY; not even for MERCHANTABILITY or FITNESS FOR A PARTICULAR
PURPOSE. For details see the documentation. Scientific users of this 
library should cite U. Ekstrom, L. Visscher, R. Bast, A. J. Thorvald-
sen and K. Ruud; J.Chem.Theor.Comp. 2010, DOI: 10.1021/ct100117s
XCFun Version 0.99 
----- Orbital basis set information -----
Your calculation utilizes the basis: def2-SVP
   F. Weigend and R. Ahlrichs, Phys. Chem. Chem. Phys. 7, 3297 (2005).

----- AuxJ basis set information -----
Your calculation utilizes the auxiliary basis: def2/J
   F. Weigend, Phys. Chem. Chem. Phys. 8, 1057 (2006).

================================================================================
                                        WARNINGS
                       Please study these warnings very carefully!
================================================================================

INFO   : Checking CIS options ...

WARNING: CIS/ROCIS methods need fully converged wavefunctions
  ===> : Setting SCFConvForced true
         You can overwrite this default with %scf ConvForced false 


INFO   : the flag for use of LIBINT has been found!

================================================================================
                                       INPUT FILE
================================================================================
NAME = xtbopt.inp
|  1> # ORCA input file
|  2> # SCF done       -255.537678089260          0.000976595091
|  3> ! CAM-B3LYP def2-SVP def2/J RIJCOSX Grid4 TightSCF
|  4> %maxcore 5000
|  5> %tddft
|  6>     Mode sTDDFT
|  7>     Ethresh 5.0
|  8>     maxcore 5000
|  9> end
| 10> 
| 11> %pal
| 12>   nprocs 6
| 13>   end
| 14> * xyz 0 1
| 15>    C       -5.63182         1.24571         5.20179
| 16>    C       -4.67609         2.08322         4.64742
| 17>    C       -4.04035         1.75695         3.45715
| 18>    C       -4.34730         0.58531         2.78269
| 19>    C       -5.30048        -0.26053         3.32663
| 20>    C       -5.94400         0.06624         4.54292
| 21>    C       -6.87582        -0.99818         4.88626
| 22>    C       -7.79597        -0.97443         5.89684
| 23>    C       -7.96698         0.10962         6.78485
| 24>    N       -8.15662         0.95595         7.53614
| 25>    C       -8.73168        -1.99730         6.16302
| 26>    N       -9.52385        -2.78512         6.42689
| 27>    C       -6.63845        -2.08378         3.93422
| 28>    C       -5.84025        -1.52088         2.84387
| 29>    C       -5.81746        -1.95915         1.54941
| 30>    C       -6.59579        -3.02938         1.05725
| 31>    N       -7.24939        -3.83888         0.57297
| 32>    C       -5.08110        -1.33022         0.52344
| 33>    N       -4.48460        -0.86837        -0.34126
| 34>    C       -6.98720        -3.38035         4.12924
| 35>    C       -6.47719        -4.52646         3.41882
| 36>    C       -7.33827        -5.60351         3.16089
| 37>    C       -6.87560        -6.68558         2.45226
| 38>    C       -5.54141        -6.71405         2.00743
| 39>    C       -4.66299        -5.68343         2.31675
| 40>    C       -5.13658        -4.59513         3.01507
| 41>    C       -5.33597        -7.91753         1.23842
| 42>    C       -6.54357        -8.63617         1.19548
| 43>    C       -7.63047        -7.90147         1.95501
| 44>    C       -8.12719        -8.82070         3.09006
| 45>    C       -9.18273        -8.23561         4.01930
| 46>    C       -8.75101        -7.38436         1.02605
| 47>    C       -9.56447        -8.45066         0.30527
| 48>    C       -6.58909        -9.85675         0.56427
| 49>    C       -5.44982       -10.35686        -0.08707
| 50>    C       -4.26420        -9.60920        -0.05371
| 51>    C       -4.19684        -8.40436         0.61111
| 52>    C       -5.55053       -11.62579        -0.76745
| 53>    C       -4.60528       -12.20017        -1.53524
| 54>    C       -4.75655       -13.44762        -2.20899
| 55>    C       -3.83411       -14.03630        -3.02871
| 56>    C       -4.25511       -15.26870        -3.57835
| 57>    C       -3.55285       -16.10701        -4.46745
| 58>    C       -2.26754       -15.71537        -5.01068
| 59>    C       -1.89728       -14.48971        -5.48449
| 60>    C       -0.56329       -14.46600        -5.94640
| 61>    C        0.09640       -15.65465        -5.82873
| 62>    S       -0.94960       -16.84819        -5.13721
| 63>    C        1.49407       -15.98643        -6.20176
| 64>   Cl        0.15440       -13.04336        -6.60273
| 65>    C       -4.16584       -17.30685        -4.80306
| 66>    C       -5.45355       -17.67938        -4.34163
| 67>    C       -6.17859       -16.81475        -3.49292
| 68>    C       -5.54352       -15.63849        -3.11548
| 69>    S       -6.21016       -14.41687        -2.06779
| 70>    C       -7.51701       -17.15619        -3.05585
| 71>    C       -8.52815       -17.69925        -3.79587
| 72>    C       -9.69789       -17.92302        -3.03808
| 73>    C       -9.59662       -17.56495        -1.72508
| 74>    S       -8.02276       -16.91821        -1.40572
| 75>    C      -10.61451       -17.67170        -0.64991
| 76>   Cl      -11.12400       -18.59762        -3.73118
| 77>    C       -5.83575       -18.95213        -4.82284
| 78>    C       -4.90677       -19.52814        -5.64570
| 79>    S       -3.49086       -18.51787        -5.85647
| 80>    C       -4.97981       -20.78111        -6.30875
| 81>    C       -3.99366       -21.36847        -7.08218
| 82>    C       -4.40022       -22.59453        -7.60172
| 83>    C       -5.71046       -22.94184        -7.22489
| 84>    S       -6.43353       -21.75841        -6.22205
| 85>    C       -6.02994       -24.18854        -7.80598
| 86>    C       -4.92034       -24.63724        -8.55606
| 87>    C       -3.86042       -23.64955        -8.44725
| 88>    C       -2.62303       -23.69221        -9.01766
| 89>    C       -1.67833       -22.65900        -8.83816
| 90>    N       -0.90754       -21.82200        -8.69761
| 91>    C       -2.20329       -24.76577        -9.83269
| 92>    N       -1.85676       -25.62884       -10.50245
| 93>    C       -5.15277       -25.85179        -9.18521
| 94>    C       -6.41452       -26.36470        -8.90502
| 95>    S       -7.34073       -25.27043        -7.87022
| 96>    C       -6.94884       -27.53309        -9.48392
| 97>    C       -8.07655       -28.23065        -9.14453
| 98>    C       -8.81347       -29.09802       -10.05657
| 99>    C       -8.36928       -29.64045       -11.23251
|100>    C       -7.07063       -29.49122       -11.76378
|101>    N       -6.03560       -29.41554       -12.25515
|102>    C       -9.15122       -30.46802       -12.06644
|103>    N       -9.72936       -31.14582       -12.79000
|104>    C      -10.14268       -29.27319        -9.48296
|105>    C      -10.16998       -28.68155        -8.19967
|106>    C      -11.32787       -28.68706        -7.44063
|107>    C      -12.46073       -29.28788        -7.96883
|108>    C      -12.43464       -29.87860        -9.22420
|109>    C      -11.27997       -29.87921        -9.99289
|110>    C       -8.84084       -28.17073        -7.90584
|111>    C       -8.32292       -27.97278        -6.65326
|112>    C       -9.08877       -28.01446        -5.47081
|113>    N       -9.66714       -28.01969        -4.47949
|114>    C       -6.94548       -27.80156        -6.40196
|115>    N       -5.82806       -27.70166        -6.15868
|116>    H       -6.11111         1.51191         6.12952
|117>    H       -4.42173         3.00173         5.15372
|118>    H       -3.29491         2.42254         3.04969
|119>    H       -3.84247         0.33816         1.86278
|120>    H       -7.68180        -3.60520         4.92797
|121>    H       -8.36835        -5.52614         3.47129
|122>    H       -3.63045        -5.72634         2.00484
|123>    H       -4.46339        -3.79106         3.27845
|124>    H       -7.25546        -9.10951         3.68415
|125>    H       -8.52225        -9.73030         2.63486
|126>    H       -8.78247        -7.40698         4.59601
|127>    H       -9.50727        -9.00267         4.71959
|128>    H      -10.05430        -7.89508         3.46723
|129>    H       -8.28610        -6.72983         0.28496
|130>    H       -9.42227        -6.76490         1.62197
|131>    H       -8.94822        -9.00408        -0.39772
|132>    H      -10.36265        -7.97018        -0.25650
|133>    H      -10.01859        -9.14753         1.00522
|134>    H       -7.49118       -10.44990         0.55727
|135>    H       -3.37997        -9.98812        -0.54140
|136>    H       -3.27134        -7.84944         0.64563
|137>    H       -6.49423       -12.14662        -0.65227
|138>    H       -3.65160       -11.71798        -1.69898
|139>    H       -2.86766       -13.60589        -3.21656
|140>    H       -2.55705       -13.64421        -5.54840
|141>    H        1.96165       -15.12721        -6.67598
|142>    H        1.51591       -16.82952        -6.89084
|143>    H        2.07232       -16.26037        -5.31960
|144>    H       -8.46616       -17.89264        -4.85081
|145>    H      -11.53213       -18.09199        -1.05375
|146>    H      -10.82939       -16.69131        -0.22641
|147>    H      -10.25620       -18.31284         0.15490
|148>    H       -6.75325       -19.44331        -4.55324
|149>    H       -3.03548       -20.90797        -7.24261
|150>    H       -4.44770       -26.37400        -9.80688
|151>    H       -6.41814       -27.85095       -10.37261
|152>    H      -11.35863       -28.22482        -6.46713
|153>    H      -13.37409       -29.29398        -7.39397
|154>    H      -13.32718       -30.34359        -9.61402
|155>    H      -11.28117       -30.33968       -10.96699
|156> *
|157> 
|158>                          ****END OF INPUT****
================================================================================

                       ****************************
                       * Single Point Calculation *
                       ****************************

---------------------------------
CARTESIAN COORDINATES (ANGSTROEM)
---------------------------------
  C     -5.631820    1.245710    5.201790
  C     -4.676090    2.083220    4.647420
  C     -4.040350    1.756950    3.457150
  C     -4.347300    0.585310    2.782690
  C     -5.300480   -0.260530    3.326630
  C     -5.944000    0.066240    4.542920
  C     -6.875820   -0.998180    4.886260
  C     -7.795970   -0.974430    5.896840
  C     -7.966980    0.109620    6.784850
  N     -8.156620    0.955950    7.536140
  C     -8.731680   -1.997300    6.163020
  N     -9.523850   -2.785120    6.426890
  C     -6.638450   -2.083780    3.934220
  C     -5.840250   -1.520880    2.843870
  C     -5.817460   -1.959150    1.549410
  C     -6.595790   -3.029380    1.057250
  N     -7.249390   -3.838880    0.572970
  C     -5.081100   -1.330220    0.523440
  N     -4.484600   -0.868370   -0.341260
  C     -6.987200   -3.380350    4.129240
  C     -6.477190   -4.526460    3.418820
  C     -7.338270   -5.603510    3.160890
  C     -6.875600   -6.685580    2.452260
  C     -5.541410   -6.714050    2.007430
  C     -4.662990   -5.683430    2.316750
  C     -5.136580   -4.595130    3.015070
  C     -5.335970   -7.917530    1.238420
  C     -6.543570   -8.636170    1.195480
  C     -7.630470   -7.901470    1.955010
  C     -8.127190   -8.820700    3.090060
  C     -9.182730   -8.235610    4.019300
  C     -8.751010   -7.384360    1.026050
  C     -9.564470   -8.450660    0.305270
  C     -6.589090   -9.856750    0.564270
  C     -5.449820  -10.356860   -0.087070
  C     -4.264200   -9.609200   -0.053710
  C     -4.196840   -8.404360    0.611110
  C     -5.550530  -11.625790   -0.767450
  C     -4.605280  -12.200170   -1.535240
  C     -4.756550  -13.447620   -2.208990
  C     -3.834110  -14.036300   -3.028710
  C     -4.255110  -15.268700   -3.578350
  C     -3.552850  -16.107010   -4.467450
  C     -2.267540  -15.715370   -5.010680
  C     -1.897280  -14.489710   -5.484490
  C     -0.563290  -14.466000   -5.946400
  C      0.096400  -15.654650   -5.828730
  S     -0.949600  -16.848190   -5.137210
  C      1.494070  -15.986430   -6.201760
  Cl     0.154400  -13.043360   -6.602730
  C     -4.165840  -17.306850   -4.803060
  C     -5.453550  -17.679380   -4.341630
  C     -6.178590  -16.814750   -3.492920
  C     -5.543520  -15.638490   -3.115480
  S     -6.210160  -14.416870   -2.067790
  C     -7.517010  -17.156190   -3.055850
  C     -8.528150  -17.699250   -3.795870
  C     -9.697890  -17.923020   -3.038080
  C     -9.596620  -17.564950   -1.725080
  S     -8.022760  -16.918210   -1.405720
  C    -10.614510  -17.671700   -0.649910
  Cl   -11.124000  -18.597620   -3.731180
  C     -5.835750  -18.952130   -4.822840
  C     -4.906770  -19.528140   -5.645700
  S     -3.490860  -18.517870   -5.856470
  C     -4.979810  -20.781110   -6.308750
  C     -3.993660  -21.368470   -7.082180
  C     -4.400220  -22.594530   -7.601720
  C     -5.710460  -22.941840   -7.224890
  S     -6.433530  -21.758410   -6.222050
  C     -6.029940  -24.188540   -7.805980
  C     -4.920340  -24.637240   -8.556060
  C     -3.860420  -23.649550   -8.447250
  C     -2.623030  -23.692210   -9.017660
  C     -1.678330  -22.659000   -8.838160
  N     -0.907540  -21.822000   -8.697610
  C     -2.203290  -24.765770   -9.832690
  N     -1.856760  -25.628840  -10.502450
  C     -5.152770  -25.851790   -9.185210
  C     -6.414520  -26.364700   -8.905020
  S     -7.340730  -25.270430   -7.870220
  C     -6.948840  -27.533090   -9.483920
  C     -8.076550  -28.230650   -9.144530
  C     -8.813470  -29.098020  -10.056570
  C     -8.369280  -29.640450  -11.232510
  C     -7.070630  -29.491220  -11.763780
  N     -6.035600  -29.415540  -12.255150
  C     -9.151220  -30.468020  -12.066440
  N     -9.729360  -31.145820  -12.790000
  C    -10.142680  -29.273190   -9.482960
  C    -10.169980  -28.681550   -8.199670
  C    -11.327870  -28.687060   -7.440630
  C    -12.460730  -29.287880   -7.968830
  C    -12.434640  -29.878600   -9.224200
  C    -11.279970  -29.879210   -9.992890
  C     -8.840840  -28.170730   -7.905840
  C     -8.322920  -27.972780   -6.653260
  C     -9.088770  -28.014460   -5.470810
  N     -9.667140  -28.019690   -4.479490
  C     -6.945480  -27.801560   -6.401960
  N     -5.828060  -27.701660   -6.158680
  H     -6.111110    1.511910    6.129520
  H     -4.421730    3.001730    5.153720
  H     -3.294910    2.422540    3.049690
  H     -3.842470    0.338160    1.862780
  H     -7.681800   -3.605200    4.927970
  H     -8.368350   -5.526140    3.471290
  H     -3.630450   -5.726340    2.004840
  H     -4.463390   -3.791060    3.278450
  H     -7.255460   -9.109510    3.684150
  H     -8.522250   -9.730300    2.634860
  H     -8.782470   -7.406980    4.596010
  H     -9.507270   -9.002670    4.719590
  H    -10.054300   -7.895080    3.467230
  H     -8.286100   -6.729830    0.284960
  H     -9.422270   -6.764900    1.621970
  H     -8.948220   -9.004080   -0.397720
  H    -10.362650   -7.970180   -0.256500
  H    -10.018590   -9.147530    1.005220
  H     -7.491180  -10.449900    0.557270
  H     -3.379970   -9.988120   -0.541400
  H     -3.271340   -7.849440    0.645630
  H     -6.494230  -12.146620   -0.652270
  H     -3.651600  -11.717980   -1.698980
  H     -2.867660  -13.605890   -3.216560
  H     -2.557050  -13.644210   -5.548400
  H      1.961650  -15.127210   -6.675980
  H      1.515910  -16.829520   -6.890840
  H      2.072320  -16.260370   -5.319600
  H     -8.466160  -17.892640   -4.850810
  H    -11.532130  -18.091990   -1.053750
  H    -10.829390  -16.691310   -0.226410
  H    -10.256200  -18.312840    0.154900
  H     -6.753250  -19.443310   -4.553240
  H     -3.035480  -20.907970   -7.242610
  H     -4.447700  -26.374000   -9.806880
  H     -6.418140  -27.850950  -10.372610
  H    -11.358630  -28.224820   -6.467130
  H    -13.374090  -29.293980   -7.393970
  H    -13.327180  -30.343590   -9.614020
  H    -11.281170  -30.339680  -10.966990

----------------------------
CARTESIAN COORDINATES (A.U.)
----------------------------
  NO LB      ZA    FRAG     MASS         X           Y           Z
   0 C     6.0000    0    12.011  -10.642597    2.354051    9.829959
   1 C     6.0000    0    12.011   -8.836529    3.936715    8.782351
   2 C     6.0000    0    12.011   -7.635155    3.320154    6.533067
   3 C     6.0000    0    12.011   -8.215206    1.106076    5.258522
   4 C     6.0000    0    12.011  -10.016456   -0.492330    6.286420
   5 C     6.0000    0    12.011  -11.232532    0.125175    8.584875
   6 C     6.0000    0    12.011  -12.993417   -1.886287    9.233693
   7 C     6.0000    0    12.011  -14.732248   -1.841406   11.143413
   8 C     6.0000    0    12.011  -15.055410    0.207152   12.821508
   9 N     7.0000    0    14.007  -15.413778    1.806484   14.241241
  10 C     6.0000    0    12.011  -16.500484   -3.774350   11.646420
  11 N     7.0000    0    14.007  -17.997468   -5.263114   12.145062
  12 C     6.0000    0    12.011  -12.544852   -3.937774    7.434598
  13 C     6.0000    0    12.011  -11.036473   -2.874047    5.374135
  14 C     6.0000    0    12.011  -10.993406   -3.702257    2.927961
  15 C     6.0000    0    12.011  -12.464237   -5.724699    1.997913
  16 N     7.0000    0    14.007  -13.699362   -7.254432    1.082756
  17 C     6.0000    0    12.011   -9.601887   -2.513751    0.989158
  18 N     7.0000    0    14.007   -8.474666   -1.640981   -0.644888
  19 C     6.0000    0    12.011  -13.203894   -6.387936    7.803133
  20 C     6.0000    0    12.011  -12.240115   -8.553770    6.460634
  21 C     6.0000    0    12.011  -13.867321  -10.589099    5.973216
  22 C     6.0000    0    12.011  -12.993001  -12.633915    4.634100
  23 C     6.0000    0    12.011  -10.471747  -12.687716    3.793493
  24 C     6.0000    0    12.011   -8.811774  -10.740126    4.378023
  25 C     6.0000    0    12.011   -9.706729   -8.683537    5.697657
  26 C     6.0000    0    12.011  -10.083522  -14.961963    2.340275
  27 C     6.0000    0    12.011  -12.365555  -16.319996    2.259130
  28 C     6.0000    0    12.011  -14.419499  -14.931614    3.694433
  29 C     6.0000    0    12.011  -15.358163  -16.668707    5.839367
  30 C     6.0000    0    12.011  -17.352845  -15.563047    7.595376
  31 C     6.0000    0    12.011  -16.537012  -13.954418    1.938953
  32 C     6.0000    0    12.011  -18.074229  -15.969433    0.576877
  33 C     6.0000    0    12.011  -12.451576  -18.626558    1.066316
  34 C     6.0000    0    12.011  -10.298667  -19.571629   -0.164538
  35 C     6.0000    0    12.011   -8.058170  -18.158756   -0.101497
  36 C     6.0000    0    12.011   -7.930878  -15.881939    1.154831
  37 C     6.0000    0    12.011  -10.488982  -21.969559   -1.450270
  38 C     6.0000    0    12.011   -8.702718  -23.054980   -2.901183
  39 C     6.0000    0    12.011   -8.988577  -25.412319   -4.174386
  40 C     6.0000    0    12.011   -7.245418  -26.524763   -5.723432
  41 C     6.0000    0    12.011   -8.040993  -28.853661   -6.762102
  42 C     6.0000    0    12.011   -6.713913  -30.437838   -8.442257
  43 C     6.0000    0    12.011   -4.285030  -29.697745   -9.468813
  44 C     6.0000    0    12.011   -3.585340  -27.381584  -10.364184
  45 C     6.0000    0    12.011   -1.064464  -27.336778  -11.237067
  46 C     6.0000    0    12.011    0.182170  -29.583001  -11.014703
  47 S    16.0000    0    32.060   -1.794484  -31.838465   -9.707920
  48 C     6.0000    0    12.011    2.823383  -30.209975  -11.719628
  49 Cl   17.0000    0    35.453    0.291774  -24.648378  -12.477351
  50 C     6.0000    0    12.011   -7.872297  -32.705207   -9.076468
  51 C     6.0000    0    12.011  -10.305716  -33.409186   -8.204492
  52 C     6.0000    0    12.011  -11.675843  -31.775273   -6.600662
  53 C     6.0000    0    12.011  -10.475735  -29.552463   -5.887404
  54 S    16.0000    0    32.060  -11.735502  -27.243936   -3.907557
  55 C     6.0000    0    12.011  -14.205090  -32.420501   -5.774720
  56 C     6.0000    0    12.011  -16.115868  -33.446735   -7.173155
  57 C     6.0000    0    12.011  -18.326356  -33.869599   -5.741139
  58 C     6.0000    0    12.011  -18.134984  -33.192945   -3.259929
  59 S    16.0000    0    32.060  -15.160819  -31.970784   -2.656426
  60 C     6.0000    0    12.011  -20.058517  -33.394673   -1.228152
  61 Cl   17.0000    0    35.453  -21.021314  -35.144409   -7.050908
  62 C     6.0000    0    12.011  -11.027969  -35.814335   -9.113847
  63 C     6.0000    0    12.011   -9.272452  -36.902837  -10.668827
  64 S    16.0000    0    32.060   -6.596769  -34.993703  -11.067124
  65 C     6.0000    0    12.011   -9.410477  -39.270607  -11.921810
  66 C     6.0000    0    12.011   -7.546924  -40.380556  -13.383381
  67 C     6.0000    0    12.011   -8.315211  -42.697474  -14.365169
  68 C     6.0000    0    12.011  -10.791205  -43.353795  -13.653063
  69 S    16.0000    0    32.060  -12.157610  -41.117436  -11.757970
  70 C     6.0000    0    12.011  -11.394935  -45.709716  -14.751164
  71 C     6.0000    0    12.011   -9.298095  -46.557636  -16.168610
  72 C     6.0000    0    12.011   -7.295137  -44.691173  -15.962989
  73 C     6.0000    0    12.011   -4.956808  -44.771788  -17.040908
  74 C     6.0000    0    12.011   -3.171584  -42.819304  -16.701702
  75 N     7.0000    0    14.007   -1.715002  -41.237604  -16.436101
  76 C     6.0000    0    12.011   -4.163615  -46.800523  -18.581091
  77 N     7.0000    0    14.007   -3.508768  -48.431489  -19.846754
  78 C     6.0000    0    12.011   -9.737324  -48.852803  -17.357531
  79 C     6.0000    0    12.011  -12.121686  -49.822063  -16.828049
  80 S    16.0000    0    32.060  -13.871969  -47.754192  -14.872560
  81 C     6.0000    0    12.011  -13.131405  -52.030000  -17.922011
  82 C     6.0000    0    12.011  -15.262468  -53.348197  -17.280657
  83 C     6.0000    0    12.011  -16.655045  -54.987289  -19.004163
  84 C     6.0000    0    12.011  -15.815647  -56.012333  -21.226368
  85 C     6.0000    0    12.011  -13.361554  -55.730329  -22.230322
  86 N     7.0000    0    14.007  -11.405631  -55.587315  -23.158877
  87 C     6.0000    0    12.011  -17.293300  -57.576214  -22.802267
  88 N     7.0000    0    14.007  -18.385826  -58.857070  -24.169597
  89 C     6.0000    0    12.011  -19.166887  -55.318312  -17.920197
  90 C     6.0000    0    12.011  -19.218477  -54.200275  -15.495131
  91 C     6.0000    0    12.011  -21.406572  -54.210687  -14.060753
  92 C     6.0000    0    12.011  -23.547367  -55.346072  -15.058906
  93 C     6.0000    0    12.011  -23.498064  -56.462371  -17.431212
  94 C     6.0000    0    12.011  -21.316054  -56.463524  -18.883825
  95 C     6.0000    0    12.011  -16.706766  -53.234965  -14.939872
  96 C     6.0000    0    12.011  -15.728039  -52.860893  -12.572839
  97 C     6.0000    0    12.011  -17.175286  -52.939657  -10.338333
  98 N     7.0000    0    14.007  -18.268247  -52.949540   -8.465009
  99 C     6.0000    0    12.011  -13.125055  -52.537334  -12.097951
 100 N     7.0000    0    14.007  -11.013437  -52.348551  -11.638219
 101 H     1.0000    0     1.008  -11.548324    2.857096   11.583114
 102 H     1.0000    0     1.008   -8.355859    5.672448    9.739119
 103 H     1.0000    0     1.008   -6.226478    4.577937    5.763079
 104 H     1.0000    0     1.008   -7.261216    0.639030    3.520144
 105 H     1.0000    0     1.008  -14.516498   -6.812841    9.312514
 106 H     1.0000    0     1.008  -15.813890  -10.442891    6.559787
 107 H     1.0000    0     1.008   -6.860556  -10.821214    3.788599
 108 H     1.0000    0     1.008   -8.434585   -7.164065    6.195373
 109 H     1.0000    0     1.008  -13.710832  -17.214479    6.962035
 110 H     1.0000    0     1.008  -16.104719  -18.387602    4.979164
 111 H     1.0000    0     1.008  -16.596463  -13.997164    8.685200
 112 H     1.0000    0     1.008  -17.966137  -17.012581    8.918733
 113 H     1.0000    0     1.008  -18.999873  -14.919539    6.552115
 114 H     1.0000    0     1.008  -15.658460  -12.717536    0.538496
 115 H     1.0000    0     1.008  -17.805510  -12.783808    3.065079
 116 H     1.0000    0     1.008  -16.909685  -17.015245   -0.751582
 117 H     1.0000    0     1.008  -19.582571  -15.061457   -0.484715
 118 H     1.0000    0     1.008  -18.932391  -17.286327    1.899591
 119 H     1.0000    0     1.008  -14.156279  -19.747449    1.053088
 120 H     1.0000    0     1.008   -6.387218  -18.874811   -1.023098
 121 H     1.0000    0     1.008   -6.181937  -14.833292    1.220064
 122 H     1.0000    0     1.008  -12.272316  -22.953785   -1.232612
 123 H     1.0000    0     1.008   -6.900524  -22.143773   -3.210607
 124 H     1.0000    0     1.008   -5.419092  -25.711406   -6.078417
 125 H     1.0000    0     1.008   -4.832124  -25.783820  -10.484956
 126 H     1.0000    0     1.008    3.706981  -28.586284  -12.615774
 127 H     1.0000    0     1.008    2.864655  -31.803184  -13.021800
 128 H     1.0000    0     1.008    3.916117  -30.727646  -10.052587
 129 H     1.0000    0     1.008  -15.998724  -33.812189   -9.166702
 130 H     1.0000    0     1.008  -21.792567  -34.188906   -1.991299
 131 H     1.0000    0     1.008  -20.464581  -31.542005   -0.427853
 132 H     1.0000    0     1.008  -19.381409  -34.606252    0.292719
 133 H     1.0000    0     1.008  -12.761793  -36.742531   -8.604377
 134 H     1.0000    0     1.008   -5.736226  -39.510337  -13.686549
 135 H     1.0000    0     1.008   -8.404935  -49.839637  -18.532317
 136 H     1.0000    0     1.008  -12.128527  -52.630668  -19.601392
 137 H     1.0000    0     1.008  -21.464700  -53.337180  -12.221105
 138 H     1.0000    0     1.008  -25.273367  -55.357600  -13.972578
 139 H     1.0000    0     1.008  -25.184720  -57.341075  -18.167865
 140 H     1.0000    0     1.008  -21.318322  -57.333686  -20.724608

--------------------------------
INTERNAL COORDINATES (ANGSTROEM)
--------------------------------
 C      0   0   0     0.000000000000     0.00000000     0.00000000
 C      1   0   0     1.386423070314     0.00000000     0.00000000
 C      2   1   0     1.388293965052   121.09955695     0.00000000
 C      3   2   1     1.386309807979   120.95399140     0.32241608
 C      4   3   2     1.385593064936   118.50600882   359.66293458
 C      1   2   3     1.386620175174   118.62249205     0.06067187
 C      6   1   2     1.455733768379   130.84383137   179.12827789
 C      7   6   1     1.366935265987   126.33800011     8.90189124
 C      8   7   6     1.411726100453   124.05052254   359.21470609
 N      9   8   7     1.147464362235   176.59602351   178.59079165
 C      8   7   6     1.411618940579   124.96115931   176.67679401
 N     11   8   7     1.147963866243   176.41460025   188.93785482
 C      7   6   1     1.463301759208   106.56934806   188.47033925
 C      5   4   3     1.453578684833   130.87242036   178.60898632
 C     14   5   4     1.366830885150   125.89940732   338.83551439
 C     15  14   5     1.411882186091   124.33228286   194.70002690
 N     16  15  14     1.147610704202   174.71803909   136.05161087
 C     15  14   5     1.410813040555   123.67455188     9.96600988
 N     18  15  14     1.147529416834   177.09311777   159.33472175
 C     13   7   6     1.356743574814   125.01307095   159.14451633
 C     20  13   7     1.441657001023   126.72446551   197.89689819
 C     21  20  13     1.402862556988   118.93508954   214.83797755
 C     22  21  20     1.373715942508   119.52931448   178.18307618
 C     23  22  21     1.406679503618   119.90168730     0.85624753
 C     24  23  22     1.389056565875   120.95485993     2.44985400
 C     25  24  23     1.377074871058   118.80348395   356.89155464
 C     24  23  22     1.442895035718   108.69083691   182.88404107
 C     27  24  23     1.405910755774   108.68244336     0.38226496
 C     23  22  21     1.515082430596   129.31912568   185.53401596
 C     29  23  22     1.542742056794   113.39871506   292.37378594
 C     30  29  23     1.523148704920   116.30188754    65.65265278
 C     29  23  22     1.544661556879   106.86702576    58.96963376
 C     32  29  23     1.522575669712   115.96494484   174.59069217
 C     28  27  24     1.374886784757   119.75208397   182.77169685
 C     34  28  27     1.404382405401   120.14619672   357.14691297
 C     35  34  28     1.402071021596   119.01626812     1.55735165
 C     36  35  34     1.377738156400   121.27585141     0.45054803
 C     35  34  28     1.443344308680   118.36573969   181.61444853
 C     38  35  34     1.346443994751   126.50266951   173.87092941
 C     39  38  35     1.425816670509   124.62482234   181.14545637
 C     40  39  38     1.367252929929   126.04500874   177.76863431
 C     41  40  39     1.413561066810   114.05176367   180.73748486
 C     42  41  40     1.409408235289   127.98517800   178.99043884
 C     43  42  41     1.449311049637   121.17157827   355.77333658
 C     44  43  42     1.365221893796   127.82152132   317.37600431
 C     45  44  43     1.411896714459   112.63515649   180.29166841
 C     46  45  44     1.364524073624   114.45260888   359.75565841
 S     47  46  45     1.731142293978   110.05477688     0.30351265
 C     47  46  45     1.484153219247   128.92826536   180.36737009
 Cl    46  45  44     1.723297007077   122.13704411   179.70835313
 C     43  42  41     1.388526858869   116.51769052   176.64686360
 C     51  43  42     1.417707053626   123.32453523     2.61545924
 C     52  51  43     1.411940757468   120.07610393   359.79478411
 C     53  52  51     1.389014919322   116.55973702   357.75394038
 S     54  53  52     1.741958280241   125.61489874   180.64792241
 C     53  52  51     1.448785544827   120.75761496   177.51399296
 C     56  53  52     1.365630939749   127.89797000   317.90353813
 C     57  56  53     1.411598513955   112.68685205   178.97160766
 C     58  57  56     1.364711961478   114.41889528   359.71198999
 S     59  58  57     1.731270844438   110.05669337     0.54116040
 C     59  58  57     1.484414410972   128.83701588   180.64559417
 Cl    58  57  56     1.723154810834   122.13708783   179.87541471
 C     52  51  43     1.413340888321   111.80445381   180.45265123
 C     63  52  51     1.368170289145   113.59604573   358.50560301
 S     51  43  42     1.741217984314   125.17542987   181.07282432
 C     64  63  52     1.419473129369   128.14253542   180.92706586
 C     66  64  63     1.384080039954   126.79484558   183.53555510
 C     67  66  64     1.392277260031   111.97311995   180.81675989
 C     68  67  66     1.406895142717   112.91665389     0.24442067
 S     69  68  67     1.711439410379   112.31589098   359.63981963
 C     69  68  67     1.412088505902   108.56807802   179.59602893
 C     71  69  68     1.412502692528   108.73868278   359.97396653
 C     72  71  69     1.452859786284   108.50388473     0.16275299
 C     73  72  71     1.363202646638   127.56039079   180.02848247
 C     74  73  72     1.411453592613   122.10121070   179.74245774
 N     75  74  73     1.146490526171   179.66679617   197.22412304
 C     74  73  72     1.411731788301   122.36105625     0.14727877
 N     77  74  73     1.146102667042   179.34680421   139.50075534
 C     72  71  69     1.387438333729   112.78539309   181.02213302
 C     79  72  71     1.390538085311   112.55260294   358.49269188
 S     71  69  68     1.700818383544   138.72086150   180.65576919
 C     80  79  72     1.409169352668   124.54898002   175.31835515
 C     82  80  79     1.368760523174   129.27821878   169.30832425
 C     83  82  80     1.458491948864   124.35406254   156.11098049
 C     84  83  82     1.369076310729   127.50334780    18.27012018
 C     85  84  83     1.411031264111   125.45755750     2.37037752
 N     86  85  84     1.148241716800   176.11696454   178.36793696
 C     85  84  83     1.411290726038   124.06325284   180.40044257
 N     88  85  84     1.147692368712   176.32456351   180.16296331
 C     84  83  82     1.458256556680   106.61927122   198.92056903
 C     90  84  83     1.413370582579   108.93366489   353.07307552
 C     91  90  84     1.384514836974   120.81488929   178.92777043
 C     92  91  90     1.386849556369   118.42918590     0.04571098
 C     93  92  91     1.387654367413   120.90530466     0.44757712
 C     90  84  83     1.385899487481   130.97969871   172.48775254
 C     91  90  84     1.453921002290   108.23460726   357.46670260
 C     96  91  90     1.369810930494   125.53620762   204.80484983
 C     97  96  91     1.409415285642   123.87900784   348.31236629
 N     98  97  96     1.147717104604   176.97025550   197.02445737
 C     97  96  91     1.410605874084   123.34305914   163.51728721
 N    100  97  96     1.147951490613   177.23371077   230.96159885
 H      1   2   3     1.077619736735   120.10695165   179.63576557
 H      2   1   3     1.079212360798   119.27573163   180.21640993
 H      3   2   1     1.079219390717   119.67352992   180.42065291
 H      4   3   2     1.078040286585   120.34620481   180.44287134
 H     20  13   7     1.082125822352   118.01242340    14.61601427
 H     22  21  20     1.078609791954   118.56809202     2.19905915
 H     25  24  23     1.079475783795   120.73399350   177.71235261
 H     26  25  24     1.081241122692   119.80920109   179.00894845
 H     30  29  23     1.093740068343   107.47865209   303.46689758
 H     30  29  23     1.091169832611   107.83880892   188.23541870
 H     31  30  29     1.086015731286   111.20180330   294.21742244
 H     31  30  29     1.088169719897   109.17895893   175.37179368
 H     31  30  29     1.086451209535   111.48943693    56.14981675
 H     32  29  23     1.092595632931   107.44513271    52.39236770
 H     32  29  23     1.090615113411   107.94054336   297.32104907
 H     33  32  29     1.086385152237   111.10171296   294.70038483
 H     33  32  29     1.087905269635   109.09467806   175.89449265
 H     33  32  29     1.087098327567   111.54993742    56.65872112
 H     34  28  27     1.079649151623   121.22309577   177.07882297
 H     36  35  34     1.078556718675   119.68033018   179.35046764
 H     37  36  35     1.079665729196   120.45170726   178.72289241
 H     38  35  34     1.084020300225   115.66186002   355.01873402
 H     39  38  35     1.081121420609   121.02289228     0.12599059
 H     41  40  39     1.074507325754   122.62695020     2.05631044
 H     45  44  43     1.074360829051   124.09896826   357.38556254
 H     49  47  46     1.087094601771   109.75561940   356.23946774
 H     49  47  46     1.089086305166   110.54647875   235.84713496
 H     49  47  46     1.089780919130   110.63591890   116.41368928
 H     57  56  53     1.074309478595   124.12355067   356.06951121
 H     61  59  58     1.087086424393   109.72788676   359.38839186
 H     61  59  58     1.089353118369   110.61726219   239.07128165
 H     61  59  58     1.089571333966   110.59882959   119.59011552
 H     63  52  51     1.075057301915   123.83792615   176.85469331
 H     67  66  64     1.075131130281   122.45313539     0.92984629
 H     79  72  71     1.075314176369   125.27036384   179.86444450
 H     82  80  79     1.082796096086   113.24862203   343.51996101
 H     92  91  90     1.078106787475   121.14435554   180.89613020
 H     93  92  91     1.079225518231   119.39937646   180.50107230
 H     94  93  92     1.079260387534   119.64460637   179.77777314
 H     95  90  84     1.077452955307   121.36172484     0.87234437

---------------------------
INTERNAL COORDINATES (A.U.)
---------------------------
 C      0   0   0     0.000000000000     0.00000000     0.00000000
 C      1   0   0     2.619959908644     0.00000000     0.00000000
 C      2   1   0     2.623495387324   121.09955695     0.00000000
 C      3   2   1     2.619745873850   120.95399140     0.32241608
 C      4   3   2     2.618391425790   118.50600882   359.66293458
 C      1   2   3     2.620332382849   118.62249205     0.06067187
 C      6   1   2     2.750938146138   130.84383137   179.12827789
 C      7   6   1     2.583133295515   126.33800011     8.90189124
 C      8   7   6     2.667775705965   124.05052254   359.21470609
 N      9   8   7     2.168393393059   176.59602351   178.59079165
 C      8   7   6     2.667573203149   124.96115931   176.67679401
 N     11   8   7     2.169337318837   176.41460025   188.93785482
 C      7   6   1     2.765239576188   106.56934806   188.47033925
 C      5   4   3     2.746865628439   130.87242036   178.60898632
 C     14   5   4     2.582936044319   125.89940732   338.83551439
 C     15  14   5     2.668070665073   124.33228286   194.70002690
 N     16  15  14     2.168669939299   174.71803909   136.05161087
 C     15  14   5     2.666050272814   123.67455188     9.96600988
 N     18  15  14     2.168516328435   177.09311777   159.33472175
 C     13   7   6     2.563873790356   125.01307095   159.14451633
 C     20  13   7     2.724336910985   126.72446551   197.89689819
 C     21  20  13     2.651026036241   118.93508954   214.83797755
 C     22  21  20     2.595946917141   119.52931448   178.18307618
 C     23  22  21     2.658239020039   119.90168730     0.85624753
 C     24  23  22     2.624936494029   120.95485993     2.44985400
 C     25  24  23     2.602294372205   118.80348395   356.89155464
 C     24  23  22     2.726676457502   108.69083691   182.88404107
 C     27  24  23     2.656786297146   108.68244336     0.38226496
 C     23  22  21     2.863090864142   129.31912568   185.53401596
 C     29  23  22     2.915359982622   113.39871506   292.37378594
 C     30  29  23     2.878333913536   116.30188754    65.65265278
 C     29  23  22     2.918987312098   106.86702576    58.96963376
 C     32  29  23     2.877251033928   115.96494484   174.59069217
 C     28  27  24     2.598159488339   119.75208397   182.77169685
 C     34  28  27     2.653898133506   120.14619672   357.14691297
 C     35  34  28     2.649530251124   119.01626812     1.55735165
 C     36  35  34     2.603547799849   121.27585141     0.45054803
 C     35  34  28     2.727525460360   118.36573969   181.61444853
 C     38  35  34     2.544410404742   126.50266951   173.87092941
 C     39  38  35     2.694403024441   124.62482234   181.14545637
 C     40  39  38     2.583733593368   126.04500874   177.76863431
 C     41  40  39     2.671243289844   114.05176367   180.73748486
 C     42  41  40     2.663395575589   127.98517800   178.99043884
 C     43  42  41     2.738800966680   121.17157827   355.77333658
 C     44  43  42     2.579895491308   127.82152132   317.37600431
 C     45  44  43     2.668098119711   112.63515649   180.29166841
 C     46  45  44     2.578576802292   114.45260888   359.75565841
 S     47  46  45     3.271384834467   110.05477688     0.30351265
 C     47  46  45     2.804643125154   128.92826536   180.36737009
 Cl    46  45  44     3.256559390781   122.13704411   179.70835313
 C     43  42  41     2.623935492856   116.51769052   176.64686360
 C     51  43  42     2.679078069481   123.32453523     2.61545924
 C     52  51  43     2.668181348936   120.07610393   359.79478411
 C     53  52  51     2.624857793450   116.55973702   357.75394038
 S     54  53  52     3.291824086372   125.61489874   180.64792241
 C     53  52  51     2.737807906507   120.75761496   177.51399296
 C     56  53  52     2.580668476135   127.89797000   317.90353813
 C     57  56  53     2.667534602425   112.68685205   178.97160766
 C     58  57  56     2.578931858879   114.41889528   359.71198999
 S     59  58  57     3.271627759630   110.05669337     0.54116040
 C     59  58  57     2.805136705982   128.83701588   180.64559417
 Cl    58  57  56     3.256290678825   122.13708783   179.87541471
 C     52  51  43     2.670827212800   111.80445381   180.45265123
 C     63  52  51     2.585467151053   113.59604573   358.50560301
 S     51  43  42     3.290425129813   125.17542987   181.07282432
 C     64  63  52     2.682415468967   128.14253542   180.92706586
 C     66  64  63     2.615532222940   126.79484558   183.53555510
 C     67  66  64     2.631022723945   111.97311995   180.81675989
 C     68  67  66     2.658646518879   112.91665389     0.24442067
 S     69  68  67     3.234151780417   112.31589098   359.63981963
 C     69  68  67     2.668460553012   108.56807802   179.59602893
 C     71  69  68     2.669243252305   108.73868278   359.97396653
 C     72  71  69     2.745507107063   108.50388473     0.16275299
 C     73  72  71     2.576079667182   127.56039079   180.02848247
 C     74  73  72     2.667260740778   122.10121070   179.74245774
 N     75  74  73     2.166553109599   179.66679617   197.22412304
 C     74  73  72     2.667786454440   122.36105625     0.14727877
 N     77  74  73     2.165820162065   179.34680421   139.50075534
 C     72  71  69     2.621878478451   112.78539309   181.02213302
 C     79  72  71     2.627736160025   112.55260294   358.49269188
 S     71  69  68     3.214080948436   138.72086150   180.65576919
 C     80  79  72     2.662944152858   124.54898002   175.31835515
 C     82  80  79     2.586582531722   129.27821878   169.30832425
 C     83  82  80     2.756150351881   124.35406254   156.11098049
 C     84  83  82     2.587179283718   127.50334780    18.27012018
 C     85  84  83     2.666462655571   125.45755750     2.37037752
 N     86  85  84     2.169862380296   176.11696454   178.36793696
 C     85  84  83     2.666952967554   124.06325284   180.40044257
 N     88  85  84     2.168824262857   176.32456351   180.16296331
 C     84  83  82     2.755705525120   106.61927122   198.92056903
 C     90  84  83     2.670883326815   108.93366489   353.07307552
 C     91  90  84     2.616353870231   120.81488929   178.92777043
 C     92  91  90     2.620765850487   118.42918590     0.04571098
 C     93  92  91     2.622286722950   120.90530466     0.44757712
 C     90  84  83     2.618970480481   130.97969871   172.48775254
 C     91  90  84     2.747512514684   108.23460726   357.46670260
 C     96  91  90     2.588567513885   125.53620762   204.80484983
 C     97  96  91     2.663408898825   123.87900784   348.31236629
 N     98  97  96     2.168871006918   176.97025550   197.02445737
 C     97  96  91     2.665658784919   123.34305914   163.51728721
 N    100  97  96     2.169313932285   177.23371077   230.96159885
 H      1   2   3     2.036406178937   120.10695165   179.63576557
 H      2   1   3     2.039415802252   119.27573163   180.21640993
 H      3   2   1     2.039429086873   119.67352992   180.42065291
 H      4   3   2     2.037200902979   120.34620481   180.44287134
 H     20  13   7     2.044921446689   118.01242340    14.61601427
 H     22  21  20     2.038277112160   118.56809202     2.19905915
 H     25  24  23     2.039913599573   120.73399350   177.71235261
 H     26  25  24     2.043249606621   119.80920109   179.00894845
 H     30  29  23     2.066869190865   107.47865209   303.46689758
 H     30  29  23     2.062012149231   107.83880892   188.23541870
 H     31  30  29     2.052272309260   111.20180330   294.21742244
 H     31  30  29     2.056342757831   109.17895893   175.37179368
 H     31  30  29     2.053095243889   111.48943693    56.14981675
 H     32  29  23     2.064706521358   107.44513271    52.39236770
 H     32  29  23     2.060963881862   107.94054336   297.32104907
 H     33  32  29     2.052970413685   111.10171296   294.70038483
 H     33  32  29     2.055843019260   109.09467806   175.89449265
 H     33  32  29     2.054318119746   111.54993742    56.65872112
 H     34  28  27     2.040241217288   121.22309577   177.07882297
 H     36  35  34     2.038176818197   119.68033018   179.35046764
 H     37  36  35     2.040272544361   120.45170726   178.72289241
 H     38  35  34     2.048501491036   115.66186002   355.01873402
 H     39  38  35     2.043023402467   121.02289228     0.12599059
 H     41  40  39     2.030524574568   122.62695020     2.05631044
 H     45  44  43     2.030247735920   124.09896826   357.38556254
 H     49  47  46     2.054311079012   109.75561940   356.23946774
 H     49  47  46     2.058074852968   110.54647875   235.84713496
 H     49  47  46     2.059387483129   110.63591890   116.41368928
 H     57  56  53     2.030150697621   124.12355067   356.06951121
 H     61  59  58     2.054295626007   109.72788676   359.38839186
 H     61  59  58     2.058579056850   110.61726219   239.07128165
 H     61  59  58     2.058991424567   110.59882959   119.59011552
 H     63  52  51     2.031563878891   123.83792615   176.85469331
 H     67  66  64     2.031703394285   122.45313539     0.92984629
 H     79  72  71     2.032049301260   125.27036384   179.86444450
 H     82  80  79     2.046188080482   113.24862203   343.51996101
 H     92  91  90     2.037326571450   121.14435554   180.89613020
 H     93  92  91     2.039440666195   119.39937646   180.50107230
 H     94  93  92     2.039506559629   119.64460637   179.77777314
 H     95  90  84     2.036091007715   121.36172484     0.87234437

---------------------
BASIS SET INFORMATION
---------------------
There are 5 groups of distinct atoms

 Group   1 Type C   : 7s4p1d contracted to 3s2p1d pattern {511/31/1}
 Group   2 Type N   : 7s4p1d contracted to 3s2p1d pattern {511/31/1}
 Group   3 Type S   : 10s7p1d contracted to 4s3p1d pattern {5311/511/1}
 Group   4 Type Cl  : 10s7p1d contracted to 4s3p1d pattern {5311/511/1}
 Group   5 Type H   : 4s1p contracted to 2s1p pattern {31/1}

Atom   0C    basis set group =>   1
Atom   1C    basis set group =>   1
Atom   2C    basis set group =>   1
Atom   3C    basis set group =>   1
Atom   4C    basis set group =>   1
Atom   5C    basis set group =>   1
Atom   6C    basis set group =>   1
Atom   7C    basis set group =>   1
Atom   8C    basis set group =>   1
Atom   9N    basis set group =>   2
Atom  10C    basis set group =>   1
Atom  11N    basis set group =>   2
Atom  12C    basis set group =>   1
Atom  13C    basis set group =>   1
Atom  14C    basis set group =>   1
Atom  15C    basis set group =>   1
Atom  16N    basis set group =>   2
Atom  17C    basis set group =>   1
Atom  18N    basis set group =>   2
Atom  19C    basis set group =>   1
Atom  20C    basis set group =>   1
Atom  21C    basis set group =>   1
Atom  22C    basis set group =>   1
Atom  23C    basis set group =>   1
Atom  24C    basis set group =>   1
Atom  25C    basis set group =>   1
Atom  26C    basis set group =>   1
Atom  27C    basis set group =>   1
Atom  28C    basis set group =>   1
Atom  29C    basis set group =>   1
Atom  30C    basis set group =>   1
Atom  31C    basis set group =>   1
Atom  32C    basis set group =>   1
Atom  33C    basis set group =>   1
Atom  34C    basis set group =>   1
Atom  35C    basis set group =>   1
Atom  36C    basis set group =>   1
Atom  37C    basis set group =>   1
Atom  38C    basis set group =>   1
Atom  39C    basis set group =>   1
Atom  40C    basis set group =>   1
Atom  41C    basis set group =>   1
Atom  42C    basis set group =>   1
Atom  43C    basis set group =>   1
Atom  44C    basis set group =>   1
Atom  45C    basis set group =>   1
Atom  46C    basis set group =>   1
Atom  47S    basis set group =>   3
Atom  48C    basis set group =>   1
Atom  49Cl   basis set group =>   4
Atom  50C    basis set group =>   1
Atom  51C    basis set group =>   1
Atom  52C    basis set group =>   1
Atom  53C    basis set group =>   1
Atom  54S    basis set group =>   3
Atom  55C    basis set group =>   1
Atom  56C    basis set group =>   1
Atom  57C    basis set group =>   1
Atom  58C    basis set group =>   1
Atom  59S    basis set group =>   3
Atom  60C    basis set group =>   1
Atom  61Cl   basis set group =>   4
Atom  62C    basis set group =>   1
Atom  63C    basis set group =>   1
Atom  64S    basis set group =>   3
Atom  65C    basis set group =>   1
Atom  66C    basis set group =>   1
Atom  67C    basis set group =>   1
Atom  68C    basis set group =>   1
Atom  69S    basis set group =>   3
Atom  70C    basis set group =>   1
Atom  71C    basis set group =>   1
Atom  72C    basis set group =>   1
Atom  73C    basis set group =>   1
Atom  74C    basis set group =>   1
Atom  75N    basis set group =>   2
Atom  76C    basis set group =>   1
Atom  77N    basis set group =>   2
Atom  78C    basis set group =>   1
Atom  79C    basis set group =>   1
Atom  80S    basis set group =>   3
Atom  81C    basis set group =>   1
Atom  82C    basis set group =>   1
Atom  83C    basis set group =>   1
Atom  84C    basis set group =>   1
Atom  85C    basis set group =>   1
Atom  86N    basis set group =>   2
Atom  87C    basis set group =>   1
Atom  88N    basis set group =>   2
Atom  89C    basis set group =>   1
Atom  90C    basis set group =>   1
Atom  91C    basis set group =>   1
Atom  92C    basis set group =>   1
Atom  93C    basis set group =>   1
Atom  94C    basis set group =>   1
Atom  95C    basis set group =>   1
Atom  96C    basis set group =>   1
Atom  97C    basis set group =>   1
Atom  98N    basis set group =>   2
Atom  99C    basis set group =>   1
Atom 100N    basis set group =>   2
Atom 101H    basis set group =>   5
Atom 102H    basis set group =>   5
Atom 103H    basis set group =>   5
Atom 104H    basis set group =>   5
Atom 105H    basis set group =>   5
Atom 106H    basis set group =>   5
Atom 107H    basis set group =>   5
Atom 108H    basis set group =>   5
Atom 109H    basis set group =>   5
Atom 110H    basis set group =>   5
Atom 111H    basis set group =>   5
Atom 112H    basis set group =>   5
Atom 113H    basis set group =>   5
Atom 114H    basis set group =>   5
Atom 115H    basis set group =>   5
Atom 116H    basis set group =>   5
Atom 117H    basis set group =>   5
Atom 118H    basis set group =>   5
Atom 119H    basis set group =>   5
Atom 120H    basis set group =>   5
Atom 121H    basis set group =>   5
Atom 122H    basis set group =>   5
Atom 123H    basis set group =>   5
Atom 124H    basis set group =>   5
Atom 125H    basis set group =>   5
Atom 126H    basis set group =>   5
Atom 127H    basis set group =>   5
Atom 128H    basis set group =>   5
Atom 129H    basis set group =>   5
Atom 130H    basis set group =>   5
Atom 131H    basis set group =>   5
Atom 132H    basis set group =>   5
Atom 133H    basis set group =>   5
Atom 134H    basis set group =>   5
Atom 135H    basis set group =>   5
Atom 136H    basis set group =>   5
Atom 137H    basis set group =>   5
Atom 138H    basis set group =>   5
Atom 139H    basis set group =>   5
Atom 140H    basis set group =>   5
---------------------------------
AUXILIARY/J BASIS SET INFORMATION
---------------------------------
There are 5 groups of distinct atoms

 Group   1 Type C   : 12s5p4d2f1g contracted to 6s4p3d1f1g pattern {711111/2111/211/2/1}
 Group   2 Type N   : 12s5p4d2f1g contracted to 6s4p3d1f1g pattern {711111/2111/211/2/1}
 Group   3 Type S   : 14s5p5d2f1g contracted to 8s4p3d1f1g pattern {71111111/2111/311/2/1}
 Group   4 Type Cl  : 14s5p5d2f1g contracted to 8s4p3d1f1g pattern {71111111/2111/311/2/1}
 Group   5 Type H   : 5s2p1d contracted to 3s1p1d pattern {311/2/1}

Atom   0C    basis set group =>   1
Atom   1C    basis set group =>   1
Atom   2C    basis set group =>   1
Atom   3C    basis set group =>   1
Atom   4C    basis set group =>   1
Atom   5C    basis set group =>   1
Atom   6C    basis set group =>   1
Atom   7C    basis set group =>   1
Atom   8C    basis set group =>   1
Atom   9N    basis set group =>   2
Atom  10C    basis set group =>   1
Atom  11N    basis set group =>   2
Atom  12C    basis set group =>   1
Atom  13C    basis set group =>   1
Atom  14C    basis set group =>   1
Atom  15C    basis set group =>   1
Atom  16N    basis set group =>   2
Atom  17C    basis set group =>   1
Atom  18N    basis set group =>   2
Atom  19C    basis set group =>   1
Atom  20C    basis set group =>   1
Atom  21C    basis set group =>   1
Atom  22C    basis set group =>   1
Atom  23C    basis set group =>   1
Atom  24C    basis set group =>   1
Atom  25C    basis set group =>   1
Atom  26C    basis set group =>   1
Atom  27C    basis set group =>   1
Atom  28C    basis set group =>   1
Atom  29C    basis set group =>   1
Atom  30C    basis set group =>   1
Atom  31C    basis set group =>   1
Atom  32C    basis set group =>   1
Atom  33C    basis set group =>   1
Atom  34C    basis set group =>   1
Atom  35C    basis set group =>   1
Atom  36C    basis set group =>   1
Atom  37C    basis set group =>   1
Atom  38C    basis set group =>   1
Atom  39C    basis set group =>   1
Atom  40C    basis set group =>   1
Atom  41C    basis set group =>   1
Atom  42C    basis set group =>   1
Atom  43C    basis set group =>   1
Atom  44C    basis set group =>   1
Atom  45C    basis set group =>   1
Atom  46C    basis set group =>   1
Atom  47S    basis set group =>   3
Atom  48C    basis set group =>   1
Atom  49Cl   basis set group =>   4
Atom  50C    basis set group =>   1
Atom  51C    basis set group =>   1
Atom  52C    basis set group =>   1
Atom  53C    basis set group =>   1
Atom  54S    basis set group =>   3
Atom  55C    basis set group =>   1
Atom  56C    basis set group =>   1
Atom  57C    basis set group =>   1
Atom  58C    basis set group =>   1
Atom  59S    basis set group =>   3
Atom  60C    basis set group =>   1
Atom  61Cl   basis set group =>   4
Atom  62C    basis set group =>   1
Atom  63C    basis set group =>   1
Atom  64S    basis set group =>   3
Atom  65C    basis set group =>   1
Atom  66C    basis set group =>   1
Atom  67C    basis set group =>   1
Atom  68C    basis set group =>   1
Atom  69S    basis set group =>   3
Atom  70C    basis set group =>   1
Atom  71C    basis set group =>   1
Atom  72C    basis set group =>   1
Atom  73C    basis set group =>   1
Atom  74C    basis set group =>   1
Atom  75N    basis set group =>   2
Atom  76C    basis set group =>   1
Atom  77N    basis set group =>   2
Atom  78C    basis set group =>   1
Atom  79C    basis set group =>   1
Atom  80S    basis set group =>   3
Atom  81C    basis set group =>   1
Atom  82C    basis set group =>   1
Atom  83C    basis set group =>   1
Atom  84C    basis set group =>   1
Atom  85C    basis set group =>   1
Atom  86N    basis set group =>   2
Atom  87C    basis set group =>   1
Atom  88N    basis set group =>   2
Atom  89C    basis set group =>   1
Atom  90C    basis set group =>   1
Atom  91C    basis set group =>   1
Atom  92C    basis set group =>   1
Atom  93C    basis set group =>   1
Atom  94C    basis set group =>   1
Atom  95C    basis set group =>   1
Atom  96C    basis set group =>   1
Atom  97C    basis set group =>   1
Atom  98N    basis set group =>   2
Atom  99C    basis set group =>   1
Atom 100N    basis set group =>   2
Atom 101H    basis set group =>   5
Atom 102H    basis set group =>   5
Atom 103H    basis set group =>   5
Atom 104H    basis set group =>   5
Atom 105H    basis set group =>   5
Atom 106H    basis set group =>   5
Atom 107H    basis set group =>   5
Atom 108H    basis set group =>   5
Atom 109H    basis set group =>   5
Atom 110H    basis set group =>   5
Atom 111H    basis set group =>   5
Atom 112H    basis set group =>   5
Atom 113H    basis set group =>   5
Atom 114H    basis set group =>   5
Atom 115H    basis set group =>   5
Atom 116H    basis set group =>   5
Atom 117H    basis set group =>   5
Atom 118H    basis set group =>   5
Atom 119H    basis set group =>   5
Atom 120H    basis set group =>   5
Atom 121H    basis set group =>   5
Atom 122H    basis set group =>   5
Atom 123H    basis set group =>   5
Atom 124H    basis set group =>   5
Atom 125H    basis set group =>   5
Atom 126H    basis set group =>   5
Atom 127H    basis set group =>   5
Atom 128H    basis set group =>   5
Atom 129H    basis set group =>   5
Atom 130H    basis set group =>   5
Atom 131H    basis set group =>   5
Atom 132H    basis set group =>   5
Atom 133H    basis set group =>   5
Atom 134H    basis set group =>   5
Atom 135H    basis set group =>   5
Atom 136H    basis set group =>   5
Atom 137H    basis set group =>   5
Atom 138H    basis set group =>   5
Atom 139H    basis set group =>   5
Atom 140H    basis set group =>   5


           ************************************************************
           *        Program running with 6 parallel MPI-processes     *
           *              working on a common directory               *
           ************************************************************
------------------------------------------------------------------------------
                           ORCA GTO INTEGRAL CALCULATION
                           -- RI-GTO INTEGRALS CHOSEN --
------------------------------------------------------------------------------

                         BASIS SET STATISTICS AND STARTUP INFO

Gaussian basis set:
 # of primitive gaussian shells          ... 1460
 # of primitive gaussian functions       ... 2800
 # of contracted shells                  ...  742
 # of contracted basis functions         ... 1646
 Highest angular momentum                ...    2
 Maximum contraction depth               ...    5
Auxiliary gaussian basis set:
 # of primitive gaussian shells          ... 2768
 # of primitive gaussian functions       ... 7766
 # of contracted shells                  ... 1731
 # of contracted aux-basis functions     ... 5405
 Highest angular momentum                ...    4
 Maximum contraction depth               ...    7
Ratio of auxiliary to basis functions    ...  3.28
Integral package used                  ... LIBINT
 One Electron integrals                  ... done
 Ordering auxiliary basis shells         ... done
 Integral threshhold             Thresh  ...  2.500e-11
 Primitive cut-off               TCut    ...  2.500e-12
 Pre-screening matrix                    ... done
 Shell pair data                         ... 
 Ordering of the shell pairs             ... done (   0.014 sec) 66403 of 275653 pairs
 Determination of significant pairs      ... done (   0.000 sec)
 Creation of shell pair data             ... done (   0.008 sec)
 Storage of shell pair data              ... done (   0.016 sec)
 Shell pair data done in (   0.038 sec)
 Computing two index integrals           ... done
 Cholesky decomposition of the V-matrix  ... done


Timings:
 Total evaluation time                   ...   4.300 sec (  0.072 min)
 One electron matrix time                ...   1.121 sec (  0.019 min) = 26.1%
 Schwartz matrix evaluation time         ...   1.206 sec (  0.020 min) = 28.1%
 Two index repulsion integral time       ...   0.677 sec (  0.011 min) = 15.7%
 Cholesky decomposition of V             ...   1.239 sec (  0.021 min) = 28.8%
 Three index repulsion integral time     ...   0.000 sec (  0.000 min) =  0.0%



           ************************************************************
           *        Program running with 6 parallel MPI-processes     *
           *              working on a common directory               *
           ************************************************************
-------------------------------------------------------------------------------
                                 ORCA SCF
-------------------------------------------------------------------------------

------------
SCF SETTINGS
------------
Hamiltonian:
 Density Functional     Method          .... DFT(GTOs)
 Exchange Functional    Exchange        .... WB88
 Correlation Functional Correlation     .... LYP
 LDA part of GGA corr.  LDAOpt          .... VWN-5
 Gradients option       PostSCFGGA      .... off
 Hybrid DFT is turned on
   Fraction HF Exchange ScalHFX         ....  0.190000
   Scaling of DF-GGA-X  ScalDFX         ....  0.350000
   Scaling of DF-GGA-C  ScalDFC         ....  0.810000
   Scaling of DF-LDA-C  ScalLDAC        ....  1.000000
   Perturbative correction              ....  0.000000
   Density functional embedding theory  .... OFF
 Long-range corrected/Screened/Range-Separated Hybrid DFT is turned on
   Amount of maximum screened exact exchange              ....  0.460000
   Range separation parameter mu (erf(mu*r12)/r12)        ....  0.330000
 RI-approximation to the Coulomb term is turned on
   Number of auxiliary basis functions  .... 5405
   RIJ-COSX (HFX calculated with COS-X)).... on


General Settings:
 Integral files         IntName         .... xtbopt
 Hartree-Fock type      HFTyp           .... RHF
 Total Charge           Charge          ....    0
 Multiplicity           Mult            ....    1
 Number of Electrons    NEL             ....  738
 Basis Dimension        Dim             .... 1646
 Nuclear Repulsion      ENuc            ....  17238.0122919303 Eh

Convergence Acceleration:
 DIIS                   CNVDIIS         .... on
   Start iteration      DIISMaxIt       ....    12
   Startup error        DIISStart       ....  0.200000
   # of expansion vecs  DIISMaxEq       ....     5
   Bias factor          DIISBfac        ....   1.050
   Max. coefficient     DIISMaxC        ....  10.000
 Newton-Raphson         CNVNR           .... off
 SOSCF                  CNVSOSCF        .... on
   Start iteration      SOSCFMaxIt      ....   150
   Startup grad/error   SOSCFStart      ....  0.003300
 Level Shifting         CNVShift        .... on
   Level shift para.    LevelShift      ....    0.2500
   Turn off err/grad.   ShiftErr        ....    0.0010
 Zerner damping         CNVZerner       .... off
 Static damping         CNVDamp         .... on
   Fraction old density DampFac         ....    0.7000
   Max. Damping (<1)    DampMax         ....    0.9800
   Min. Damping (>=0)   DampMin         ....    0.0000
   Turn off err/grad.   DampErr         ....    0.1000
 Fernandez-Rico         CNVRico         .... off

SCF Procedure:
 Maximum # iterations   MaxIter         ....   125
 SCF integral mode      SCFMode         .... Direct
   Integral package                     .... LIBINT
 Reset frequency        DirectResetFreq ....    20
 Integral Threshold     Thresh          ....  2.500e-11 Eh
 Primitive CutOff       TCut            ....  2.500e-12 Eh

Convergence Tolerance:
 Convergence Check Mode ConvCheckMode   .... Total+1el-Energy
 Convergence forced     ConvForced      .... 1
 Energy Change          TolE            ....  1.000e-08 Eh
 1-El. energy change                    ....  1.000e-05 Eh
 Orbital Gradient       TolG            ....  1.000e-05
 Orbital Rotation angle TolX            ....  1.000e-05
 DIIS Error             TolErr          ....  5.000e-07


Diagonalization of the overlap matrix:
Smallest eigenvalue                        ... 1.632e-04
Time for diagonalization                   ...    0.411 sec
Threshold for overlap eigenvalues          ... 1.000e-08
Number of eigenvalues below threshold      ... 0
Time for construction of square roots      ...    0.298 sec
Total time needed                          ...    0.715 sec

-------------------
DFT GRID GENERATION
-------------------

General Integration Accuracy     IntAcc      ...  4.670
Radial Grid Type                 RadialGrid  ... Gauss-Chebyshev
Angular Grid (max. acc.)         AngularGrid ... Lebedev-302
Angular grid pruning method      GridPruning ... 3 (G Style)
Weight generation scheme         WeightScheme... Becke
Basis function cutoff            BFCut       ...    1.0000e-11
Integration weight cutoff        WCut        ...    1.0000e-14
Grids for H and He will be reduced by one unit

# of grid points (after initial pruning)     ... 768028 (   0.1 sec)
# of grid points (after weights+screening)   ... 654135 (  18.0 sec)
nearest neighbour list constructed           ...    0.0 sec
Grid point re-assignment to atoms done       ...    0.1 sec
Grid point division into batches done        ...    2.3 sec
Reduced shell lists constructed in    3.8 sec

Total number of grid points                  ...   654135
Total number of batches                      ...    10294
Average number of points per batch           ...       63
Average number of grid points per atom       ...     4639
Average number of shells per batch           ...   104.22 (14.05%)
Average number of basis functions per batch  ...   216.33 (13.14%)
Average number of large shells per batch     ...    63.10 (60.54%)
Average number of large basis fcns per batch ...   133.42 (61.67%)
Maximum spatial batch extension              ...  21.67, 17.27, 21.65 au
Average spatial batch extension              ...   0.35,  0.32,  0.34 au

Time for grid setup =   22.162 sec

------------------------------
INITIAL GUESS: MODEL POTENTIAL
------------------------------
Loading Hartree-Fock densities                     ... done
Calculating cut-offs                               ... done
Setting up the integral package                    ... done
Initializing the effective Hamiltonian             ... done
Starting the Coulomb interaction                   ... done (   2.7 sec)
Reading the grid                                   ... done
Mapping shells                                     ... done
Starting the XC term evaluation                    ... done (   2.1 sec)
  promolecular density results
     # of electrons  =    737.977569085
     EX              =   -705.979632261
     EC              =    -25.641798100
     EX+EC           =   -731.621430361
Transforming the Hamiltonian                       ... done (   0.2 sec)
Diagonalizing the Hamiltonian                      ... done (   0.4 sec)
Back transforming the eigenvectors                 ... done (   0.1 sec)
Now organizing SCF variables                       ... done
                      ------------------
                      INITIAL GUESS DONE (  27.9 sec)
                      ------------------
--------------------
COSX GRID GENERATION
--------------------

General Integration Accuracy     IntAcc      ...  3.340
Radial Grid Type                 RadialGrid  ... Gauss-Chebyshev
Angular Grid (max. acc.)         AngularGrid ... Lebedev-50
Angular grid pruning method      GridPruning ... 3 (G Style)
Weight generation scheme         WeightScheme... Becke
Basis function cutoff            BFCut       ...    1.0000e-11
Integration weight cutoff        WCut        ...    1.0000e-14
Grids for H and He will be reduced by one unit

# of grid points (after initial pruning)     ...  72248 (   0.0 sec)
# of grid points (after weights+screening)   ...  64420 (   1.7 sec)
nearest neighbour list constructed           ...    0.0 sec
Grid point re-assignment to atoms done       ...    0.0 sec
Grid point division into batches done        ...    0.0 sec
Reduced shell lists constructed in    0.2 sec

Total number of grid points                  ...    64420
Total number of batches                      ...     1083
Average number of points per batch           ...       59
Average number of grid points per atom       ...      457
Average number of shells per batch           ...   123.72 (16.67%)
Average number of basis functions per batch  ...   258.92 (15.73%)
Average number of large shells per batch     ...    75.18 (60.77%)
Average number of large basis fcns per batch ...   160.97 (62.17%)
Maximum spatial batch extension              ...  15.54, 17.43, 19.19 au
Average spatial batch extension              ...   0.79,  0.69,  0.76 au

Overlap Fitting                  UseSFitting ... on
Constructing numerical overlap ... done (      0.1 sec)
Inverting numerical overlap    ... done (      0.1 sec)
Obtaining analytic overlap     ... done (      0.0 sec)
Final contraction and storage  ... done (      0.2 sec)


General Integration Accuracy     IntAcc      ...  3.670
Radial Grid Type                 RadialGrid  ... Gauss-Chebyshev
Angular Grid (max. acc.)         AngularGrid ... Lebedev-50
Angular grid pruning method      GridPruning ... 3 (G Style)
Weight generation scheme         WeightScheme... Becke
Basis function cutoff            BFCut       ...    1.0000e-11
Integration weight cutoff        WCut        ...    1.0000e-14
Grids for H and He will be reduced by one unit

# of grid points (after initial pruning)     ...  90010 (   0.0 sec)
# of grid points (after weights+screening)   ...  79947 (   2.0 sec)
nearest neighbour list constructed           ...    0.0 sec
Grid point re-assignment to atoms done       ...    0.0 sec
Grid point division into batches done        ...    0.0 sec
Reduced shell lists constructed in    0.2 sec

Total number of grid points                  ...    79947
Total number of batches                      ...     1317
Average number of points per batch           ...       60
Average number of grid points per atom       ...      567
Average number of shells per batch           ...   121.12 (16.32%)
Average number of basis functions per batch  ...   253.50 (15.40%)
Average number of large shells per batch     ...    73.54 (60.72%)
Average number of large basis fcns per batch ...   157.06 (61.96%)
Maximum spatial batch extension              ...  16.52, 17.11, 19.63 au
Average spatial batch extension              ...   0.66,  0.61,  0.66 au

Overlap Fitting                  UseSFitting ... on
Constructing numerical overlap ... done (      0.1 sec)
Inverting numerical overlap    ... done (      0.1 sec)
Obtaining analytic overlap     ... done (      0.0 sec)
Final contraction and storage  ... done (      0.2 sec)


General Integration Accuracy     IntAcc      ...  4.010
Radial Grid Type                 RadialGrid  ... Gauss-Chebyshev
Angular Grid (max. acc.)         AngularGrid ... Lebedev-110
Angular grid pruning method      GridPruning ... 3 (G Style)
Weight generation scheme         WeightScheme... Becke
Basis function cutoff            BFCut       ...    1.0000e-11
Integration weight cutoff        WCut        ...    1.0000e-14
Grids for H and He will be reduced by one unit

# of grid points (after initial pruning)     ... 176348 (   0.0 sec)
# of grid points (after weights+screening)   ... 155022 (   4.3 sec)
nearest neighbour list constructed           ...    0.0 sec
Grid point re-assignment to atoms done       ...    0.0 sec
Grid point division into batches done        ...    0.1 sec
Reduced shell lists constructed in    0.5 sec

Total number of grid points                  ...   155022
Total number of batches                      ...     2493
Average number of points per batch           ...       62
Average number of grid points per atom       ...     1099
Average number of shells per batch           ...   113.37 (15.28%)
Average number of basis functions per batch  ...   236.95 (14.40%)
Average number of large shells per batch     ...    69.11 (60.96%)
Average number of large basis fcns per batch ...   147.30 (62.16%)
Maximum spatial batch extension              ...  19.40, 16.81, 18.71 au
Average spatial batch extension              ...   0.58,  0.52,  0.56 au

Overlap Fitting                  UseSFitting ... on
Constructing numerical overlap ... done (      0.2 sec)
Inverting numerical overlap    ... done (      0.1 sec)
Obtaining analytic overlap     ... done (      0.0 sec)
Final contraction and storage  ... done (      0.2 sec)

Time for X-Grid setup             =   10.652 sec
--------------
SCF ITERATIONS
--------------
ITER       Energy         Delta-E        Max-DP      RMS-DP      [F,P]     Damp
               ***  Starting incremental Fock matrix formation  ***
  0  -7035.9859628440   0.000000000000 0.08050636  0.00084012  0.2389184 0.7000
  1  -7036.8774238249  -0.891460980856 0.05043170  0.00058105  0.0941436 0.7000
                               ***Turning on DIIS***
  2  -7037.2387172212  -0.361293396341 0.09314109  0.00106215  0.0412917 0.0000
  3  -7037.8502932574  -0.611576036241 0.05707450  0.00046573  0.0506289 0.0000
  4  -7037.9592630864  -0.108969828954 0.01705723  0.00014398  0.0278070 0.0000
  5  -7037.9705128680  -0.011249781586 0.00660122  0.00005369  0.0060734 0.0000
                      *** Initiating the SOSCF procedure ***
                           *** Shutting down DIIS ***
                      *** Re-Reading the Fockian *** 
                      *** Removing any level shift *** 
ITER      Energy       Delta-E        Grad      Rot      Max-DP    RMS-DP
  6  -7037.97188171  -0.0013688407  0.002530  0.002530  0.003044  0.000030
               *** Restarting incremental Fock matrix formation ***
  7  -7037.97228409  -0.0004023836  0.001941  0.013055  0.003125  0.000033
  8  -7037.97267802  -0.0003939296  0.000563  0.010996  0.004714  0.000037
  9  -7037.97271002  -0.0000319962  0.000663  0.003032  0.001351  0.000012
 10  -7037.97278611  -0.0000760962  0.000207  0.001559  0.000785  0.000006
 11  -7037.97278538   0.0000007342  0.000328  0.000560  0.000369  0.000004
 12  -7037.97279214  -0.0000067645  0.000086  0.000251  0.000264  0.000002
 13  -7037.97279217  -0.0000000297  0.000040  0.000111  0.000092  0.000001
 14  -7037.97279265  -0.0000004722  0.000013  0.000088  0.000041  0.000000
 15  -7037.97279274  -0.0000000916  0.000014  0.000060  0.000029  0.000000
 16  -7037.97279271   0.0000000285  0.000004  0.000050  0.000015  0.000000
 17  -7037.97279269   0.0000000232  0.000004  0.000016  0.000008  0.000000
                  ***Gradient check signals convergence***
              ***Rediagonalizing the Fockian in SOSCF/NRSCF***

               *****************************************************
               *                     SUCCESS                       *
               *           SCF CONVERGED AFTER  18 CYCLES          *
               *****************************************************

Setting up the final grid:

General Integration Accuracy     IntAcc      ...  5.010
Radial Grid Type                 RadialGrid  ... Gauss-Chebyshev
Angular Grid (max. acc.)         AngularGrid ... Lebedev-434
Angular grid pruning method      GridPruning ... 3 (G Style)
Weight generation scheme         WeightScheme... Becke
Basis function cutoff            BFCut       ...    1.0000e-11
Integration weight cutoff        WCut        ...    1.0000e-14
Grids for H and He will be reduced by one unit

# of grid points (after initial pruning)     ... 1355722 (   0.1 sec)
# of grid points (after weights+screening)   ... 1150714 (  30.1 sec)
nearest neighbour list constructed           ...    0.0 sec
Grid point re-assignment to atoms done       ...    0.2 sec
[...]
State   Energy  Wavelength   fosc         T2         TX        TY        TZ  
        (cm-1)    (nm)                  (au**2)     (au)      (au)      (au) 
-----------------------------------------------------------------------------
   0   11924.0    838.6   0.462480198  12.76870   0.63890   3.22086   1.40945
   1   17015.1    587.7   0.054281729   1.05026   0.51657  -0.57640  -0.67169
   2   18897.4    529.2   1.196310808  20.84097  -1.26530  -4.19904  -1.26810
   3   20129.7    496.8   0.646738422  10.57712  -0.91942   2.81668   1.34093
   4   21563.5    463.7   0.160247433   2.44651  -0.23457  -1.01862  -1.16357
   5   21973.9    455.1   0.184557728   2.76504  -0.13290  -0.99726  -1.32395
   6   22742.5    439.7   0.361034772   5.22620  -0.95549   1.37244   1.55873
   7   24129.1    414.4   0.174063153   2.37488   1.16328  -0.12471  -1.00305
   8   24544.1    407.4   0.056519778   0.75810   0.85769   0.08407  -0.12408
   9   25283.2    395.5   0.301669512   3.92803   0.67649  -1.27277  -1.36031
  10   26446.1    378.1   0.428757043   5.33735   0.90700  -1.81518  -1.10446
  11   26896.4    371.8   0.077071089   0.94335   0.70774   0.63468   0.19906
  12   27294.8    366.4   0.359818292   4.33989  -0.39065  -1.54031  -1.34712
  13   27575.7    362.6   0.022160333   0.26456   0.26181   0.44265   0.00855
  14   27936.4    358.0   0.095660406   1.12729   0.54788  -0.21810  -0.88292
  15   27996.3    357.2   0.025400199   0.29868   0.43406   0.32429  -0.07149
  16   28376.6    352.4   0.077122390   0.89474  -0.78555   0.36341   0.38154
  17   29011.0    344.7   0.049710920   0.56411  -0.16874  -0.55591  -0.47602
  18   29396.4    340.2   0.109889125   1.23066  -1.06696  -0.01919   0.30314
  19   29760.1    336.0   0.123281151   1.36376   1.10154   0.29342  -0.25351
  20   30197.1    331.2   0.030491011   0.33242   0.39676  -0.28644  -0.30487
  21   30766.2    325.0   0.030365553   0.32492   0.26966  -0.14507  -0.48080
  22   30928.3    323.3   0.531207984   5.65437  -1.13345  -1.89440  -0.88368
  23   31015.6    322.4   0.159488583   1.69287   0.35064   1.10270   0.59496
  24   31102.3    321.5   0.179821947   1.90338  -0.74138  -0.93722   0.68947
  25   31206.3    320.4   0.059946836   0.63241  -0.20438   0.42273   0.64182
  26   31286.5    319.6   0.096650157   1.01700   0.63066   0.72432  -0.30762
  27   31458.5    317.9   0.079339827   0.83029   0.79448   0.18990  -0.40377
  28   31762.0    314.8   0.116880872   1.21147  -0.12641   0.69551   0.84366
  29   31862.6    313.8   0.221586700   2.28949  -0.65086  -0.99699  -0.93374
  30   32063.7    311.9   0.120764943   1.23995   0.85716   0.63886   0.31158
  31   32499.9    307.7   0.079241429   0.80269   0.02631   0.71618   0.53767
  32   32899.1    304.0   0.020666467   0.20680  -0.18919  -0.14138   0.38862
  33   33043.2    302.6   0.427544549   4.25965   0.88004  -0.21994  -1.85387
  34   33094.3    302.2   0.116343291   1.15735  -0.45869   0.12423   0.96515
  35   33379.1    299.6   0.086606077   0.85418   0.12733  -0.16895  -0.89968
  36   33444.1    299.0   0.055108402   0.54247   0.60328  -0.03564   0.42101
  37   34405.3    290.7   0.024581393   0.23521   0.12418   0.42505   0.19779
  38   34538.1    289.5   0.016659132   0.15879   0.38300   0.09790  -0.05017
  39   34675.1    288.4   0.025124441   0.23854   0.46135  -0.15065  -0.05469
  40   34847.8    287.0   0.013348176   0.12610   0.23737  -0.06068  -0.25705
  41   34946.7    286.2   0.047691551   0.44927   0.22594  -0.27685  -0.56708
  42   35188.7    284.2   0.351842225   3.29170   0.43401  -0.43344  -1.70747
  43   35224.3    283.9   0.498412889   4.65825  -2.10918  -0.44785   0.09499
  44   35554.9    281.3   0.324660185   3.00611  -1.51122  -0.08799   0.84533
  45   35696.7    280.1   0.164920266   1.52098  -0.87797  -0.86266   0.07722
  46   35802.5    279.3   0.240228030   2.20895   1.00680   1.06962   0.22629
  47   36147.4    276.6   0.071793950   0.65386   0.62802   0.44214  -0.25290
  48   36383.5    274.8   0.011973427   0.10834  -0.12784   0.16097   0.25707
  49   36542.7    273.7   0.020269299   0.18261   0.42604  -0.01231  -0.03066
  50   36775.9    271.9   0.103803427   0.92923   0.37945  -0.75666  -0.46121
  51   37065.6    269.8   0.039768944   0.35322   0.21008  -0.48726  -0.26771
  52   37407.5    267.3   0.002887382   0.02541   0.04737   0.02335  -0.15040
  53   37527.1    266.5   0.023238288   0.20386  -0.16398   0.02960   0.41964
  54   37591.8    266.0   0.005469918   0.04790   0.06419   0.04934   0.20334
  55   37902.1    263.8   0.013470539   0.11700  -0.25660  -0.09041   0.20733
  56   38049.5    262.8   0.015890736   0.13749  -0.32728  -0.17396   0.01081
  57   38184.9    261.9   0.004780996   0.04122  -0.15682   0.01355   0.12823
  58   38292.0    261.2   0.010058610   0.08648  -0.06428  -0.07800   0.27616
  59   38391.0    260.5   0.003665610   0.03143  -0.10088  -0.14030   0.03966
  60   38668.3    258.6   0.022998726   0.19581  -0.14491  -0.41011  -0.08136
  61   38915.8    257.0   0.052580270   0.44481  -0.31195  -0.53291  -0.25200
  62   38988.8    256.5   0.041291979   0.34866  -0.25665   0.48984   0.20699
  63   39153.9    255.4   0.005701064   0.04794  -0.12801  -0.17315   0.03961
  64   39179.9    255.2   0.017065888   0.14340  -0.03625   0.31475   0.20740
  65   39452.9    253.5   0.059022781   0.49251  -0.37531  -0.59291   0.01086
  66   39644.0    252.2   0.013450299   0.11169   0.01070  -0.30504  -0.13612
  67   39714.6    251.8   0.015392170   0.12759   0.16438   0.29622   0.11326
  68   39788.6    251.3   0.022909724   0.18956   0.16530  -0.30543  -0.26257
  69   39881.7    250.7   0.096543720   0.79694  -0.57760  -0.58396   0.34972
  70   39999.2    250.0   0.027890946   0.22956   0.37039  -0.00238  -0.30391
  71   40217.9    248.6   0.016741566   0.13704   0.03576   0.29543   0.22019
  72   40292.5    248.2   0.023412890   0.19130  -0.36915   0.01973   0.23375

-----------------------------------------------------------------------------
         ABSORPTION SPECTRUM VIA TRANSITION VELOCITY DIPOLE MOMENTS
-----------------------------------------------------------------------------
State   Energy  Wavelength   fosc         P2         PX        PY        PZ  
        (cm-1)    (nm)                  (au**2)     (au)      (au)      (au) 
-----------------------------------------------------------------------------
   0   11924.0    838.6   0.651237294   0.05307   0.04140   0.20760   0.09089
   1   17015.1    587.7   0.061296268   0.00713   0.04403  -0.04686  -0.05471
   2   18897.4    529.2   1.304948255   0.16854  -0.11844  -0.37718  -0.11065
   3   20129.7    496.8   0.659597490   0.09075  -0.08792   0.25984   0.12449
   4   21563.5    463.7   0.150613787   0.02220  -0.01698  -0.09337  -0.11485
   5   21973.9    455.1   0.197934737   0.02973  -0.01398  -0.10370  -0.13703
   6   22742.5    439.7   0.362616920   0.05636  -0.10028   0.14101   0.16255
   7   24129.1    414.4   0.176490631   0.02911   0.13038  -0.01185  -0.10939
   8   24544.1    407.4   0.051322804   0.00861   0.09142   0.01069  -0.01168
   9   25283.2    395.5   0.310291193   0.05362   0.07881  -0.15030  -0.15753
  10   26446.1    378.1   0.430496853   0.07781   0.10923  -0.21892  -0.13400
  11   26896.4    371.8   0.075776941   0.01393   0.08637   0.07683   0.02382
  12   27294.8    366.4   0.332642430   0.06205  -0.04585  -0.18368  -0.16190
  13   27575.7    362.6   0.018444738   0.00348   0.03361   0.04831  -0.00360
  14   27936.4    358.0   0.093418739   0.01784   0.06956  -0.02700  -0.11076
  15   27996.3    357.2   0.023042640   0.00441   0.05448   0.03636  -0.01088
  16   28376.6    352.4   0.078008344   0.01513  -0.10342   0.04506   0.04902
  17   29011.0    344.7   0.052289097   0.01037  -0.02310  -0.07744  -0.06194
  18   29396.4    340.2   0.098943116   0.01988  -0.13545  -0.00687   0.03852
  19   29760.1    336.0   0.113391511   0.02306   0.14286   0.03956  -0.03299
  20   30197.1    331.2   0.026837772   0.00554   0.04742  -0.04133  -0.03978
  21   30766.2    325.0   0.026159506   0.00550   0.03601  -0.01800  -0.06229
  22   30928.3    323.3   0.490769649   0.10374  -0.15718  -0.25581  -0.11660
  23   31015.6    322.4   0.148167875   0.03141   0.05180   0.14969   0.07948
  24   31102.3    321.5   0.174384007   0.03707  -0.10725  -0.13094   0.09177
  25   31206.3    320.4   0.055628036   0.01186  -0.02885   0.05963   0.08647
  26   31286.5    319.6   0.080553587   0.01722   0.07817   0.09729  -0.04062
  27   31458.5    317.9   0.071853735   0.01545   0.10808   0.02528  -0.05594
  28   31762.0    314.8   0.105364473   0.02287  -0.01930   0.09491   0.11615
  29   31862.6    313.8   0.205931321   0.04484  -0.09081  -0.14110  -0.12918
  30   32063.7    311.9   0.108045853   0.02368   0.11782   0.08948   0.04230
  31   32499.9    307.7   0.069727874   0.01549   0.00246   0.09966   0.07450
  32   32899.1    304.0   0.019313088   0.00434  -0.02744  -0.02535   0.05429
  33   33043.2    302.6   0.375987176   0.08491   0.12433  -0.03187  -0.26160
  34   33094.3    302.2   0.098687855   0.02232  -0.06332   0.01704   0.13424
  35   33379.1    299.6   0.076955986   0.01756   0.02029  -0.02338  -0.12883
  36   33444.1    299.0   0.048278333   0.01104   0.08479  -0.00532   0.06178
  37   34405.3    290.7   0.021948981   0.00516   0.02111   0.06296   0.02742
  38   34538.1    289.5   0.013078893   0.00309   0.05298   0.01516  -0.00708
  39   34675.1    288.4   0.023846519   0.00565   0.07109  -0.02251  -0.00956
  40   34847.8    287.0   0.010669050   0.00254   0.03145  -0.00933  -0.03828
  41   34946.7    286.2   0.046260408   0.01105   0.03861  -0.04150  -0.08852
  42   35188.7    284.2   0.307486793   0.07395   0.06654  -0.06496  -0.25554
  43   35224.3    283.9   0.446577130   0.10751  -0.32052  -0.06700   0.01688
  44   35554.9    281.3   0.283748478   0.06895  -0.22923  -0.01371   0.12735
  45   35696.7    280.1   0.154540490   0.03770  -0.13801  -0.13606   0.01189
  46   35802.5    279.3   0.211371073   0.05172   0.15284   0.16483   0.03451
  47   36147.4    276.6   0.061919634   0.01530   0.09692   0.06740  -0.03691
  48   36383.5    274.8   0.010969480   0.00273  -0.01835   0.02715   0.04066
  49   36542.7    273.7   0.017260390   0.00431   0.06531  -0.00309  -0.00603
  50   36775.9    271.9   0.088371780   0.02221   0.06025  -0.11644  -0.07088
  51   37065.6    269.8   0.035738851   0.00905   0.03375  -0.07813  -0.04254
  52   37407.5    267.3   0.002110722   0.00054   0.00458   0.00294  -0.02258
  53   37527.1    266.5   0.021013849   0.00539  -0.02682   0.00617   0.06806
  54   37591.8    266.0   0.004901433   0.00126   0.01192   0.00958   0.03202
  55   37902.1    263.8   0.012513556   0.00324  -0.04245  -0.01545   0.03466
  56   38049.5    262.8   0.014625798   0.00380  -0.05577  -0.02605   0.00386
  57   38184.9    261.9   0.003913244   0.00102  -0.02253   0.00136   0.02262
  58   38292.0    261.2   0.009383751   0.00246  -0.01412  -0.00897   0.04665
  59   38391.0    260.5   0.003391605   0.00089  -0.01466  -0.02560   0.00439
  60   38668.3    258.6   0.019063960   0.00504  -0.02243  -0.06605  -0.01312
  61   38915.8    257.0   0.043149187   0.01148  -0.05021  -0.08638  -0.03866
  62   38988.8    256.5   0.036610645   0.00976  -0.04399   0.08042   0.03679
  63   39153.9    255.4   0.004854087   0.00130  -0.02077  -0.02909   0.00463
  64   39179.9    255.2   0.013828505   0.00370  -0.00413   0.05041   0.03383
  65   39452.9    253.5   0.051612866   0.01392  -0.06251  -0.10003  -0.00163
  66   39644.0    252.2   0.009536381   0.00258   0.00163  -0.04605  -0.02147
  67   39714.6    251.8   0.011656677   0.00316   0.02812   0.04552   0.01734
  68   39788.6    251.3   0.018313487   0.00498   0.02706  -0.04621  -0.04596
  69   39881.7    250.7   0.077356641   0.02109  -0.09527  -0.09351   0.05714
  70   39999.2    250.0   0.023772596   0.00650   0.06401  -0.00105  -0.04899
  71   40217.9    248.6   0.014558780   0.00400   0.00880   0.05044   0.03716
  72   40292.5    248.2   0.017958152   0.00495  -0.05993   0.00268   0.03670

-------------------------------------------------------------------
                             CD SPECTRUM
-------------------------------------------------------------------
State   Energy Wavelength       R         MX        MY        MZ   
        (cm-1)   (nm)       (1e40*cgs)   (au)      (au)      (au)  
-------------------------------------------------------------------
   0   11924.0    838.6    -17.97167   0.88686  -0.26738   0.26310
   1   17015.1    587.7     40.90902  -1.53610   0.71393  -1.53563
   2   18897.4    529.2    -467.96098   1.01135  -1.59580   2.70952
   3   20129.7    496.8    474.18691   4.80379  -1.90301   5.79092
   4   21563.5    463.7     39.66498  -3.36011   1.33049  -0.34274
   5   21973.9    455.1    116.42463  -4.99608   1.46116  -0.22605
   6   22742.5    439.7    -170.18926   2.12211  -1.83643   3.38097
   7   24129.1    414.4    -16.03979  -4.10948   2.79296  -5.18105
   8   24544.1    407.4    -153.05177   0.12489   1.05934  -3.65190
   9   25283.2    395.5    -150.88199  -2.64060   2.09263  -3.74169
  10   26446.1    378.1    144.61491  -3.51074   1.84999  -5.36803
  11   26896.4    371.8      9.11455  -0.02199   0.96896  -3.20542
  12   27294.8    366.4     62.32904  -4.45770   1.85435  -0.63131
  13   27575.7    362.6    104.51807  -2.57838   0.53398  -0.55162
  14   27936.4    358.0     33.11288  -1.09528   0.94553  -0.75411
  15   27996.3    357.2    -65.74873   0.44705   0.11278  -0.67573
  16   28376.6    352.4    -108.21842   1.23707  -2.22899   5.87332
  17   29011.0    344.7      8.20095  -1.04738   0.61830  -0.27771
  18   29396.4    340.2     12.98171   1.79203  -2.25755   5.98283
  19   29760.1    336.0      6.23422  -2.15157   2.53318  -6.31255
  20   30197.1    331.2      7.96405  -1.36481   1.22959  -2.82063
  21   30766.2    325.0     10.87052  -3.08080   2.12452  -2.27300
  22   30928.3    323.3    380.37409  -0.55774  -0.53450   3.68728
  23   31015.6    322.4    110.94200  -0.38654   0.11811  -0.78217
  24   31102.3    321.5    -323.65602   1.12615  -1.63397   0.98128
  25   31206.3    320.4    -19.56416  -1.26639  -0.05565  -0.23730
  26   31286.5    319.6    -113.05300   0.97256  -0.00987   0.41155
  27   31458.5    317.9    -361.66095   1.00113   0.35859  -1.66133
  28   31762.0    314.8      1.49848   2.94257  -1.68532   1.82273
  29   31862.6    313.8     63.16594  -4.27060   0.70054   2.51577
  30   32063.7    311.9    -14.09170   1.11762   0.34849  -3.59729
  31   32499.9    307.7     77.46322   1.98549  -0.33161  -0.26666
  32   32899.1    304.0     33.69342   3.50312  -1.48181   0.79853
  33   33043.2    302.6    203.99355 -13.72750   6.59849  -6.83252
  34   33094.3    302.2    -26.85420   1.79546  -1.54185   1.16979
  35   33379.1    299.6    142.16738  -6.61153   2.27086  -0.69179
  36   33444.1    299.0    -320.42162   4.06679  -0.90305  -2.67519
  37   34405.3    290.7      0.14299   0.16438  -0.24476   0.41972
  38   34538.1    289.5      4.76317  -0.09606  -0.07706  -0.48095
  39   34675.1    288.4     73.26342  -0.72506   1.55153  -4.70716
  40   34847.8    287.0     54.83948  -0.06847  -0.29776   0.91212
  41   34946.7    286.2    -87.08124  -1.04777   1.44630  -1.77501
  42   35188.7    284.2    317.76192  -0.77816   1.90656   0.10772
  43   35224.3    283.9    -411.43350   0.82685  -4.66620  14.73390
  44   35554.9    281.3     37.64408   7.09653  -6.22337  11.85000
  45   35696.7    280.1     71.37675   0.07414   0.22188  -0.59965
  46   35802.5    279.3    -200.90012   1.85844  -0.95090  -0.00752
  47   36147.4    276.6     97.28344  -0.47179  -0.09894   0.28731
  48   36383.5    274.8     43.65835   1.13368  -0.25030   0.00004
  49   36542.7    273.7     11.24437  -0.35082   1.29803  -3.83999
  50   36775.9    271.9     78.63218  -2.62043   2.10987  -4.89414
  51   37065.6    269.8     38.03729  -1.57974   1.23504  -2.88485
  52   37407.5    267.3     18.41690  -0.95658   0.16574   0.24390
  53   37527.1    266.5     51.98442   3.06713  -1.15975   0.75482
  54   37591.8    266.0    -49.79435   2.32301  -0.74326   0.48585
  55   37902.1    263.8     26.93568   0.73989  -0.46398   0.16226
  56   38049.5    262.8    -61.60884  -0.86591   0.13922   0.20219
  57   38184.9    261.9     17.96543   0.84325  -0.56942   0.49706
  58   38292.0    261.2     39.82257   1.87802  -0.28332  -0.25465
  59   38391.0    260.5      1.35767   0.00932   0.01843  -0.05631
  60   38668.3    258.6    -13.47726  -0.42047   0.03639  -0.13725
  61   38915.8    257.0    -21.65469  -1.08479   0.07803   0.81330
  62   38988.8    256.5    118.14876   2.13291  -1.68776   4.21715
  63   39153.9    255.4    -23.16337   0.66416  -0.71313   1.50997
  64   39179.9    255.2     12.09649   0.63341  -0.17372   0.12692
  65   39452.9    253.5    -97.36910   0.53246  -1.00148   1.76023
  66   39644.0    252.2      5.33651  -0.95439   0.64561  -1.35553
  67   39714.6    251.8    -23.47216   0.86258  -0.35786   0.56320
  68   39788.6    251.3     30.05005  -0.45302   0.14083   0.03649
  69   39881.7    250.7    -21.63727   1.00460  -0.74677   0.67474
  70   39999.2    250.0    -51.92592  -2.32003   1.80176  -3.56646
  71   40217.9    248.6     11.41332   0.47084   0.21338  -0.58265
  72   40292.5    248.2     -5.55719   1.24473  -1.03848   2.15430

sTD-DFT done

Total run time:        8.532 sec

           *** ORCA-CIS/TD-DFT FINISHED WITHOUT ERROR ***

-------------------------   --------------------
FINAL SINGLE POINT ENERGY     -7037.970707848195
-------------------------   --------------------


                            ***************************************
                            *     ORCA property calculations      *
                            ***************************************

                                    ---------------------
                                    Active property flags
                                    ---------------------
   (+) Dipole Moment


------------------------------------------------------------------------------
                       ORCA ELECTRIC PROPERTIES CALCULATION
------------------------------------------------------------------------------

Dipole Moment Calculation                       ... on
Quadrupole Moment Calculation                   ... off
Polarizability Calculation                      ... off
GBWName                                         ... xtbopt.gbw
Electron density file                           ... xtbopt.scfp
The origin for moment calculation is the CENTER OF MASS  = (-11.573656, -29.582710 -6.149522)

-------------
DIPOLE MOMENT
-------------
                                X             Y             Z
Electronic contribution:     23.10135    -111.47255     -78.10204
Nuclear contribution   :    -23.65314     114.14182      80.09666
                        -----------------------------------------
Total Dipole Moment    :     -0.55180       2.66928       1.99463
                        -----------------------------------------
Magnitude (a.u.)       :      3.37758
Magnitude (Debye)      :      8.58513



--------------------
Rotational spectrum 
--------------------
 
Rotational constants in cm-1:     0.001023     0.000100     0.000093 
Rotational constants in MHz :    30.658213     3.005264     2.787054 

 Dipole components along the rotational axes: 
x,y,z [a.u.] :     3.259255     0.853994     0.236650 
x,y,z [Debye]:     8.284367     2.170680     0.601517 

 

Timings for individual modules:

Sum of individual times         ...     1196.783 sec (=  19.946 min)
GTO integral calculation        ...        4.961 sec (=   0.083 min)   0.4 %
SCF iterations                  ...     1182.501 sec (=  19.708 min)  98.8 %
CIS module                      ...        9.320 sec (=   0.155 min)   0.8 %
                             ****ORCA TERMINATED NORMALLY****
TOTAL RUN TIME: 0 days 0 hours 19 minutes 58 seconds 64 msec
