
                                 *****************
                                 * O   R   C   A *
                                 *****************

           --- An Ab Initio, DFT and Semiempirical electronic structure package ---

                  #######################################################
                  #                        -***-                        #
                  #          Department of theory and spectroscopy      #
                  #               Directorship: Frank Neese             #
                  #        Max Planck Institute fuer Kohlenforschung    #
                  #                Kaiser Wilhelm Platz 1               #
                  #                 D-45470 Muelheim/Ruhr               #
                  #                      Germany                        #
                  #                                                     #
                  #                  All rights reserved                #
                  #                        -***-                        #
                  #######################################################


                         Program Version 4.2.0 -  RELEASE  -


 With contributions from (in alphabetic order):
   Daniel Aravena         : Magnetic Suceptibility
   Michael Atanasov       : Ab Initio Ligand Field Theory (pilot matlab implementation)
   Alexander A. Auer      : GIAO ZORA, VPT2
   Ute Becker             : Parallelization
   Giovanni Bistoni       : ED, misc. LED, open-shell LED, HFLED
   Martin Brehm           : Molecular dynamics
   Dmytro Bykov           : SCF Hessian
   Vijay G. Chilkuri      : MRCI spin determinant printing, contributions to CSF-ICE
   Dipayan Datta          : RHF DLPNO-CCSD density
   Achintya Kumar Dutta   : EOM-CC, STEOM-CC
   Dmitry Ganyushin       : Spin-Orbit,Spin-Spin,Magnetic field MRCI
   Miquel Garcia          : C-PCM Hessian, Gaussian charge scheme
   Yang Guo               : DLPNO-NEVPT2, CIM, IAO-localization
   Andreas Hansen         : Spin unrestricted coupled pair/coupled cluster methods
   Benjamin Helmich-Paris : CASSCF linear response (MC-RPA)
   Lee Huntington         : MR-EOM, pCC
   Robert Izsak           : Overlap fitted RIJCOSX, COSX-SCS-MP3, EOM
   Christian Kollmar      : KDIIS, OOCD, Brueckner-CCSD(T), CCSD density
   Simone Kossmann        : Meta GGA functionals, TD-DFT gradient, OOMP2, MP2 Hessian
   Martin Krupicka        : AUTO-CI
   Lucas Lang             : DCDCAS
   Dagmar Lenk            : GEPOL surface, SMD
   Dimitrios Liakos       : Extrapolation schemes; Compound Job, initial MDCI parallelization
   Dimitrios Manganas     : Further ROCIS development; embedding schemes
   Dimitrios Pantazis     : SARC Basis sets
   Taras Petrenko         : DFT Hessian,TD-DFT gradient, ASA, ECA, R-Raman, ABS, FL, XAS/XES, NRVS
   Peter Pinski           : DLPNO-MP2, DLPNO-MP2 Gradient
   Christoph Reimann      : Effective Core Potentials
   Marius Retegan         : Local ZFS, SOC
   Christoph Riplinger    : Optimizer, TS searches, QM/MM, DLPNO-CCSD(T), (RO)-DLPNO pert. Triples
   Tobias Risthaus        : Range-separated hybrids, TD-DFT gradient, RPA, STAB
   Michael Roemelt        : Original ROCIS implementation
   Masaaki Saitow         : Open-shell DLPNO-CCSD energy and density
   Barbara Sandhoefer     : DKH picture change effects
   Avijit Sen             : IP-ROCIS
   Kantharuban Sivalingam : CASSCF convergence, NEVPT2, FIC-MRCI
   Bernardo de Souza      : ESD, SOC TD-DFT
   Georgi Stoychev        : AutoAux, RI-MP2 NMR
   Willem Van den Heuvel  : Paramagnetic NMR
   Boris Wezisla          : Elementary symmetry handling
   Frank Wennmohs         : Technical directorship


 We gratefully acknowledge several colleagues who have allowed us to
 interface, adapt or use parts of their codes:
   Stefan Grimme, W. Hujo, H. Kruse,             : VdW corrections, initial TS optimization,
                  C. Bannwarth                     DFT functionals, gCP, sTDA/sTD-DF
   Ed Valeev, F. Pavosevic, A. Kumar             : LibInt (2-el integral package), F12 methods
   Garnet Chan, S. Sharma, J. Yang, R. Olivares  : DMRG
   Ulf Ekstrom                                   : XCFun DFT Library
   Mihaly Kallay                                 : mrcc  (arbitrary order and MRCC methods)
   Andreas Klamt, Michael Diedenhofen            : otool_cosmo (COSMO solvation model)
   Jiri Pittner, Ondrej Demel                    : Mk-CCSD
   Frank Weinhold                                : gennbo (NPA and NBO analysis)
   Christopher J. Cramer and Donald G. Truhlar   : smd solvation model
   Lars Goerigk                                  : TD-DFT with DH, B97 family of functionals
   V. Asgeirsson, H. Jonsson                     : NEB implementation
   FAccTs GmbH                                   : IRC, NEB, NEB-TS, Multilevel, MM, QM/MM, CI optimization
   S Lehtola, MJT Oliveira, MAL Marques          : LibXC Library


 Your calculation uses the libint2 library for the computation of 2-el integrals
 For citations please refer to: http://libint.valeyev.net

 Your ORCA version has been built with support for libXC version: 4.2.3
 For citations please refer to: https://tddft.org/programs/libxc/

 This ORCA versions uses:
   CBLAS   interface :  Fast vector & matrix operations
   LAPACKE interface :  Fast linear algebra routines
   SCALAPACK package :  Parallel linear algebra routines


XCFun DFT library Copyright 2009-2010 Ulf Ekstrom and contributors.
See http://admol.org/xcfun for more information. This is free soft-
ware; see the source code for copying conditions. There is ABSOLUTELY
NO WARRANTY; not even for MERCHANTABILITY or FITNESS FOR A PARTICULAR
PURPOSE. For details see the documentation. Scientific users of this 
library should cite U. Ekstrom, L. Visscher, R. Bast, A. J. Thorvald-
sen and K. Ruud; J.Chem.Theor.Comp. 2010, DOI: 10.1021/ct100117s
XCFun Version 0.99 
----- Orbital basis set information -----
Your calculation utilizes the basis: def2-SVP
   F. Weigend and R. Ahlrichs, Phys. Chem. Chem. Phys. 7, 3297 (2005).

----- AuxJ basis set information -----
Your calculation utilizes the auxiliary basis: def2/J
   F. Weigend, Phys. Chem. Chem. Phys. 8, 1057 (2006).

================================================================================
                                        WARNINGS
                       Please study these warnings very carefully!
================================================================================

INFO   : Checking CIS options ...

WARNING: CIS/ROCIS methods need fully converged wavefunctions
  ===> : Setting SCFConvForced true
         You can overwrite this default with %scf ConvForced false 


INFO   : the flag for use of LIBINT has been found!

================================================================================
                                       INPUT FILE
================================================================================
NAME = xtbopt.inp
|  1> # ORCA input file
|  2> # SCF done       -215.892043710305          0.000242895964
|  3> ! CAM-B3LYP def2-SVP def2/J RIJCOSX Grid4 TightSCF
|  4> %maxcore 5000
|  5> %tddft
|  6>     Mode sTDDFT
|  7>     Ethresh 5.0
|  8>     maxcore 5000
|  9> end
| 10> 
| 11> %pal
| 12>   nprocs 6
| 13>   end
| 14> * xyz 0 1
| 15>    C       -0.91159        13.80672         2.26719
| 16>    C        0.00531        14.48309         1.50634
| 17>    C        0.15520        15.88723         1.51276
| 18>    N        0.33147        17.02041         1.46701
| 19>    C        0.93051        13.90664         0.61051
| 20>    N        1.71222        13.52346        -0.13915
| 21>    C       -1.86330        14.42224         3.18450
| 22>    C       -2.63717        13.39523         3.79772
| 23>    C       -3.61896        13.67063         4.70581
| 24>    C       -3.88043        15.01543         5.04901
| 25>    C       -3.11200        16.05056         4.44113
| 26>    C       -2.10049        15.73345         3.50595
| 27>    C       -3.38242        17.38982         4.78905
| 28>    C       -4.36429        17.69357         5.69255
| 29>    C       -5.11994        16.67362         6.29012
| 30>    C       -4.88299        15.36279         5.97559
| 31>    C       -2.20125        12.08766         3.29054
| 32>    O       -2.63919        11.00188         3.61349
| 33>    C       -1.12443        12.36567         2.31438
| 34>    C       -0.45771        11.44126         1.56943
| 35>    C       -0.59697        10.03264         1.50068
| 36>    C        0.16630         9.28885         0.62162
| 37>    C       -0.11145         7.91242         0.65505
| 38>    C        0.41098         6.85679        -0.11995
| 39>    C       -0.10280         5.57966         0.14445
| 40>    C       -1.12209         5.44575         1.12720
| 41>    N       -1.63521         6.42575         1.83174
| 42>    C       -1.13625         7.62656         1.60388
| 43>    S       -1.70577         9.03616         2.42738
| 44>    S       -1.64361         3.79694         1.33748
| 45>    C       -0.47052         3.28646         0.15336
| 46>    C        0.25443         4.29951        -0.38018
| 47>    F        1.23805         4.10124        -1.27014
| 48>    F       -0.34904         1.99747        -0.13538
| 49>    C        1.39395         7.07194        -1.16005
| 50>    C        1.33394         6.60367        -2.45080
| 51>    C        2.45817         6.97626        -3.19441
| 52>    C        3.38405         7.71688        -2.44621
| 53>    S        2.85461         7.99462        -0.84967
| 54>    C        4.51049         7.99737        -3.26967
| 55>    C        4.27936         7.44593        -4.54001
| 56>    C        2.97892         6.79267        -4.53845
| 57>    C        2.37565         6.14371        -5.57434
| 58>    C        1.09727         5.55869        -5.44882
| 59>    N        0.05379         5.09337        -5.35456
| 60>    C        2.98163         6.02393        -6.84326
| 61>    N        3.46907         5.92362        -7.87597
| 62>    C        5.34338         7.64865        -5.41978
| 63>    C        6.38237         8.33329        -4.82104
| 64>    S        6.03577         8.75096        -3.15138
| 65>    C        7.63890         8.66716        -5.39969
| 66>    C        8.73503         9.18430        -4.76509
| 67>    C        9.85036         9.33242        -5.62010
| 68>    C       11.14352         9.81098        -5.33972
| 69>    C       12.06172         9.78542        -6.39931
| 70>    C       11.60417         9.39694        -7.68397
| 71>    N       10.38545         8.99315        -7.96721
| 72>    C        9.54885         8.94221        -6.95403
| 73>    S        7.91884         8.37706        -7.11119
| 74>    S       12.85173         9.48153        -8.89689
| 75>    C       13.99237         9.95799        -7.67362
| 76>    C       13.45814        10.06865        -6.43196
| 77>    F       14.19211        10.34704        -5.34257
| 78>    F       15.26234        10.16144        -8.00113
| 79>    C       11.44203        10.27391        -4.00143
| 80>    C       12.10194        11.40275        -3.67587
| 81>    C       12.45235        11.83357        -2.32569
| 82>    C       11.85298        11.42093        -1.16808
| 83>    C       12.22457        11.87698         0.11518
| 84>    N       12.49144        12.20904         1.18041
| 85>    C       10.74378        10.54962        -1.11891
| 86>    N        9.81727         9.87639        -1.03344
| 87>    C       13.48393        12.85017        -2.45342
| 88>    C       13.61004        13.20434        -3.82927
| 89>    C       12.68261        12.39481        -4.63378
| 90>    O       12.41723        12.51725        -5.80818
| 91>    C       14.49870        14.15218        -4.24848
| 92>    C       15.32507        14.79030        -3.29696
| 93>    C       15.21095        14.43477        -1.92084
| 94>    C       14.27607        13.45699        -1.51373
| 95>    C       16.04582        15.07562        -0.98234
| 96>    C       16.94960        16.02216        -1.38125
| 97>    C       17.06084        16.37151        -2.73570
| 98>    C       16.26596        15.76908        -3.67286
| 99>    H       -4.18963        12.87097         5.15410
|100>    H       -1.53909        16.54157         3.06522
|101>    H       -2.79825        18.17176         4.32661
|102>    H       -4.56438        18.72233         5.95172
|103>    H       -5.89078        16.93172         7.00061
|104>    H       -5.46138        14.57311         6.43216
|105>    H        0.30337        11.81285         0.89369
|106>    H        0.89229         9.74291        -0.02958
|107>    H        0.50449         6.03817        -2.83421
|108>    H        5.38247         7.31158        -6.43990
|109>    H        8.74045         9.42474        -3.71605
|110>    H       11.05393         9.64442        -3.21109
|111>    H       14.57634        14.40628        -5.29511
|112>    H       14.21592        13.20115        -0.46732
|113>    H       15.95569        14.80406         0.05917
|114>    H       17.58466        16.50705        -0.65521
|115>    H       17.78007        17.11993        -3.03270
|116>    H       16.34792        16.03365        -4.71682
|117> *
|118> 
|119>                          ****END OF INPUT****
================================================================================

                       ****************************
                       * Single Point Calculation *
                       ****************************

---------------------------------
CARTESIAN COORDINATES (ANGSTROEM)
---------------------------------
  C     -0.911590   13.806720    2.267190
  C      0.005310   14.483090    1.506340
  C      0.155200   15.887230    1.512760
  N      0.331470   17.020410    1.467010
  C      0.930510   13.906640    0.610510
  N      1.712220   13.523460   -0.139150
  C     -1.863300   14.422240    3.184500
  C     -2.637170   13.395230    3.797720
  C     -3.618960   13.670630    4.705810
  C     -3.880430   15.015430    5.049010
  C     -3.112000   16.050560    4.441130
  C     -2.100490   15.733450    3.505950
  C     -3.382420   17.389820    4.789050
  C     -4.364290   17.693570    5.692550
  C     -5.119940   16.673620    6.290120
  C     -4.882990   15.362790    5.975590
  C     -2.201250   12.087660    3.290540
  O     -2.639190   11.001880    3.613490
  C     -1.124430   12.365670    2.314380
  C     -0.457710   11.441260    1.569430
  C     -0.596970   10.032640    1.500680
  C      0.166300    9.288850    0.621620
  C     -0.111450    7.912420    0.655050
  C      0.410980    6.856790   -0.119950
  C     -0.102800    5.579660    0.144450
  C     -1.122090    5.445750    1.127200
  N     -1.635210    6.425750    1.831740
  C     -1.136250    7.626560    1.603880
  S     -1.705770    9.036160    2.427380
  S     -1.643610    3.796940    1.337480
  C     -0.470520    3.286460    0.153360
  C      0.254430    4.299510   -0.380180
  F      1.238050    4.101240   -1.270140
  F     -0.349040    1.997470   -0.135380
  C      1.393950    7.071940   -1.160050
  C      1.333940    6.603670   -2.450800
  C      2.458170    6.976260   -3.194410
  C      3.384050    7.716880   -2.446210
  S      2.854610    7.994620   -0.849670
  C      4.510490    7.997370   -3.269670
  C      4.279360    7.445930   -4.540010
  C      2.978920    6.792670   -4.538450
  C      2.375650    6.143710   -5.574340
  C      1.097270    5.558690   -5.448820
  N      0.053790    5.093370   -5.354560
  C      2.981630    6.023930   -6.843260
  N      3.469070    5.923620   -7.875970
  C      5.343380    7.648650   -5.419780
  C      6.382370    8.333290   -4.821040
  S      6.035770    8.750960   -3.151380
  C      7.638900    8.667160   -5.399690
  C      8.735030    9.184300   -4.765090
  C      9.850360    9.332420   -5.620100
  C     11.143520    9.810980   -5.339720
  C     12.061720    9.785420   -6.399310
  C     11.604170    9.396940   -7.683970
  N     10.385450    8.993150   -7.967210
  C      9.548850    8.942210   -6.954030
  S      7.918840    8.377060   -7.111190
  S     12.851730    9.481530   -8.896890
  C     13.992370    9.957990   -7.673620
  C     13.458140   10.068650   -6.431960
  F     14.192110   10.347040   -5.342570
  F     15.262340   10.161440   -8.001130
  C     11.442030   10.273910   -4.001430
  C     12.101940   11.402750   -3.675870
  C     12.452350   11.833570   -2.325690
  C     11.852980   11.420930   -1.168080
  C     12.224570   11.876980    0.115180
  N     12.491440   12.209040    1.180410
  C     10.743780   10.549620   -1.118910
  N      9.817270    9.876390   -1.033440
  C     13.483930   12.850170   -2.453420
  C     13.610040   13.204340   -3.829270
  C     12.682610   12.394810   -4.633780
  O     12.417230   12.517250   -5.808180
  C     14.498700   14.152180   -4.248480
  C     15.325070   14.790300   -3.296960
  C     15.210950   14.434770   -1.920840
  C     14.276070   13.456990   -1.513730
  C     16.045820   15.075620   -0.982340
  C     16.949600   16.022160   -1.381250
  C     17.060840   16.371510   -2.735700
  C     16.265960   15.769080   -3.672860
  H     -4.189630   12.870970    5.154100
  H     -1.539090   16.541570    3.065220
  H     -2.798250   18.171760    4.326610
  H     -4.564380   18.722330    5.951720
  H     -5.890780   16.931720    7.000610
  H     -5.461380   14.573110    6.432160
  H      0.303370   11.812850    0.893690
  H      0.892290    9.742910   -0.029580
  H      0.504490    6.038170   -2.834210
  H      5.382470    7.311580   -6.439900
  H      8.740450    9.424740   -3.716050
  H     11.053930    9.644420   -3.211090
  H     14.576340   14.406280   -5.295110
  H     14.215920   13.201150   -0.467320
  H     15.955690   14.804060    0.059170
  H     17.584660   16.507050   -0.655210
  H     17.780070   17.119930   -3.032700
  H     16.347920   16.033650   -4.716820

----------------------------
CARTESIAN COORDINATES (A.U.)
----------------------------
  NO LB      ZA    FRAG     MASS         X           Y           Z
   0 C     6.0000    0    12.011   -1.722655   26.090920    4.284368
   1 C     6.0000    0    12.011    0.010034   27.369074    2.846570
   2 C     6.0000    0    12.011    0.293285   30.022514    2.858702
   3 N     7.0000    0    14.007    0.626388   32.163914    2.772247
   4 C     6.0000    0    12.011    1.758409   26.279741    1.153697
   5 N     7.0000    0    14.007    3.235627   25.555636   -0.262955
   6 C     6.0000    0    12.011   -3.521127   27.254084    6.017833
   7 C     6.0000    0    12.011   -4.983529   25.313316    7.176651
   8 C     6.0000    0    12.011   -6.838843   25.833747    8.892692
   9 C     6.0000    0    12.011   -7.332950   28.375050    9.541246
  10 C     6.0000    0    12.011   -5.880828   30.331163    8.392519
  11 C     6.0000    0    12.011   -3.969351   29.731912    6.625285
  12 C     6.0000    0    12.011   -6.391847   32.861997    9.049993
  13 C     6.0000    0    12.011   -8.247313   33.436002   10.757361
  14 C     6.0000    0    12.011   -9.675284   31.508575   11.886604
  15 C     6.0000    0    12.011   -9.227514   29.031466   11.292229
  16 C     6.0000    0    12.011   -4.159760   22.842367    6.218219
  17 O     8.0000    0    15.999   -4.987346   20.790540    6.828506
  18 C     6.0000    0    12.011   -2.124865   23.367730    4.373544
  19 C     6.0000    0    12.011   -0.864947   21.620848    2.965793
  20 C     6.0000    0    12.011   -1.128110   18.958942    2.835874
  21 C     6.0000    0    12.011    0.314261   17.553383    1.174692
  22 C     6.0000    0    12.011   -0.210610   14.952307    1.237865
  23 C     6.0000    0    12.011    0.776640   12.957455   -0.226673
  24 C     6.0000    0    12.011   -0.194264   10.544029    0.272971
  25 C     6.0000    0    12.011   -2.120443   10.290976    2.130099
  26 N     7.0000    0    14.007   -3.090099   12.142908    3.461487
  27 C     6.0000    0    12.011   -2.147201   14.412110    3.030894
  28 S    16.0000    0    32.060   -3.223438   17.075868    4.587083
  29 S    16.0000    0    32.060   -3.105973    7.175177    2.527471
  30 C     6.0000    0    12.011   -0.889154    6.210509    0.289808
  31 C     6.0000    0    12.011    0.480803    8.124896   -0.718436
  32 F     9.0000    0    18.998    2.339575    7.750220   -2.400217
  33 F     9.0000    0    18.998   -0.659590    3.774671   -0.255831
  34 C     6.0000    0    12.011    2.634184   13.364030   -2.192177
  35 C     6.0000    0    12.011    2.520781   12.479128   -4.631341
  36 C     6.0000    0    12.011    4.645268   13.183221   -6.036560
  37 C     6.0000    0    12.011    6.394928   14.582790   -4.622667
  38 S    16.0000    0    32.060    5.394431   15.107642   -1.605644
  39 C     6.0000    0    12.011    8.523591   15.112839   -6.178781
  40 C     6.0000    0    12.011    8.086818   14.070769   -8.579376
  41 C     6.0000    0    12.011    5.629343   12.836286   -8.576428
  42 C     6.0000    0    12.011    4.489328   11.609929  -10.533976
  43 C     6.0000    0    12.011    2.073540   10.504402  -10.296778
  44 N     7.0000    0    14.007    0.101648    9.625074  -10.118652
  45 C     6.0000    0    12.011    5.634464   11.383578  -12.931887
  46 N     7.0000    0    14.007    6.555592   11.194020  -14.883426
  47 C     6.0000    0    12.011   10.097525   14.453854  -10.241900
  48 C     6.0000    0    12.011   12.060931   15.747636   -9.110445
  49 S    16.0000    0    32.060   11.405952   16.536918   -5.955245
  50 C     6.0000    0    12.011   14.435429   16.378559  -10.203935
  51 C     6.0000    0    12.011   16.506814   17.355812   -9.004715
  52 C     6.0000    0    12.011   18.614483   17.635718  -10.620450
  53 C     6.0000    0    12.011   21.058201   18.540065  -10.090608
  54 C     6.0000    0    12.011   22.793348   18.491764  -12.092943
  55 C     6.0000    0    12.011   21.928703   17.757643  -14.520599
  56 N     7.0000    0    14.007   19.625656   16.994591  -15.055845
  57 C     6.0000    0    12.011   18.044711   16.898328  -13.141212
  58 S    16.0000    0    32.060   14.964439   15.830349  -13.438202
  59 S    16.0000    0    32.060   24.286250   17.917495  -16.812686
  60 C     6.0000    0    12.011   26.441747   18.817874  -14.501040
  61 C     6.0000    0    12.011   25.432199   19.026991  -12.154643
  62 F     9.0000    0    18.998   26.819201   19.553072  -10.095994
  63 F     9.0000    0    18.998   28.841643   19.202339  -15.119944
  64 C     6.0000    0    12.011   21.622303   19.414876   -7.561607
  65 C     6.0000    0    12.011   22.869352   21.548075   -6.946388
  66 C     6.0000    0    12.011   23.531531   22.362206   -4.394917
  67 C     6.0000    0    12.011   22.398886   21.582430   -2.207351
  68 C     6.0000    0    12.011   23.101089   22.444239    0.217659
  69 N     7.0000    0    14.007   23.605401   23.071742    2.230652
  70 C     6.0000    0    12.011   20.302802   19.935893   -2.114433
  71 N     7.0000    0    14.007   18.551952   18.663672   -1.952919
  72 C     6.0000    0    12.011   25.480935   24.283302   -4.636292
  73 C     6.0000    0    12.011   25.719248   24.952586   -7.236272
  74 C     6.0000    0    12.011   23.966660   23.422796   -8.756575
  75 O     8.0000    0    15.999   23.465164   23.654174  -10.975870
  76 C     6.0000    0    12.011   27.398572   26.743744   -8.028464
  77 C     6.0000    0    12.011   28.960185   27.949616   -6.230351
  78 C     6.0000    0    12.011   28.744530   27.277762   -3.629862
  79 C     6.0000    0    12.011   26.977863   25.430026   -2.860535
  80 C     6.0000    0    12.011   30.322205   28.488793   -1.856354
  81 C     6.0000    0    12.011   32.030102   30.277494   -2.610184
  82 C     6.0000    0    12.011   32.240315   30.937670   -5.169724
  83 C     6.0000    0    12.011   30.738210   29.799243   -6.940700
  84 H     1.0000    0     1.008   -7.917253   24.322608    9.739837
  85 H     1.0000    0     1.008   -2.908459   31.259037    5.792426
  86 H     1.0000    0     1.008   -5.287926   34.339650    8.176108
  87 H     1.0000    0     1.008   -8.625428   35.380076   11.247121
  88 H     1.0000    0     1.008  -11.131961   31.996314   13.229236
  89 H     1.0000    0     1.008  -10.320513   27.539187   12.155021
  90 H     1.0000    0     1.008    0.573286   22.323051    1.688829
  91 H     1.0000    0     1.008    1.686184   18.411432   -0.055898
  92 H     1.0000    0     1.008    0.953348   11.410488   -5.355881
  93 H     1.0000    0     1.008   10.171394   13.816884  -12.169647
  94 H     1.0000    0     1.008   16.517057   17.810177   -7.022317
  95 H     1.0000    0     1.008   20.888900   18.225313   -6.068081
  96 H     1.0000    0     1.008   27.545291   27.223924  -10.006308
  97 H     1.0000    0     1.008   26.864196   24.946558   -0.883107
  98 H     1.0000    0     1.008   30.151884   27.975619    0.111815
  99 H     1.0000    0     1.008   33.230192   31.193804   -1.238167
 100 H     1.0000    0     1.008   33.599463   32.351979   -5.730972
 101 H     1.0000    0     1.008   30.893092   30.299207   -8.913498

--------------------------------
INTERNAL COORDINATES (ANGSTROEM)
--------------------------------
 C      0   0   0     0.000000000000     0.00000000     0.00000000
 C      1   0   0     1.370063761071     0.00000000     0.00000000
 C      2   1   0     1.412132206311   124.01396491     0.00000000
 N      3   2   1     1.147719951818   176.25463242   180.51651368
 C      2   1   3     1.410957487453   126.13809166   180.02953680
 N      5   2   1     1.148863591598   175.36219272   178.47972621
 C      1   2   3     1.458106453795   125.29485043     0.20124706
 C      7   1   2     1.424662446125   108.72489987   180.47900747
 C      8   7   1     1.365424553829   122.10295526   180.25551463
 C      9   8   7     1.412317188488   119.12951184     0.11898494
 C     10   9   8     1.425305888643   119.21445639   359.89198795
 C      7   1   2     1.370715456504   131.62783290     0.79853716
 C     11  10   9     1.409891006568   118.76484168   179.90077656
 C     13  11  10     1.368446202596   120.75673172   359.95809209
 C     14  13  11     1.402994950062   120.41726088     0.04116592
 C     15  14  13     1.368703661243   120.33939049     0.00000000
 C      8   7   1     1.468671884289   109.38629509     0.06323903
 O     17   8   7     1.214498396253   126.66190930   179.16505352
 C      1   2   3     1.457447379565   127.14524598   180.01496942
 C     19   1   2     1.361616652733   125.59460549   358.12592449
 C     20  19   1     1.417155677581   130.78646986   181.85758388
 C     21  20  19     1.381503217731   120.77886891   177.51943898
 C     22  21  20     1.404571882212   113.77876860   181.31435587
 C     23  22  21     1.409933616097   130.34232884   177.04437730
 C     24  23  22     1.401762563810   116.27317041   181.38757490
 C     25  24  23     1.422210095134   118.60752549     1.80843788
 N     26  25  24     1.311513913765   125.53841015   359.62835542
 C     27  26  25     1.320161322453   116.04532452   359.12328280
 S     28  27  26     1.729010537967   122.33425283   179.25284897
 S     26  25  24     1.742060620329   112.77304899   180.23093712
 C     30  26  25     1.743235541429    89.63959752     1.62127098
 C     31  30  26     1.355170740756   114.11149888   359.13788073
 F     32  31  30     1.341211429604   122.89208986   177.47576078
 F     31  30  26     1.326507971367   119.60610981   178.47995875
 C     24  23  22     1.447179171146   122.37261646   359.62167775
 C     35  24  23     1.374377515641   126.48881187   229.96949388
 C     36  35  24     1.398453514816   111.93191357   180.85881072
 C     37  36  35     1.401989657166   112.82253725     0.92188385
 S     38  37  36     1.704812656218   112.37991981   358.28097960
 C     38  37  36     1.423245616645   108.54330501   177.56090320
 C     40  38  37     1.404019539073   108.40895612     0.77686898
 C     37  36  35     1.453041421364   138.27049276   179.04099599
 C     42  37  36     1.363140442728   127.19049041     2.73059550
 C     43  42  37     1.411474085912   122.04402612     0.77907836
 N     44  43  42     1.146410991050   179.32460392   107.73294402
 C     43  42  37     1.411282032480   122.25245879   180.17272889
 N     46  43  42     1.146363726659   179.70029142   180.43079100
 C     41  40  38     1.395431550346   112.82114582   181.03794334
 C     48  41  40     1.380840952934   111.86296592     0.74899905
 S     40  38  37     1.705394233191   139.00995193   182.94178452
 C     49  48  41     1.423085605401   127.18431682   177.40429337
 C     51  49  48     1.368083300278   127.40987912   189.44537472
 C     52  51  49     1.413132210163   113.03743042   176.71261817
 C     53  52  51     1.407087560744   129.82483838   180.66475818
 C     54  53  52     1.402310779285   116.42324863   177.38526051
 C     55  54  53     1.417963338207   118.57299461     5.30321662
 N     56  55  54     1.314743206904   125.34072824   356.75302136
 C     57  56  55     1.314925152243   115.82777438   359.24448472
 S     58  57  56     1.732347074982   122.77794763   182.47935119
 S     56  55  54     1.742049467753   112.73159947   177.64974275
 C     60  56  55     1.739098396900    89.61403940     2.58783742
 C     61  60  56     1.356232606930   114.07736069   358.96532139
 F     62  61  60     1.342752220292   122.98185271   175.89921846
 F     61  60  56     1.327207031137   119.73691307   178.18953603
 C     54  53  52     1.447215439767   118.85676199   358.10236530
 C     65  54  53     1.347497780072   126.32774145   225.19555418
 C     66  65  54     1.459924338074   126.02927475   182.94950129
 C     67  66  65     1.367324788995   126.06571858   338.73808943
 C     68  67  66     1.411671689239   123.83004036   180.48122989
 N     69  68  67     1.147256899478   177.16593101   187.45411319
 C     68  67  66     1.411355180314   124.07733568   356.74750036
 N     71  68  67     1.148461812121   176.87645875   220.98063009
 C     67  66  65     1.453942161608   107.18038248   162.84110789
 C     73  67  66     1.426290062890   108.72946525     9.46500953
 C     74  73  67     1.470612649850   109.58837878   358.49459042
 O     75  74  73     1.210220417114   127.84027529   171.65856998
 C     74  73  67     1.365230487976   121.74598644   179.30072290
 C     77  74  73     1.412612764242   119.18138748     0.63836185
 C     78  77  74     1.425879100660   119.38184268   359.80364415
 C     73  67  66     1.370669029379   131.25113164   189.40242743
 C     79  78  77     1.410134351542   118.79085789   179.74071018
 C     81  79  78     1.368168647536   120.76082906     0.02809434
 C     82  81  79     1.403194413686   120.40093162     0.00000000
 C     83  82  81     1.368585030205   120.35408634     0.00000000
 H      9   8   7     1.079853827423   120.44566736   179.98064307
 H     12   7   1     1.078179404042   122.07446960   359.70070940
 H     13  11  10     1.080062732484   118.57513145   179.99687926
 H     14  13  11     1.079607444676   120.19795099   180.05697300
 H     15  14  13     1.079632324312   119.40966371   180.01607391
 H     16  15  14     1.080085950006   120.68815441   180.00556733
 H     20  19   1     1.083488090428   116.89318049     0.76477788
 H     22  21  20     1.075775721840   122.05845831     0.55429292
 H     36  35  24     1.074607268075   123.23540533     2.11605613
 H     48  41  40     1.075076289107   125.47958611   179.91206591
 H     52  51  49     1.076255402588   122.72540413   358.21133272
 H     65  54  53     1.082366197597   114.53457434    43.04922080
 H     77  74  73     1.079828290285   120.51709935   180.11963478
 H     80  73  67     1.078909642278   121.85143466     1.00725175
 H     81  79  78     1.080097833810   118.56117204   179.95010526
 H     82  81  79     1.079608075785   120.21319642   180.01810577
 H     83  82  81     1.079644982992   119.40190110   180.05164855
 H     84  83  82     1.080077408383   120.66173978   180.04554834

---------------------------
INTERNAL COORDINATES (A.U.)
---------------------------
 C      0   0   0     0.000000000000     0.00000000     0.00000000
 C      1   0   0     2.589045294434     0.00000000     0.00000000
 C      2   1   0     2.668543134817   124.01396491     0.00000000
 N      3   2   1     2.168876387372   176.25463242   180.51651368
 C      2   1   3     2.666323237892   126.13809166   180.02953680
 N      5   2   1     2.171037553354   175.36219272   178.47972621
 C      1   2   3     2.755421871777   125.29485043     0.20124706
 C      7   1   2     2.692221856459   108.72489987   180.47900747
 C      8   7   1     2.580278463269   122.10295526   180.25551463
 C      9   8   7     2.668892700473   119.12951184     0.11898494
 C     10   9   8     2.693437786600   119.21445639   359.89198795
 C      7   1   2     2.590276820326   131.62783290     0.79853716
 C     11  10   9     2.664307881091   118.76484168   179.90077656
 C     13  11  10     2.585988551911   120.75673172   359.95809209
 C     14  13  11     2.651276222892   120.41726088     0.04116592
 C     15  14  13     2.586475078245   120.33939049     0.00000000
 C      8   7   1     2.775387641896   109.38629509     0.06323903
 O     17   8   7     2.295069359004   126.66190930   179.16505352
 C      1   2   3     2.754176401978   127.14524598   180.01496942
 C     19   1   2     2.573082573052   125.59460549   358.12592449
 C     20  19   1     2.678036119760   130.78646986   181.85758388
 C     21  20  19     2.610662734642   120.77886891   177.51943898
 C     22  21  20     2.654256192787   113.77876860   181.31435587
 C     23  22  21     2.664388401432   130.34232884   177.04437730
 C     24  23  22     2.648947350385   116.27317041   181.38757490
 C     25  24  23     2.687587584701   118.60752549     1.80843788
 N     26  25  24     2.478402117844   125.53841015   359.62835542
 C     27  26  25     2.494743352031   116.04532452   359.12328280
 S     28  27  26     3.267356399421   122.33425283   179.25284897
 S     26  25  24     3.292017481110   112.77304899   180.23093712
 C     30  26  25     3.294237760218    89.63959752     1.62127098
 C     31  30  26     2.560901564731   114.11149888   359.13788073
 F     32  31  30     2.534522289636   122.89208986   177.47576078
 F     31  30  26     2.506736780347   119.60610981   178.47995875
 C     24  23  22     2.734772300182   122.37261646   359.62167775
 C     35  24  23     2.597197109181   126.48881187   229.96949388
 C     36  35  24     2.642694154021   111.93191357   180.85881072
 C     37  36  35     2.649376494634   112.82253725     0.92188385
 S     38  37  36     3.221629029894   112.37991981   358.28097960
 C     38  37  36     2.689544436763   108.54330501   177.56090320
 C     40  38  37     2.653212415523   108.40895612     0.77686898
 C     37  36  35     2.745850347622   138.27049276   179.04099599
 C     42  37  36     2.575962118828   127.19049041     2.73059550
 C     43  42  37     2.667299467500   122.04402612     0.77907836
 N     44  43  42     2.166402810002   179.32460392   107.73294402
 C     43  42  37     2.666936539110   122.25245879   180.17272889
 N     46  43  42     2.166313493247   179.70029142   180.43079100
 C     41  40  38     2.636983468786   112.82114582   181.03794334
 C     48  41  40     2.609411235548   111.86296592     0.74899905
 S     40  38  37     3.222728051099   139.00995193   182.94178452
 C     49  48  41     2.689242059334   127.18431682   177.40429337
 C     51  49  48     2.585302765917   127.40987912   189.44537472
 C     52  51  49     2.670432868231   113.03743042   176.71261817
 C     53  52  51     2.659010136253   129.82483838   180.66475818
 C     54  53  52     2.649983327495   116.42324863   177.38526051
 C     55  54  53     2.679562377153   118.57299461     5.30321662
 N     56  55  54     2.484504597482   125.34072824   356.75302136
 C     57  56  55     2.484848424343   115.82777438   359.24448472
 S     58  57  56     3.273661540616   122.77794763   182.47935119
 S     56  55  54     3.291996405797   112.73159947   177.64974275
 C     60  56  55     3.286419690082    89.61403940     2.58783742
 C     61  60  56     2.562908200992   114.07736069   358.96532139
 F     62  61  60     2.537433962067   122.98185271   175.89921846
 F     61  60  56     2.508057811864   119.73691307   178.18953603
 C     54  53  52     2.734840837942   118.85676199   358.10236530
 C     65  54  53     2.546401770404   126.32774145   225.19555418
 C     66  65  54     2.758857175206   126.02927475   182.94950129
 C     67  66  65     2.583869387322   126.06571858   338.73808943
 C     68  67  66     2.667672883672   123.83004036   180.48122989
 N     69  68  67     2.168001345265   177.16593101   187.45411319
 C     68  67  66     2.667074768485   124.07733568   356.74750036
 N     71  68  67     2.170278300175   176.87645875   220.98063009
 C     67  66  65     2.747552500000   107.18038248   162.84110789
 C     73  67  66     2.695297606396   108.72946525     9.46500953
 C     74  73  67     2.779055157297   109.58837878   358.49459042
 O     75  74  73     2.286985150026   127.84027529   171.65856998
 C     74  73  67     2.579911731955   121.74598644   179.30072290
 C     77  74  73     2.669451257699   119.18138748     0.63836185
 C     78  77  74     2.694521000330   119.38184268   359.80364415
 C     73  67  66     2.590189085775   131.25113164   189.40242743
 C     79  78  77     2.664767736450   118.79085789   179.74071018
 C     81  79  78     2.585464048860   120.76082906     0.02809434
 C     82  81  79     2.651653154515   120.40093162     0.00000000
 C     83  82  81     2.586250898071   120.35408634     0.00000000
 H      9   8   7     2.040627998496   120.44566736   179.98064307
 H     12   7   1     2.037463796873   122.07446960   359.70070940
 H     13  11  10     2.041022771849   118.57513145   179.99687926
 H     14  13  11     2.040162402580   120.19795099   180.05697300
 H     15  14  13     2.040209418279   119.40966371   180.01607391
 H     16  15  14     2.041066646607   120.68815441   180.00556733
 H     20  19   1     2.047495760275   116.89318049     0.76477788
 H     22  21  20     2.032921495799   122.05845831     0.55429292
 H     36  35  24     2.030713438183   123.23540533     2.11605613
 H     48  41  40     2.031599759485   125.47958611   179.91206591
 H     52  51  49     2.033827961045   122.72540413   358.21133272
 H     65  54  53     2.045375690072   114.53457434    43.04922080
 H     77  74  73     2.040579740299   120.51709935   180.11963478
 H     80  73  67     2.038843747152   121.85143466     1.00725175
 H     81  79  78     2.041089103742   118.56117204   179.95010526
 H     82  81  79     2.040163595203   120.21319642   180.01810577
 H     83  82  81     2.040233339717   119.40190110   180.05164855
 H     84  83  82     2.041050505280   120.66173978   180.04554834

---------------------
BASIS SET INFORMATION
---------------------
There are 6 groups of distinct atoms

 Group   1 Type C   : 7s4p1d contracted to 3s2p1d pattern {511/31/1}
 Group   2 Type N   : 7s4p1d contracted to 3s2p1d pattern {511/31/1}
 Group   3 Type O   : 7s4p1d contracted to 3s2p1d pattern {511/31/1}
 Group   4 Type S   : 10s7p1d contracted to 4s3p1d pattern {5311/511/1}
 Group   5 Type F   : 7s4p1d contracted to 3s2p1d pattern {511/31/1}
 Group   6 Type H   : 4s1p contracted to 2s1p pattern {31/1}

Atom   0C    basis set group =>   1
Atom   1C    basis set group =>   1
Atom   2C    basis set group =>   1
Atom   3N    basis set group =>   2
Atom   4C    basis set group =>   1
Atom   5N    basis set group =>   2
Atom   6C    basis set group =>   1
Atom   7C    basis set group =>   1
Atom   8C    basis set group =>   1
Atom   9C    basis set group =>   1
Atom  10C    basis set group =>   1
Atom  11C    basis set group =>   1
Atom  12C    basis set group =>   1
Atom  13C    basis set group =>   1
Atom  14C    basis set group =>   1
Atom  15C    basis set group =>   1
Atom  16C    basis set group =>   1
Atom  17O    basis set group =>   3
Atom  18C    basis set group =>   1
Atom  19C    basis set group =>   1
Atom  20C    basis set group =>   1
Atom  21C    basis set group =>   1
Atom  22C    basis set group =>   1
Atom  23C    basis set group =>   1
Atom  24C    basis set group =>   1
Atom  25C    basis set group =>   1
Atom  26N    basis set group =>   2
Atom  27C    basis set group =>   1
Atom  28S    basis set group =>   4
Atom  29S    basis set group =>   4
Atom  30C    basis set group =>   1
Atom  31C    basis set group =>   1
Atom  32F    basis set group =>   5
Atom  33F    basis set group =>   5
Atom  34C    basis set group =>   1
Atom  35C    basis set group =>   1
Atom  36C    basis set group =>   1
Atom  37C    basis set group =>   1
Atom  38S    basis set group =>   4
Atom  39C    basis set group =>   1
Atom  40C    basis set group =>   1
Atom  41C    basis set group =>   1
Atom  42C    basis set group =>   1
Atom  43C    basis set group =>   1
Atom  44N    basis set group =>   2
Atom  45C    basis set group =>   1
Atom  46N    basis set group =>   2
Atom  47C    basis set group =>   1
Atom  48C    basis set group =>   1
Atom  49S    basis set group =>   4
Atom  50C    basis set group =>   1
Atom  51C    basis set group =>   1
Atom  52C    basis set group =>   1
Atom  53C    basis set group =>   1
Atom  54C    basis set group =>   1
Atom  55C    basis set group =>   1
Atom  56N    basis set group =>   2
Atom  57C    basis set group =>   1
Atom  58S    basis set group =>   4
Atom  59S    basis set group =>   4
Atom  60C    basis set group =>   1
Atom  61C    basis set group =>   1
Atom  62F    basis set group =>   5
Atom  63F    basis set group =>   5
Atom  64C    basis set group =>   1
Atom  65C    basis set group =>   1
Atom  66C    basis set group =>   1
Atom  67C    basis set group =>   1
Atom  68C    basis set group =>   1
Atom  69N    basis set group =>   2
Atom  70C    basis set group =>   1
Atom  71N    basis set group =>   2
Atom  72C    basis set group =>   1
Atom  73C    basis set group =>   1
Atom  74C    basis set group =>   1
Atom  75O    basis set group =>   3
Atom  76C    basis set group =>   1
Atom  77C    basis set group =>   1
Atom  78C    basis set group =>   1
Atom  79C    basis set group =>   1
Atom  80C    basis set group =>   1
Atom  81C    basis set group =>   1
Atom  82C    basis set group =>   1
Atom  83C    basis set group =>   1
Atom  84H    basis set group =>   6
Atom  85H    basis set group =>   6
Atom  86H    basis set group =>   6
Atom  87H    basis set group =>   6
Atom  88H    basis set group =>   6
Atom  89H    basis set group =>   6
Atom  90H    basis set group =>   6
Atom  91H    basis set group =>   6
Atom  92H    basis set group =>   6
Atom  93H    basis set group =>   6
Atom  94H    basis set group =>   6
Atom  95H    basis set group =>   6
Atom  96H    basis set group =>   6
Atom  97H    basis set group =>   6
Atom  98H    basis set group =>   6
Atom  99H    basis set group =>   6
Atom 100H    basis set group =>   6
Atom 101H    basis set group =>   6
---------------------------------
AUXILIARY/J BASIS SET INFORMATION
---------------------------------
There are 6 groups of distinct atoms

 Group   1 Type C   : 12s5p4d2f1g contracted to 6s4p3d1f1g pattern {711111/2111/211/2/1}
 Group   2 Type N   : 12s5p4d2f1g contracted to 6s4p3d1f1g pattern {711111/2111/211/2/1}
 Group   3 Type O   : 12s5p4d2f1g contracted to 6s4p3d1f1g pattern {711111/2111/211/2/1}
 Group   4 Type S   : 14s5p5d2f1g contracted to 8s4p3d1f1g pattern {71111111/2111/311/2/1}
 Group   5 Type F   : 12s5p4d2f1g contracted to 6s4p3d1f1g pattern {711111/2111/211/2/1}
 Group   6 Type H   : 5s2p1d contracted to 3s1p1d pattern {311/2/1}

Atom   0C    basis set group =>   1
Atom   1C    basis set group =>   1
Atom   2C    basis set group =>   1
Atom   3N    basis set group =>   2
Atom   4C    basis set group =>   1
Atom   5N    basis set group =>   2
Atom   6C    basis set group =>   1
Atom   7C    basis set group =>   1
Atom   8C    basis set group =>   1
Atom   9C    basis set group =>   1
Atom  10C    basis set group =>   1
Atom  11C    basis set group =>   1
Atom  12C    basis set group =>   1
Atom  13C    basis set group =>   1
Atom  14C    basis set group =>   1
Atom  15C    basis set group =>   1
Atom  16C    basis set group =>   1
Atom  17O    basis set group =>   3
Atom  18C    basis set group =>   1
Atom  19C    basis set group =>   1
Atom  20C    basis set group =>   1
Atom  21C    basis set group =>   1
Atom  22C    basis set group =>   1
Atom  23C    basis set group =>   1
Atom  24C    basis set group =>   1
Atom  25C    basis set group =>   1
Atom  26N    basis set group =>   2
Atom  27C    basis set group =>   1
Atom  28S    basis set group =>   4
Atom  29S    basis set group =>   4
Atom  30C    basis set group =>   1
Atom  31C    basis set group =>   1
Atom  32F    basis set group =>   5
Atom  33F    basis set group =>   5
Atom  34C    basis set group =>   1
Atom  35C    basis set group =>   1
Atom  36C    basis set group =>   1
Atom  37C    basis set group =>   1
Atom  38S    basis set group =>   4
Atom  39C    basis set group =>   1
Atom  40C    basis set group =>   1
Atom  41C    basis set group =>   1
Atom  42C    basis set group =>   1
Atom  43C    basis set group =>   1
Atom  44N    basis set group =>   2
Atom  45C    basis set group =>   1
Atom  46N    basis set group =>   2
Atom  47C    basis set group =>   1
Atom  48C    basis set group =>   1
Atom  49S    basis set group =>   4
Atom  50C    basis set group =>   1
Atom  51C    basis set group =>   1
Atom  52C    basis set group =>   1
Atom  53C    basis set group =>   1
Atom  54C    basis set group =>   1
Atom  55C    basis set group =>   1
Atom  56N    basis set group =>   2
Atom  57C    basis set group =>   1
Atom  58S    basis set group =>   4
Atom  59S    basis set group =>   4
Atom  60C    basis set group =>   1
Atom  61C    basis set group =>   1
Atom  62F    basis set group =>   5
Atom  63F    basis set group =>   5
Atom  64C    basis set group =>   1
Atom  65C    basis set group =>   1
Atom  66C    basis set group =>   1
Atom  67C    basis set group =>   1
Atom  68C    basis set group =>   1
Atom  69N    basis set group =>   2
Atom  70C    basis set group =>   1
Atom  71N    basis set group =>   2
Atom  72C    basis set group =>   1
Atom  73C    basis set group =>   1
Atom  74C    basis set group =>   1
Atom  75O    basis set group =>   3
Atom  76C    basis set group =>   1
Atom  77C    basis set group =>   1
Atom  78C    basis set group =>   1
Atom  79C    basis set group =>   1
Atom  80C    basis set group =>   1
Atom  81C    basis set group =>   1
Atom  82C    basis set group =>   1
Atom  83C    basis set group =>   1
Atom  84H    basis set group =>   6
Atom  85H    basis set group =>   6
Atom  86H    basis set group =>   6
Atom  87H    basis set group =>   6
Atom  88H    basis set group =>   6
Atom  89H    basis set group =>   6
Atom  90H    basis set group =>   6
Atom  91H    basis set group =>   6
Atom  92H    basis set group =>   6
Atom  93H    basis set group =>   6
Atom  94H    basis set group =>   6
Atom  95H    basis set group =>   6
Atom  96H    basis set group =>   6
Atom  97H    basis set group =>   6
Atom  98H    basis set group =>   6
Atom  99H    basis set group =>   6
Atom 100H    basis set group =>   6
Atom 101H    basis set group =>   6


           ************************************************************
           *        Program running with 6 parallel MPI-processes     *
           *              working on a common directory               *
           ************************************************************
------------------------------------------------------------------------------
                           ORCA GTO INTEGRAL CALCULATION
                           -- RI-GTO INTEGRALS CHOSEN --
------------------------------------------------------------------------------

                         BASIS SET STATISTICS AND STARTUP INFO

Gaussian basis set:
 # of primitive gaussian shells          ... 1134
 # of primitive gaussian functions       ... 2214
 # of contracted shells                  ...  570
 # of contracted basis functions         ... 1290
 Highest angular momentum                ...    2
 Maximum contraction depth               ...    5
Auxiliary gaussian basis set:
 # of primitive gaussian shells          ... 2178
 # of primitive gaussian functions       ... 6210
 # of contracted shells                  ... 1362
 # of contracted aux-basis functions     ... 4326
 Highest angular momentum                ...    4
 Maximum contraction depth               ...    7
Ratio of auxiliary to basis functions    ...  3.35
Integral package used                  ... LIBINT
 One Electron integrals                  ... done
 Ordering auxiliary basis shells         ... done
 Integral threshhold             Thresh  ...  2.500e-11
 Primitive cut-off               TCut    ...  2.500e-12
 Pre-screening matrix                    ... done
 Shell pair data                         ... 
 Ordering of the shell pairs             ... done (   0.010 sec) 45890 of 162735 pairs
 Determination of significant pairs      ... done (   0.000 sec)
 Creation of shell pair data             ... done (   0.005 sec)
 Storage of shell pair data              ... done (   0.508 sec)
 Shell pair data done in (   0.523 sec)
 Computing two index integrals           ... done
 Cholesky decomposition of the V-matrix  ... done


Timings:
 Total evaluation time                   ...   4.133 sec (  0.069 min)
 One electron matrix time                ...   0.793 sec (  0.013 min) = 19.2%
 Schwartz matrix evaluation time         ...   0.755 sec (  0.013 min) = 18.3%
 Two index repulsion integral time       ...   0.374 sec (  0.006 min) =  9.1%
 Cholesky decomposition of V             ...   1.671 sec (  0.028 min) = 40.4%
 Three index repulsion integral time     ...   0.000 sec (  0.000 min) =  0.0%



           ************************************************************
           *        Program running with 6 parallel MPI-processes     *
           *              working on a common directory               *
           ************************************************************
-------------------------------------------------------------------------------
                                 ORCA SCF
-------------------------------------------------------------------------------

------------
SCF SETTINGS
------------
Hamiltonian:
 Density Functional     Method          .... DFT(GTOs)
 Exchange Functional    Exchange        .... WB88
 Correlation Functional Correlation     .... LYP
 LDA part of GGA corr.  LDAOpt          .... VWN-5
 Gradients option       PostSCFGGA      .... off
 Hybrid DFT is turned on
   Fraction HF Exchange ScalHFX         ....  0.190000
   Scaling of DF-GGA-X  ScalDFX         ....  0.350000
   Scaling of DF-GGA-C  ScalDFC         ....  0.810000
   Scaling of DF-LDA-C  ScalLDAC        ....  1.000000
   Perturbative correction              ....  0.000000
   Density functional embedding theory  .... OFF
 Long-range corrected/Screened/Range-Separated Hybrid DFT is turned on
   Amount of maximum screened exact exchange              ....  0.460000
   Range separation parameter mu (erf(mu*r12)/r12)        ....  0.330000
 RI-approximation to the Coulomb term is turned on
   Number of auxiliary basis functions  .... 4326
   RIJ-COSX (HFX calculated with COS-X)).... on


General Settings:
 Integral files         IntName         .... xtbopt
 Hartree-Fock type      HFTyp           .... RHF
 Total Charge           Charge          ....    0
 Multiplicity           Mult            ....    1
 Number of Electrons    NEL             ....  606
 Basis Dimension        Dim             .... 1290
 Nuclear Repulsion      ENuc            ....  13401.9959980005 Eh

Convergence Acceleration:
 DIIS                   CNVDIIS         .... on
   Start iteration      DIISMaxIt       ....    12
   Startup error        DIISStart       ....  0.200000
   # of expansion vecs  DIISMaxEq       ....     5
   Bias factor          DIISBfac        ....   1.050
   Max. coefficient     DIISMaxC        ....  10.000
 Newton-Raphson         CNVNR           .... off
 SOSCF                  CNVSOSCF        .... on
   Start iteration      SOSCFMaxIt      ....   150
   Startup grad/error   SOSCFStart      ....  0.003300
 Level Shifting         CNVShift        .... on
   Level shift para.    LevelShift      ....    0.2500
   Turn off err/grad.   ShiftErr        ....    0.0010
 Zerner damping         CNVZerner       .... off
 Static damping         CNVDamp         .... on
   Fraction old density DampFac         ....    0.7000
   Max. Damping (<1)    DampMax         ....    0.9800
   Min. Damping (>=0)   DampMin         ....    0.0000
   Turn off err/grad.   DampErr         ....    0.1000
 Fernandez-Rico         CNVRico         .... off

SCF Procedure:
 Maximum # iterations   MaxIter         ....   125
 SCF integral mode      SCFMode         .... Direct
   Integral package                     .... LIBINT
 Reset frequency        DirectResetFreq ....    20
 Integral Threshold     Thresh          ....  2.500e-11 Eh
 Primitive CutOff       TCut            ....  2.500e-12 Eh

Convergence Tolerance:
 Convergence Check Mode ConvCheckMode   .... Total+1el-Energy
 Convergence forced     ConvForced      .... 1
 Energy Change          TolE            ....  1.000e-08 Eh
 1-El. energy change                    ....  1.000e-05 Eh
 Orbital Gradient       TolG            ....  1.000e-05
 Orbital Rotation angle TolX            ....  1.000e-05
 DIIS Error             TolErr          ....  5.000e-07


Diagonalization of the overlap matrix:
Smallest eigenvalue                        ... 1.964e-04
Time for diagonalization                   ...    0.590 sec
Threshold for overlap eigenvalues          ... 1.000e-08
Number of eigenvalues below threshold      ... 0
Time for construction of square roots      ...    0.521 sec
Total time needed                          ...    1.113 sec

-------------------
DFT GRID GENERATION
-------------------

General Integration Accuracy     IntAcc      ...  4.670
Radial Grid Type                 RadialGrid  ... Gauss-Chebyshev
Angular Grid (max. acc.)         AngularGrid ... Lebedev-302
Angular grid pruning method      GridPruning ... 3 (G Style)
Weight generation scheme         WeightScheme... Becke
Basis function cutoff            BFCut       ...    1.0000e-11
Integration weight cutoff        WCut        ...    1.0000e-14
Grids for H and He will be reduced by one unit

# of grid points (after initial pruning)     ... 586944 (   0.0 sec)
# of grid points (after weights+screening)   ... 504839 (   8.7 sec)
nearest neighbour list constructed           ...    0.0 sec
Grid point re-assignment to atoms done       ...    0.1 sec
Grid point division into batches done        ...    2.0 sec
Reduced shell lists constructed in    2.9 sec

Total number of grid points                  ...   504839
Total number of batches                      ...     7942
Average number of points per batch           ...       63
Average number of grid points per atom       ...     4949
Average number of shells per batch           ...    84.44 (14.81%)
Average number of basis functions per batch  ...   180.47 (13.99%)
Average number of large shells per batch     ...    55.00 (65.13%)
Average number of large basis fcns per batch ...   118.66 (65.75%)
Maximum spatial batch extension              ...  20.20, 16.52, 19.32 au
Average spatial batch extension              ...   0.36,  0.29,  0.36 au

Time for grid setup =   14.058 sec

------------------------------
INITIAL GUESS: MODEL POTENTIAL
------------------------------
Loading Hartree-Fock densities                     ... done
Calculating cut-offs                               ... done
Setting up the integral package                    ... done
Initializing the effective Hamiltonian             ... done
Starting the Coulomb interaction                   ... done (   1.4 sec)
Reading the grid                                   ... done
Mapping shells                                     ... done
Starting the XC term evaluation                    ... done (   2.8 sec)
  promolecular density results
     # of electrons  =    605.990815316
     EX              =   -590.876285160
     EC              =    -21.175172348
     EX+EC           =   -612.051457508
Transforming the Hamiltonian                       ... done (   0.2 sec)
Diagonalizing the Hamiltonian                      ... done (   0.7 sec)
Back transforming the eigenvectors                 ... done (   0.3 sec)
Now organizing SCF variables                       ... done
                      ------------------
                      INITIAL GUESS DONE (  19.8 sec)
                      ------------------
--------------------
COSX GRID GENERATION
--------------------

General Integration Accuracy     IntAcc      ...  3.340
Radial Grid Type                 RadialGrid  ... Gauss-Chebyshev
Angular Grid (max. acc.)         AngularGrid ... Lebedev-50
Angular grid pruning method      GridPruning ... 3 (G Style)
Weight generation scheme         WeightScheme... Becke
Basis function cutoff            BFCut       ...    1.0000e-11
Integration weight cutoff        WCut        ...    1.0000e-14
Grids for H and He will be reduced by one unit

# of grid points (after initial pruning)     ...  55124 (   0.0 sec)
# of grid points (after weights+screening)   ...  49716 (   0.7 sec)
nearest neighbour list constructed           ...    0.0 sec
Grid point re-assignment to atoms done       ...    0.0 sec
Grid point division into batches done        ...    0.0 sec
Reduced shell lists constructed in    0.1 sec

Total number of grid points                  ...    49716
Total number of batches                      ...      830
Average number of points per batch           ...       59
Average number of grid points per atom       ...      487
Average number of shells per batch           ...   100.74 (17.67%)
Average number of basis functions per batch  ...   217.50 (16.86%)
Average number of large shells per batch     ...    64.79 (64.32%)
Average number of large basis fcns per batch ...   142.04 (65.30%)
Maximum spatial batch extension              ...  25.32, 15.50, 25.32 au
Average spatial batch extension              ...   0.91,  0.55,  0.91 au

Overlap Fitting                  UseSFitting ... on
Constructing numerical overlap ... done (      0.2 sec)
Inverting numerical overlap    ... done (      0.1 sec)
Obtaining analytic overlap     ... done (      0.0 sec)
Final contraction and storage  ... done (      0.6 sec)


General Integration Accuracy     IntAcc      ...  3.670
Radial Grid Type                 RadialGrid  ... Gauss-Chebyshev
Angular Grid (max. acc.)         AngularGrid ... Lebedev-50
Angular grid pruning method      GridPruning ... 3 (G Style)
Weight generation scheme         WeightScheme... Becke
Basis function cutoff            BFCut       ...    1.0000e-11
Integration weight cutoff        WCut        ...    1.0000e-14
Grids for H and He will be reduced by one unit

# of grid points (after initial pruning)     ...  68184 (   0.0 sec)
# of grid points (after weights+screening)   ...  61207 (   0.7 sec)
nearest neighbour list constructed           ...    0.0 sec
Grid point re-assignment to atoms done       ...    0.0 sec
Grid point division into batches done        ...    0.0 sec
Reduced shell lists constructed in    0.2 sec

Total number of grid points                  ...    61207
Total number of batches                      ...     1011
Average number of points per batch           ...       60
Average number of grid points per atom       ...      600
Average number of shells per batch           ...    98.81 (17.33%)
Average number of basis functions per batch  ...   213.23 (16.53%)
Average number of large shells per batch     ...    63.99 (64.76%)
Average number of large basis fcns per batch ...   140.32 (65.81%)
Maximum spatial batch extension              ...  23.85, 16.69, 25.00 au
Average spatial batch extension              ...   0.87,  0.51,  0.87 au

Overlap Fitting                  UseSFitting ... on
Constructing numerical overlap ... done (      0.2 sec)
Inverting numerical overlap    ... done (      0.1 sec)
Obtaining analytic overlap     ... done (      0.0 sec)
Final contraction and storage  ... done (      0.4 sec)


General Integration Accuracy     IntAcc      ...  4.010
Radial Grid Type                 RadialGrid  ... Gauss-Chebyshev
Angular Grid (max. acc.)         AngularGrid ... Lebedev-110
Angular grid pruning method      GridPruning ... 3 (G Style)
Weight generation scheme         WeightScheme... Becke
Basis function cutoff            BFCut       ...    1.0000e-11
Integration weight cutoff        WCut        ...    1.0000e-14
Grids for H and He will be reduced by one unit

# of grid points (after initial pruning)     ... 136140 (   0.0 sec)
# of grid points (after weights+screening)   ... 120737 (   1.6 sec)
nearest neighbour list constructed           ...    0.0 sec
Grid point re-assignment to atoms done       ...    0.0 sec
Grid point division into batches done        ...    0.1 sec
Reduced shell lists constructed in    0.4 sec

Total number of grid points                  ...   120737
Total number of batches                      ...     1940
Average number of points per batch           ...       62
Average number of grid points per atom       ...     1184
Average number of shells per batch           ...    93.83 (16.46%)
Average number of basis functions per batch  ...   201.83 (15.65%)
Average number of large shells per batch     ...    61.10 (65.12%)
Average number of large basis fcns per batch ...   133.21 (66.00%)
Maximum spatial batch extension              ...  28.40, 17.57, 29.80 au
Average spatial batch extension              ...   0.64,  0.44,  0.66 au

Overlap Fitting                  UseSFitting ... on
Constructing numerical overlap ... done (      0.3 sec)
Inverting numerical overlap    ... done (      0.2 sec)
Obtaining analytic overlap     ... done (      0.0 sec)
Final contraction and storage  ... done (      0.6 sec)

Time for X-Grid setup             =    6.812 sec
--------------
SCF ITERATIONS
--------------
ITER       Energy         Delta-E        Max-DP      RMS-DP      [F,P]     Damp
               ***  Starting incremental Fock matrix formation  ***
  0  -5820.0983794217   0.000000000000 0.07866306  0.00093689  0.2296547 0.7000
  1  -5820.7269115698  -0.628532148152 0.04511488  0.00065819  0.1008308 0.7000
                               ***Turning on DIIS***
  2  -5820.9894690277  -0.262557457898 0.08851865  0.00120348  0.0322386 0.0000
  3  -5821.4354030043  -0.445933976584 0.05386782  0.00048075  0.0508536 0.0000
  4  -5821.5135526788  -0.078149674444 0.01548664  0.00015429  0.0235739 0.0000
  5  -5821.5210303760  -0.007477697291 0.00605218  0.00006773  0.0058417 0.0000
                      *** Initiating the SOSCF procedure ***
                           *** Shutting down DIIS ***
                      *** Re-Reading the Fockian *** 
                      *** Removing any level shift *** 
ITER      Energy       Delta-E        Grad      Rot      Max-DP    RMS-DP
  6  -5821.52237797  -0.0013475970  0.002272  0.002272  0.003140  0.000038
               *** Restarting incremental Fock matrix formation ***
  7  -5821.52292890  -0.0005509277  0.001625  0.008647  0.003113  0.000039
  8  -5821.52331807  -0.0003891673  0.000606  0.007921  0.003226  0.000043
  9  -5821.52334732  -0.0000292482  0.000939  0.001736  0.001460  0.000013
 10  -5821.52341411  -0.0000667959  0.000368  0.000974  0.000759  0.000008
 11  -5821.52341401   0.0000001064  0.000305  0.000384  0.000484  0.000004
 12  -5821.52342009  -0.0000060826  0.000035  0.000155  0.000187  0.000002
 13  -5821.52342002   0.0000000708  0.000025  0.000069  0.000109  0.000001
 14  -5821.52342034  -0.0000003208  0.000008  0.000032  0.000043  0.000000
 15  -5821.52342037  -0.0000000336  0.000008  0.000015  0.000025  0.000000
                  ***Gradient check signals convergence***
              ***Rediagonalizing the Fockian in SOSCF/NRSCF***

               *****************************************************
               *                     SUCCESS                       *
               *           SCF CONVERGED AFTER  16 CYCLES          *
               *****************************************************

Setting up the final grid:

General Integration Accuracy     IntAcc      ...  5.010
Radial Grid Type                 RadialGrid  ... Gauss-Chebyshev
Angular Grid (max. acc.)         AngularGrid ... Lebedev-434
Angular grid pruning method      GridPruning ... 3 (G Style)
Weight generation scheme         WeightScheme... Becke
Basis function cutoff            BFCut       ...    1.0000e-11
Integration weight cutoff        WCut        ...    1.0000e-14
Grids for H and He will be reduced by one unit

# of grid points (after initial pruning)     ... 1025244 (   0.0 sec)
# of grid points (after weights+screening)   ... 878822 (   9.6 sec)
nearest neighbour list constructed           ...    0.0 sec
Grid point re-assignment to atoms done       ...    0.1 sec
Grid point division into batches done        ...    6.5 sec
Reduced shell lists constructed in    7.9 sec

Total number of grid points                  ...   878822
Total number of batches                      ...    13789
Average number of points per batch           ...       63
Average number of grid points per atom       ...     8616
Average number of shells per batch           ...    81.93 (14.37%)
Average number of basis functions per batch  ...   174.85 (13.55%)
Average number of large shells per batch     ...    53.27 (65.03%)
Average number of large basis fcns per batch ...   114.84 (65.68%)
Maximum spatial batch extension              ...  19.45, 18.92, 18.73 au
Average spatial batch extension              ...   0.28,  0.25,  0.28 au

Final grid set up in   18.1 sec
Final integration                            ... done (   3.0 sec)
Change in XC energy                          ...    -0.000025590
Integrated number of electrons               ...   606.000097766
Previous integrated no of electrons          ...   605.999767116
Old exchange energy                            =   -161.257635282 Eh
New exchange energy                            =   -161.255249258 Eh
Exchange energy change after final integration =      0.002386025 Eh
Total energy after final integration           =  -5821.521059932 Eh
Final COS-X integration done in                =    64.560 sec

----------------
TOTAL SCF ENERGY
----------------

Total Energy       :        -5821.52105993 Eh         -158411.64153 eV

Components:
Nuclear Repulsion  :        13401.99599800 Eh          364686.85143 eV
Electronic Energy  :       -19223.51705793 Eh         -523098.49296 eV
One Electron Energy:       -34677.41589747 Eh         -943620.45931 eV
Two Electron Energy:        15453.89883954 Eh          420521.96635 eV

Virial components:
Potential Energy   :       -11607.49992069 Eh         -315856.13066 eV
Kinetic Energy     :         5785.97886075 Eh          157444.48912 eV
Virial Ratio       :            2.00614282


DFT components:
N(Alpha)           :      303.000048882806 electrons
N(Beta)            :      303.000048882806 electrons
N(Total)           :      606.000097765611 electrons
E(XC)              :     -459.472678936525 Eh       
DFET-embed. en.    :        0.000000000000 Eh       

---------------
SCF CONVERGENCE
---------------

  Last Energy change         ...    5.1768e-09  Tolerance :   1.0000e-08
  Last MAX-Density change    ...    7.1054e-15  Tolerance :   1.0000e-07
  Last RMS-Density change    ...    3.8214e-17  Tolerance :   5.0000e-09
  Last Orbital Gradient      ...    1.2380e-06  Tolerance :   1.0000e-05
  Last Orbital Rotation      ...    9.4354e-06  Tolerance :   1.0000e-05

             **** THE GBW FILE WAS UPDATED (xtbopt.gbw) ****
             **** DENSITY FILE WAS UPDATED (xtbopt.scfp) ****
             **** ENERGY FILE WAS UPDATED (xtbopt.en.tmp) ****
             **** THE GBW FILE WAS UPDATED (xtbopt.gbw) ****
             **** DENSITY FILE WAS UPDATED (xtbopt.scfp) ****
----------------
ORBITAL ENERGIES
----------------

  NO   OCC          E(Eh)            E(eV) 
   0   2.0000     -88.994635     -2421.6671 
   1   2.0000     -88.991294     -2421.5762 
   2   2.0000     -88.973903     -2421.1030 
   3   2.0000     -88.970438     -2421.0087 
   4   2.0000     -88.963158     -2420.8106 
   5   2.0000     -88.959997     -2420.7246 
   6   2.0000     -24.813017      -675.1965 
   7   2.0000     -24.812949      -675.1947 
   8   2.0000     -24.804639      -674.9685 
   9   2.0000     -24.800605      -674.8588 
  10   2.0000     -19.225903      -523.1634 
  11   2.0000     -19.222344      -523.0666 
  12   2.0000     -14.432130      -392.7182 
  13   2.0000     -14.429779      -392.6542 
  14   2.0000     -14.429770      -392.6540 
  15   2.0000     -14.429706      -392.6523 
  16   2.0000     -14.428822      -392.6282 
  17   2.0000     -14.423468      -392.4825 
  18   2.0000     -14.423406      -392.4808 
  19   2.0000     -14.418875      -392.3575 
  20   2.0000     -10.393923      -282.8330 
  21   2.0000     -10.393007      -282.8081 
  22   2.0000     -10.374881      -282.3149 
  23   2.0000     -10.374162      -282.2953 
  24   2.0000     -10.372841      -282.2594 
  25   2.0000     -10.370006      -282.1822 
  26   2.0000     -10.365080      -282.0482 
  27   2.0000     -10.358082      -281.8577 
  28   2.0000     -10.353229      -281.7257 
  29   2.0000     -10.351951      -281.6909 
  30   2.0000     -10.350428      -281.6495 
  31   2.0000     -10.350388      -281.6484 
  32   2.0000     -10.347812      -281.5783 
  33   2.0000     -10.346864      -281.5525 
  34   2.0000     -10.345115      -281.5049 
  35   2.0000     -10.341571      -281.4085 
  36   2.0000     -10.335285      -281.2374 
  37   2.0000     -10.334108      -281.2054 
  38   2.0000     -10.331849      -281.1439 
  39   2.0000     -10.330795      -281.1152 
  40   2.0000     -10.329935      -281.0918 
  41   2.0000     -10.329771      -281.0873 
  42   2.0000     -10.329540      -281.0811 
  43   2.0000     -10.329116      -281.0695 
  44   2.0000     -10.328261      -281.0463 
  45   2.0000     -10.326229      -280.9910 
  46   2.0000     -10.326185      -280.9898 
  47   2.0000     -10.326013      -280.9851 
  48   2.0000     -10.325555      -280.9726 
  49   2.0000     -10.324088      -280.9327 
  50   2.0000     -10.321761      -280.8694 
  51   2.0000     -10.319054      -280.7957 
  52   2.0000     -10.314269      -280.6655 
  53   2.0000     -10.311403      -280.5875 
  54   2.0000     -10.310019      -280.5499 
  55   2.0000     -10.309645      -280.5397 
  56   2.0000     -10.307553      -280.4828 
  57   2.0000     -10.307251      -280.4746 
  58   2.0000     -10.304730      -280.4059 
  59   2.0000     -10.304479      -280.3991 
  60   2.0000     -10.304050      -280.3874 
  61   2.0000     -10.304009      -280.3863 
  62   2.0000     -10.303867      -280.3825 
  63   2.0000     -10.303818      -280.3811 
  64   2.0000     -10.303601      -280.3752 
  65   2.0000     -10.303577      -280.3746 
  66   2.0000     -10.303522      -280.3731 
  67   2.0000     -10.303274      -280.3664 
  68   2.0000     -10.302110      -280.3347 
  69   2.0000     -10.301928      -280.3297 
  70   2.0000     -10.301725      -280.3242 
  71   2.0000     -10.301375      -280.3147 
  72   2.0000     -10.301155      -280.3087 
  73   2.0000     -10.295055      -280.1427 
  74   2.0000     -10.293235      -280.0932 
  75   2.0000     -10.291449      -280.0446 
  76   2.0000     -10.290905      -280.0298 
  77   2.0000     -10.290691      -280.0239 
  78   2.0000     -10.290352      -280.0147 
  79   2.0000     -10.290350      -280.0146 
  80   2.0000     -10.290293      -280.0131 
  81   2.0000     -10.289801      -279.9997 
  82   2.0000     -10.289581      -279.9937 
  83   2.0000     -10.289111      -279.9809 
  84   2.0000      -8.088920      -220.1107 
  85   2.0000      -8.085738      -220.0241 
  86   2.0000      -8.071123      -219.6264 
  87   2.0000      -8.067659      -219.5322 
  88   2.0000      -8.059546      -219.3114 
  89   2.0000      -8.054586      -219.1764 
  90   2.0000      -6.058140      -164.8504 
  91   2.0000      -6.054991      -164.7647 
  92   2.0000      -6.053953      -164.7364 
  93   2.0000      -6.051393      -164.6668 
  94   2.0000      -6.050776      -164.6500 
  95   2.0000      -6.048093      -164.5770 
  96   2.0000      -6.040657      -164.3746 
  97   2.0000      -6.037237      -164.2816 
  98   2.0000      -6.036853      -164.2711 
  99   2.0000      -6.033378      -164.1766 
 100   2.0000      -6.031858      -164.1352 
 101   2.0000      -6.029034      -164.0584 
 102   2.0000      -6.028380      -164.0406 
 103   2.0000      -6.025047      -163.9499 
 104   2.0000      -6.024139      -163.9251 
 105   2.0000      -6.020774      -163.8336 
 106   2.0000      -6.019734      -163.8053 
 107   2.0000      -6.016070      -163.7056 
 108   2.0000      -1.331529       -36.2327 
 109   2.0000      -1.331470       -36.2311 
 110   2.0000      -1.314247       -35.7625 
 111   2.0000      -1.311404       -35.6851 
 112   2.0000      -1.142312       -31.0839 
 113   2.0000      -1.138187       -30.9716 
 114   2.0000      -1.078867       -29.3575 
 115   2.0000      -1.077841       -29.3295 
 116   2.0000      -1.046275       -28.4706 
 117   2.0000      -1.028047       -27.9746 
 118   2.0000      -1.024162       -27.8689 
 119   2.0000      -1.021952       -27.8087 
 120   2.0000      -1.008144       -27.4330 
 121   2.0000      -1.007331       -27.4109 
 122   2.0000      -1.006127       -27.3781 
 123   2.0000      -1.004418       -27.3316 
 124   2.0000      -1.003291       -27.3009 
 125   2.0000      -1.000039       -27.2125 
 126   2.0000      -0.998521       -27.1711 
 127   2.0000      -0.993925       -27.0461 
 128   2.0000      -0.980390       -26.6778 
 129   2.0000      -0.979099       -26.6426 
 130   2.0000      -0.975504       -26.5448 
 131   2.0000      -0.971877       -26.4461 
 132   2.0000      -0.959129       -26.0992 
 133   2.0000      -0.941468       -25.6187 
 134   2.0000      -0.935164       -25.4471 
 135   2.0000      -0.928442       -25.2642 
 136   2.0000      -0.927273       -25.2324 
 137   2.0000      -0.908401       -24.7189 
 138   2.0000      -0.902841       -24.5676 
 139   2.0000      -0.898961       -24.4620 
 140   2.0000      -0.887085       -24.1388 
 141   2.0000      -0.885654       -24.0999 
 142   2.0000      -0.879148       -23.9228 
 143   2.0000      -0.871840       -23.7240 
 144   2.0000      -0.864282       -23.5183 
 145   2.0000      -0.862041       -23.4573 
 146   2.0000      -0.857589       -23.3362 
 147   2.0000      -0.852686       -23.2028 
 148   2.0000      -0.845338       -23.0028 
 149   2.0000      -0.834240       -22.7008 
 150   2.0000      -0.833024       -22.6677 
 151   2.0000      -0.832256       -22.6468 
 152   2.0000      -0.822716       -22.3872 
 153   2.0000      -0.819349       -22.2956 
 154   2.0000      -0.807143       -21.9635 
 155   2.0000      -0.800081       -21.7713 
 156   2.0000      -0.787696       -21.4343 
 157   2.0000      -0.777735       -21.1633 
 158   2.0000      -0.768829       -20.9209 
 159   2.0000      -0.768161       -20.9027 
 160   2.0000      -0.760888       -20.7048 
 161   2.0000      -0.740197       -20.1418 
 162   2.0000      -0.730347       -19.8738 
 163   2.0000      -0.723212       -19.6796 
 164   2.0000      -0.718248       -19.5445 
 165   2.0000      -0.712543       -19.3893 
 166   2.0000      -0.709076       -19.2949 
 167   2.0000      -0.708085       -19.2680 
 168   2.0000      -0.704337       -19.1660 
 169   2.0000      -0.702924       -19.1275 
 170   2.0000      -0.698534       -19.0081 
 171   2.0000      -0.693570       -18.8730 
 172   2.0000      -0.688332       -18.7305 
 173   2.0000      -0.683954       -18.6113 
 174   2.0000      -0.682702       -18.5773 
 175   2.0000      -0.681397       -18.5417 
 176   2.0000      -0.678136       -18.4530 
 177   2.0000      -0.665479       -18.1086 
 178   2.0000      -0.663726       -18.0609 
 179   2.0000      -0.657208       -17.8835 
 180   2.0000      -0.647946       -17.6315 
 181   2.0000      -0.641277       -17.4500 
 182   2.0000      -0.640340       -17.4245 
 183   2.0000      -0.631918       -17.1954 
 184   2.0000      -0.626998       -17.0615 
 185   2.0000      -0.625899       -17.0316 
 186   2.0000      -0.620687       -16.8897 
 187   2.0000      -0.619403       -16.8548 
 188   2.0000      -0.616652       -16.7799 
 189   2.0000      -0.613620       -16.6974 
 190   2.0000      -0.612346       -16.6628 
 191   2.0000      -0.611714       -16.6456 
 192   2.0000      -0.609749       -16.5921 
 193   2.0000      -0.606205       -16.4957 
 194   2.0000      -0.595781       -16.2120 
 195   2.0000      -0.594967       -16.1899 
 196   2.0000      -0.592970       -16.1355 
 197   2.0000      -0.589680       -16.0460 
 198   2.0000      -0.579705       -15.7746 
 199   2.0000      -0.575725       -15.6663 
 200   2.0000      -0.566054       -15.4031 
 201   2.0000      -0.563231       -15.3263 
 202   2.0000      -0.561789       -15.2870 
 203   2.0000      -0.560633       -15.2556 
 204   2.0000      -0.558490       -15.1973 
 205   2.0000      -0.555244       -15.1089 
 206   2.0000      -0.552405       -15.0317 
 207   2.0000      -0.551876       -15.0173 
 208   2.0000      -0.550891       -14.9905 
 209   2.0000      -0.548487       -14.9251 
 210   2.0000      -0.546789       -14.8789 
 211   2.0000      -0.545524       -14.8445 
 212   2.0000      -0.543670       -14.7940 
 213   2.0000      -0.538425       -14.6513 
 214   2.0000      -0.536333       -14.5944 
 215   2.0000      -0.535965       -14.5843 
 216   2.0000      -0.531392       -14.4599 
 217   2.0000      -0.530528       -14.4364 
 218   2.0000      -0.529170       -14.3994 
 219   2.0000      -0.527191       -14.3456 
 220   2.0000      -0.523425       -14.2431 
 221   2.0000      -0.523147       -14.2356 
 222   2.0000      -0.520290       -14.1578 
 223   2.0000      -0.519848       -14.1458 
 224   2.0000      -0.517757       -14.0889 
 225   2.0000      -0.512409       -13.9434 
 226   2.0000      -0.511780       -13.9263 
 227   2.0000      -0.511397       -13.9158 
 228   2.0000      -0.505737       -13.7618 
 229   2.0000      -0.503179       -13.6922 
 230   2.0000      -0.502972       -13.6866 
 231   2.0000      -0.502200       -13.6655 
 232   2.0000      -0.501514       -13.6469 
 233   2.0000      -0.495908       -13.4943 
 234   2.0000      -0.494448       -13.4546 
 235   2.0000      -0.494091       -13.4449 
 236   2.0000      -0.491450       -13.3730 
 237   2.0000      -0.490159       -13.3379 
 238   2.0000      -0.487620       -13.2688 
 239   2.0000      -0.486180       -13.2296 
 240   2.0000      -0.478621       -13.0240 
 241   2.0000      -0.476022       -12.9532 
 242   2.0000      -0.472937       -12.8693 
 243   2.0000      -0.471138       -12.8203 
 244   2.0000      -0.469604       -12.7786 
 245   2.0000      -0.467654       -12.7255 
 246   2.0000      -0.462968       -12.5980 
 247   2.0000      -0.460591       -12.5333 
 248   2.0000      -0.460548       -12.5322 
 249   2.0000      -0.457009       -12.4359 
 250   2.0000      -0.455229       -12.3874 
 251   2.0000      -0.454116       -12.3571 
 252   2.0000      -0.453495       -12.3402 
 253   2.0000      -0.449829       -12.2405 
 254   2.0000      -0.446759       -12.1569 
 255   2.0000      -0.446160       -12.1406 
[...]
  40   4.423     280.3   0.316732   0.277486  -24.185773  -20.721438     0.24 (  91-> 107)    0.08 (  92-> 105)    0.07 (  87-> 107)
  41   4.428     280.0   0.124101   0.109080  83.671373  96.350113     0.14 (  91-> 107)    0.12 (  92-> 105)    0.10 (  98-> 106)
  42   4.484     276.5   0.048359   0.041858  -30.874306  -28.100838     0.19 (  92-> 106)    0.12 ( 100-> 106)    0.08 (  92-> 105)
  43   4.488     276.3   0.140720   0.120240  97.674141  92.170947     0.39 (  87-> 107)    0.16 (  87-> 105)    0.13 (  91-> 107)
  44   4.503     275.4   0.002143   0.001888  -5.081899  -4.158487     0.72 ( 100-> 106)    0.08 ( 100-> 105)    0.02 (  98-> 106)
  45   4.582     270.6   0.035222   0.027945   3.451309   1.753253     0.14 ( 103-> 110)    0.13 ( 104-> 111)    0.12 ( 102-> 110)
  46   4.592     270.0   0.063886   0.061104  -36.758524  -34.970115     0.28 (  97-> 105)    0.12 (  94-> 105)    0.10 (  97-> 107)
  47   4.617     268.5   0.069813   0.060129  19.946322  15.729479     0.39 (  95-> 107)    0.11 ( 104-> 112)    0.10 ( 104-> 113)
  48   4.636     267.4   0.131192   0.114697  -80.239883  -81.134719     0.20 ( 104-> 113)    0.10 (  95-> 107)    0.09 (  97-> 105)
  49   4.654     266.4   0.082160   0.074533  68.899259  64.703570     0.30 ( 104-> 112)    0.11 (  95-> 107)    0.08 (  97-> 105)
  50   4.671     265.4   0.019499   0.016812   5.108312   4.126523     0.78 (  99-> 107)    0.05 (  99-> 105)    0.03 ( 101-> 107)
  51   4.701     263.7   0.069171   0.057717  24.116373  17.040088     0.20 (  94-> 105)    0.13 (  97-> 105)    0.12 (  94-> 107)
  52   4.725     262.4   0.107327   0.093970  14.102900  11.478227     0.21 (  96-> 108)    0.17 (  96-> 105)    0.08 (  88-> 105)
  53   4.760     260.5   0.003445   0.002814   0.153102   0.641588     0.49 (  93-> 105)    0.21 (  93-> 106)    0.11 (  86-> 106)
  54   4.782     259.3   0.014161   0.011409  25.765905  24.675011     0.21 (  96-> 105)    0.08 (  96-> 106)    0.08 ( 101-> 110)
  55   4.808     257.9   0.027416   0.021349  66.258323  62.844694     0.13 ( 103-> 109)    0.13 (  96-> 105)    0.10 (  96-> 108)
  56   4.856     255.3   0.345139   0.278387  51.662653  46.070140     0.11 ( 101-> 110)    0.10 ( 103-> 109)    0.06 ( 104-> 112)
  57   4.886     253.8   0.174642   0.144568  679.861587  587.935704     0.45 (  97-> 109)    0.07 (  91-> 105)    0.05 (  97-> 108)
  58   4.924     251.8   0.266245   0.216908  -946.624534  -857.387794     0.13 (  97-> 109)    0.07 (  85-> 105)    0.07 (  90-> 105)
  59   4.986     248.7   0.012814   0.009381  24.730706  21.109607     0.46 (  89-> 106)    0.07 (  91-> 105)    0.07 (  95-> 106)

-----------------------------------------------------------------------------
         ABSORPTION SPECTRUM VIA TRANSITION ELECTRIC DIPOLE MOMENTS
-----------------------------------------------------------------------------
State   Energy  Wavelength   fosc         T2         TX        TY        TZ  
        (cm-1)    (nm)                  (au**2)     (au)      (au)      (au) 
-----------------------------------------------------------------------------
   0   14281.0    700.2   0.152853416   3.52363  -1.63347  -0.21247   0.90015
   1   19512.4    512.5   0.371807879   6.27310   2.48665   0.16941  -0.24695
   2   20390.0    490.4   0.471411093   7.61130  -0.22464   2.07570   1.80341
   3   22882.3    437.0   0.161793291   2.32775   0.63497  -0.46966  -1.30537
   4   23399.2    427.4   0.017062195   0.24005   0.23294   0.24728  -0.35305
   5   24922.9    401.2   0.680184993   8.98471  -0.07217  -2.97331  -0.37273
   6   25431.0    393.2   0.033314680   0.43127  -0.18069  -0.62756  -0.06920
   7   26343.1    379.6   0.005947938   0.07433   0.15014   0.00973  -0.22737
   8   26463.0    377.9   0.059871969   0.74484  -0.70864  -0.47174   0.14185
   9   26716.3    374.3   0.344741282   4.24807  -0.70698   1.75824   0.81046
  10   27429.0    364.6   0.044456419   0.53358  -0.01987   0.72909   0.04019
  11   27512.6    363.5   0.011258579   0.13472  -0.11592  -0.34213  -0.06502
  12   27699.1    361.0   0.021722268   0.25818   0.27496   0.34141   0.25693
  13   28159.4    355.1   0.614927260   7.18913  -2.31294  -1.16393   0.69620
  14   28777.4    347.5   0.087856096   1.00507   0.66312   0.05384  -0.74996
  15   29173.5    342.8   0.509439588   5.74883   1.95302   0.71452  -1.19332
  16   29421.7    339.9   0.013162179   0.14728  -0.10471  -0.33109   0.16337
  17   29580.2    338.1   0.219641210   2.44449  -0.95468   0.02030   1.23801
  18   30235.3    330.7   0.060013194   0.65344  -0.32458  -0.70250  -0.23364
  19   30509.4    327.8   0.082421519   0.88937  -0.84781  -0.28984   0.29425
  20   31323.7    319.2   0.136358697   1.43313   0.85810   0.78813  -0.27503
  21   31728.7    315.2   0.018065787   0.18745  -0.40960  -0.04935   0.13129
  22   32013.7    312.4   0.699340624   7.19165   1.37978   1.14431   1.99460
  23   32958.6    303.4   0.802059598   8.01148   2.18663  -0.69988  -1.65538
  24   33036.1    302.7   0.135732093   1.35260  -0.76378  -0.41976   0.77010
  25   33248.7    300.8   0.097722272   0.96760   0.22514  -0.75014  -0.59514
  26   33337.8    300.0   0.089252193   0.88137  -0.77435   0.16081   0.50585
  27   33498.2    298.5   0.245028759   2.40808   1.09966   0.95779  -0.53053
  28   33629.5    297.4   0.008181996   0.08010  -0.08955  -0.17420   0.20428
  29   33666.0    297.0   0.016178336   0.15820   0.34207  -0.06870  -0.19098
  30   33894.4    295.0   0.094373570   0.91664   0.90330   0.22936  -0.21928
  31   34000.8    294.1   0.187439311   1.81488  -0.43189   0.83464   0.96526
  32   34182.4    292.5   0.076088650   0.73281  -0.82043  -0.21959   0.10715
  33   34283.2    291.7   0.308733500   2.96468   1.19900   0.93101  -0.81259
  34   34471.2    290.1   0.074384655   0.71040   0.18704  -0.03067  -0.82126
  35   34532.7    289.6   0.041274042   0.39348   0.53288   0.31822  -0.09085
  36   34868.1    286.8   0.026340892   0.24870   0.33671   0.25929  -0.26095
  37   34992.8    285.8   0.030170210   0.28384  -0.08275  -0.36357   0.38054
  38   35271.8    283.5   0.000631609   0.00590  -0.06328   0.04108  -0.01423
  39   35597.1    280.9   0.007734272   0.07153   0.07999   0.25361  -0.02849
  40   35669.9    280.3   0.316732209   2.92325  -0.95876  -1.32476  -0.49905
  41   35714.7    280.0   0.124100652   1.14394   0.53022   0.72757   0.57744
  42   36166.3    276.5   0.048359008   0.44020  -0.19791  -0.63021  -0.06216
  43   36198.5    276.3   0.140719722   1.27979  -0.53634  -0.89150  -0.44426
  44   36315.2    275.4   0.002142757   0.01942  -0.07064  -0.11946  -0.01282
  45   36953.0    270.6   0.035222156   0.31379   0.49717  -0.01595  -0.25760
  46   37038.8    270.0   0.063886256   0.56784  -0.36465   0.16708   0.63793
  47   37239.0    268.5   0.069812659   0.61718   0.60961   0.25383  -0.42560
  48   37392.3    267.4   0.131192335   1.15505   0.32707  -0.78644  -0.65543
  49   37533.0    266.4   0.082159549   0.72064   0.17022   0.81403  -0.17037
  50   37676.9    265.4   0.019499088   0.17038  -0.18665   0.31237   0.19485
  51   37915.5    263.7   0.069170739   0.60059   0.10173   0.09200  -0.76274
  52   38109.4    262.4   0.107327450   0.92716  -0.69535  -0.16555   0.64517
  53   38392.3    260.5   0.003445453   0.02954   0.02823   0.10665  -0.13181
  54   38571.9    259.3   0.014161369   0.12087  -0.08292   0.32457  -0.09298
  55   38775.9    257.9   0.027415668   0.23276  -0.04906  -0.43084   0.21151
  56   39166.3    255.3   0.345138677   2.90106   0.75789   1.43372  -0.52069
  57   39405.1    253.8   0.174641904   1.45906  -0.08746   0.44205  -1.12071
  58   39711.2    251.8   0.266245329   2.20722   0.08224   1.17272   0.90839
  59   40211.4    248.7   0.012813891   0.10491   0.28001  -0.14844  -0.06684

-----------------------------------------------------------------------------
         ABSORPTION SPECTRUM VIA TRANSITION VELOCITY DIPOLE MOMENTS
-----------------------------------------------------------------------------
State   Energy  Wavelength   fosc         P2         PX        PY        PZ  
        (cm-1)    (nm)                  (au**2)     (au)      (au)      (au) 
-----------------------------------------------------------------------------
   0   14281.0    700.2   0.185352795   0.01809  -0.11691  -0.01466   0.06487
   1   19512.4    512.5   0.388460708   0.05180   0.22620   0.01432  -0.02076
   2   20390.0    490.4   0.500818803   0.06979  -0.01919   0.20131   0.16999
   3   22882.3    437.0   0.160031219   0.02503   0.06458  -0.04966  -0.13561
   4   23399.2    427.4   0.017992648   0.00288   0.02687   0.02936  -0.03596
   5   24922.9    401.2   0.666689099   0.11356  -0.00981  -0.33441  -0.04043
   6   25431.0    393.2   0.036233890   0.00630  -0.02250  -0.07595  -0.00487
   7   26343.1    379.6   0.007601116   0.00137   0.02168   0.00126  -0.02995
   8   26463.0    377.9   0.060502260   0.01094  -0.08554  -0.05626   0.02145
   9   26716.3    374.3   0.318907361   0.05823  -0.08507   0.20389   0.09706
  10   27429.0    364.6   0.042037044   0.00788  -0.00385   0.08856   0.00483
  11   27512.6    363.5   0.010909725   0.00205  -0.01395  -0.04197  -0.00978
  12   27699.1    361.0   0.021172029   0.00401   0.03373   0.04484   0.02933
  13   28159.4    355.1   0.566457887   0.10902  -0.28465  -0.14314   0.08663
  14   28777.4    347.5   0.082255020   0.01618   0.08490   0.00738  -0.09442
  15   29173.5    342.8   0.484153930   0.09653   0.25344   0.09559  -0.15220
  16   29421.7    339.9   0.013061953   0.00263  -0.01257  -0.04363   0.02377
  17   29580.2    338.1   0.197885114   0.04001  -0.12088   0.00370   0.15931
  18   30235.3    330.7   0.055750829   0.01152  -0.04354  -0.09323  -0.03055
  19   30509.4    327.8   0.076213374   0.01589  -0.11342  -0.03885   0.03897
  20   31323.7    319.2   0.127768567   0.02735   0.11924   0.10667  -0.04192
  21   31728.7    315.2   0.015289375   0.00332  -0.05455  -0.00621   0.01735
  22   32013.7    312.4   0.630760209   0.13801   0.19150   0.15914   0.27570
  23   32958.6    303.4   0.716422481   0.16138   0.31116  -0.09836  -0.23427
  24   33036.1    302.7   0.125242455   0.02828  -0.10980  -0.06416   0.11002
  25   33248.7    300.8   0.090074708   0.02047   0.03362  -0.10825  -0.08729
  26   33337.8    300.0   0.080526865   0.01835  -0.11118   0.02372   0.07365
  27   33498.2    298.5   0.226364239   0.05182   0.16043   0.14016  -0.08025
  28   33629.5    297.4   0.008199466   0.00188  -0.01221  -0.02748   0.03131
  29   33666.0    297.0   0.014922510   0.00343   0.05059  -0.00835  -0.02837
  30   33894.4    295.0   0.084370489   0.01954   0.13210   0.03178  -0.03294
  31   34000.8    294.1   0.162197343   0.03769  -0.06315   0.12083   0.13822
  32   34182.4    292.5   0.066683965   0.01558  -0.11923  -0.03275   0.01703
  33   34283.2    291.7   0.276787010   0.06485   0.17735   0.13751  -0.12038
  34   34471.2    290.1   0.060950361   0.01436   0.02476  -0.00313  -0.11720
  35   34532.7    289.6   0.032817878   0.00775   0.07450   0.04536  -0.01172
  36   34868.1    286.8   0.023791362   0.00567   0.05119   0.03642  -0.04151
  37   34992.8    285.8   0.024128634   0.00577  -0.00870  -0.05379   0.05293
  38   35271.8    283.5   0.000299247   0.00007  -0.00583   0.00471  -0.00399
  39   35597.1    280.9   0.006423261   0.00156   0.01036   0.03796  -0.00382
  40   35669.9    280.3   0.277485964   0.06765  -0.14336  -0.20123  -0.08124
  41   35714.7    280.0   0.109079918   0.02663   0.08512   0.10865   0.08704
  42   36166.3    276.5   0.041857968   0.01035  -0.03192  -0.09612  -0.00937
  43   36198.5    276.3   0.120239607   0.02975  -0.08127  -0.13555  -0.06906
  44   36315.2    275.4   0.001887760   0.00047  -0.01246  -0.01769  -0.00065
  45   36953.0    270.6   0.027945421   0.00706   0.07506  -0.00523  -0.03738
  46   37038.8    270.0   0.061104122   0.01547  -0.06154   0.02507   0.10513
  47   37239.0    268.5   0.060128678   0.01530   0.09698   0.04101  -0.06494
  48   37392.3    267.4   0.114696549   0.02931   0.05347  -0.12610  -0.10272
  49   37533.0    266.4   0.074532649   0.01912   0.02982   0.13169  -0.02979
  50   37676.9    265.4   0.016811880   0.00433  -0.03012   0.04975   0.03077
  51   37915.5    263.7   0.057716750   0.01496   0.01840   0.01545  -0.11991
  52   38109.4    262.4   0.093969703   0.02448  -0.11327  -0.02496   0.10499
  53   38392.3    260.5   0.002814457   0.00074   0.00382   0.01797  -0.02003
  54   38571.9    259.3   0.011409077   0.00301  -0.01693   0.05053  -0.01296
  55   38775.9    257.9   0.021349011   0.00566  -0.00585  -0.06711   0.03345
  56   39166.3    255.3   0.278387037   0.07452   0.12223   0.22912  -0.08416
  57   39405.1    253.8   0.144568420   0.03893  -0.01221   0.06987  -0.18413
  58   39711.2    251.8   0.216907688   0.05887   0.01219   0.19120   0.14887
  59   40211.4    248.7   0.009381241   0.00258   0.04314  -0.02483  -0.01004

-------------------------------------------------------------------
                             CD SPECTRUM
-------------------------------------------------------------------
State   Energy Wavelength       R         MX        MY        MZ   
        (cm-1)   (nm)       (1e40*cgs)   (au)      (au)      (au)  
-------------------------------------------------------------------
   0   14281.0    700.2    -26.47568  -0.96735   0.18581  -1.58677
   1   19512.4    512.5    765.54572  -1.38945   3.40311   1.49478
   2   20390.0    490.4    -727.10999  -2.77602   1.95249  -0.88265
   3   22882.3    437.0     51.96842   2.78250  -1.81767   2.17636
   4   23399.2    427.4     69.20501   0.99889  -0.61466   1.06010
   5   24922.9    401.2      7.35775  -0.01548   0.05871  -0.38160
   6   25431.0    393.2    -31.76485  -0.04971  -0.16325  -0.33707
   7   26343.1    379.6     14.63484   0.41636   0.32902   0.56208
   8   26463.0    377.9    -16.96893   0.08651  -0.45368  -0.56908
   9   26716.3    374.3     45.72568  -1.35264   0.02247  -1.46802
  10   27429.0    364.6     14.14715   0.00754  -0.07730  -0.08723
  11   27512.6    363.5    -20.94004   0.11223  -0.29036  -0.03849
  12   27699.1    361.0      0.06937  -0.94452   0.79149  -0.04206
  13   28159.4    355.1    -188.58787  -0.06660  -2.24228  -2.82084
  14   28777.4    347.5     -1.25748   1.54917  -0.50687   1.32629
  15   29173.5    342.8    -108.32379   2.22373   0.04465   3.28107
  16   29421.7    339.9     52.53683  -0.39246   1.11093   0.63567
  17   29580.2    338.1     81.28772  -2.94186   0.92653  -2.56233
  18   30235.3    330.7     42.62431   1.08200  -0.29902   0.16989
  19   30509.4    327.8      3.99301  -0.41887  -0.63689  -1.89178
  20   31323.7    319.2    -79.30327  -0.31594   0.93093   0.45873
  21   31728.7    315.2      6.74736  -0.13173  -0.31472  -0.74729
  22   32013.7    312.4    228.63774  -5.00306   2.90202   1.30973
  23   32958.6    303.4     13.91156   4.63581   0.27323   6.04368
  24   33036.1    302.7    -112.75763  -1.88815   1.05330  -0.67738
  25   33248.7    300.8     28.35687   2.58660  -0.83318   2.23082
  26   33337.8    300.0      4.74185  -1.21523   0.34307  -2.00912
  27   33498.2    298.5    -20.23654   0.78369  -0.52226   0.51972
  28   33629.5    297.4     25.36548  -0.65154   0.95072  -0.00164
  29   33666.0    297.0    -18.46356   0.65015  -0.15082   0.80861
  30   33894.4    295.0     24.19510  -0.00398   1.13179   1.63547
  31   34000.8    294.1     81.65519  -3.60829   0.99197  -2.83109
  32   34182.4    292.5    -34.68022  -0.08540  -1.21869  -1.77834
  33   34283.2    291.7     10.29116   2.23301  -2.11961   0.92010
  34   34471.2    290.1    -15.32479   1.35378  -0.23221   0.23783
  35   34532.7    289.6    -55.67105   0.53479   0.31926   1.65547
  36   34868.1    286.8    -14.00164   1.13224   0.08581   1.31860
  37   34992.8    285.8     48.82930  -0.98305   0.94267   0.14253
  38   35271.8    283.5     10.29615   0.54926   0.03461   0.72667
  39   35597.1    280.9    -27.43956  -0.24984   0.53055  -0.06448
  40   35669.9    280.3    -24.18577   2.43050  -2.30864   1.25346
  41   35714.7    280.0     83.67137  -2.12174   1.94250  -1.11402
  42   36166.3    276.5    -30.87431   0.18608  -0.25696  -0.09438
  43   36198.5    276.3     97.67414   2.59259  -1.81835   1.45168
  44   36315.2    275.4     -5.08190  -0.01305  -0.14707  -0.23936
  45   36953.0    270.6      3.45131   0.56815   0.26900   1.13674
  46   37038.8    270.0    -36.75852  -2.01872   1.45773  -1.29128
  47   37239.0    268.5     19.94632   0.91870  -0.90089   0.97744
  48   37392.3    267.4    -80.23988   1.53559  -0.66755   1.04789
  49   37533.0    266.4     68.89926   0.36708  -0.38967   0.22054
  50   37676.9    265.4      5.10831  -0.63006   0.01365  -0.73662
  51   37915.5    263.7     24.11637   2.53761  -2.53873   0.16636
  52   38109.4    262.4     14.10290  -3.00571   0.47966  -3.20912
  53   38392.3    260.5      0.15310   0.26529  -0.14414  -0.05488
  54   38571.9    259.3     25.76590   0.36007  -0.23197   0.04473
  55   38775.9    257.9     66.25832  -1.48478   0.18518  -1.29617
  56   39166.3    255.3     51.66265   2.48647  -0.45913   2.77586
  57   39405.1    253.8    679.86159   5.15788  -5.41074   0.03683
  58   39711.2    251.8    -946.62453  -2.18405   2.85263   0.93586
  59   40211.4    248.7     24.73071  -0.24556   0.15165   0.20412

sTD-DFT done

Total run time:        4.162 sec

           *** ORCA-CIS/TD-DFT FINISHED WITHOUT ERROR ***

-------------------------   --------------------
FINAL SINGLE POINT ENERGY     -5821.521059932134
-------------------------   --------------------


                            ***************************************
                            *     ORCA property calculations      *
                            ***************************************

                                    ---------------------
                                    Active property flags
                                    ---------------------
   (+) Dipole Moment


------------------------------------------------------------------------------
                       ORCA ELECTRIC PROPERTIES CALCULATION
------------------------------------------------------------------------------

Dipole Moment Calculation                       ... on
Quadrupole Moment Calculation                   ... off
Polarizability Calculation                      ... off
GBWName                                         ... xtbopt.gbw
Electron density file                           ... xtbopt.scfp
The origin for moment calculation is the CENTER OF MASS  = ( 9.723741, 19.262413 -3.279498)

-------------
DIPOLE MOMENT
-------------
                                X             Y             Z
Electronic contribution:      3.95321     -67.96325     -36.90340
Nuclear contribution   :     -3.05878      70.20214      39.03777
                        -----------------------------------------
Total Dipole Moment    :      0.89443       2.23889       2.13436
                        -----------------------------------------
Magnitude (a.u.)       :      3.21996
Magnitude (Debye)      :      8.18449



--------------------
Rotational spectrum 
--------------------
 
Rotational constants in cm-1:     0.000691     0.000254     0.000201 
Rotational constants in MHz :    20.722722     7.616976     6.018330 

 Dipole components along the rotational axes: 
x,y,z [a.u.] :     0.018867     3.094189     0.890945 
x,y,z [Debye]:     0.047956     7.864804     2.264602 

 

Timings for individual modules:

Sum of individual times         ...      683.687 sec (=  11.395 min)
GTO integral calculation        ...        4.895 sec (=   0.082 min)   0.7 %
SCF iterations                  ...      673.918 sec (=  11.232 min)  98.6 %
CIS module                      ...        4.874 sec (=   0.081 min)   0.7 %
                             ****ORCA TERMINATED NORMALLY****
TOTAL RUN TIME: 0 days 0 hours 11 minutes 24 seconds 777 msec
