
                                 *****************
                                 * O   R   C   A *
                                 *****************

           --- An Ab Initio, DFT and Semiempirical electronic structure package ---

                  #######################################################
                  #                        -***-                        #
                  #          Department of theory and spectroscopy      #
                  #               Directorship: Frank Neese             #
                  #        Max Planck Institute fuer Kohlenforschung    #
                  #                Kaiser Wilhelm Platz 1               #
                  #                 D-45470 Muelheim/Ruhr               #
                  #                      Germany                        #
                  #                                                     #
                  #                  All rights reserved                #
                  #                        -***-                        #
                  #######################################################


                         Program Version 4.2.0 -  RELEASE  -


 With contributions from (in alphabetic order):
   Daniel Aravena         : Magnetic Suceptibility
   Michael Atanasov       : Ab Initio Ligand Field Theory (pilot matlab implementation)
   Alexander A. Auer      : GIAO ZORA, VPT2
   Ute Becker             : Parallelization
   Giovanni Bistoni       : ED, misc. LED, open-shell LED, HFLED
   Martin Brehm           : Molecular dynamics
   Dmytro Bykov           : SCF Hessian
   Vijay G. Chilkuri      : MRCI spin determinant printing, contributions to CSF-ICE
   Dipayan Datta          : RHF DLPNO-CCSD density
   Achintya Kumar Dutta   : EOM-CC, STEOM-CC
   Dmitry Ganyushin       : Spin-Orbit,Spin-Spin,Magnetic field MRCI
   Miquel Garcia          : C-PCM Hessian, Gaussian charge scheme
   Yang Guo               : DLPNO-NEVPT2, CIM, IAO-localization
   Andreas Hansen         : Spin unrestricted coupled pair/coupled cluster methods
   Benjamin Helmich-Paris : CASSCF linear response (MC-RPA)
   Lee Huntington         : MR-EOM, pCC
   Robert Izsak           : Overlap fitted RIJCOSX, COSX-SCS-MP3, EOM
   Christian Kollmar      : KDIIS, OOCD, Brueckner-CCSD(T), CCSD density
   Simone Kossmann        : Meta GGA functionals, TD-DFT gradient, OOMP2, MP2 Hessian
   Martin Krupicka        : AUTO-CI
   Lucas Lang             : DCDCAS
   Dagmar Lenk            : GEPOL surface, SMD
   Dimitrios Liakos       : Extrapolation schemes; Compound Job, initial MDCI parallelization
   Dimitrios Manganas     : Further ROCIS development; embedding schemes
   Dimitrios Pantazis     : SARC Basis sets
   Taras Petrenko         : DFT Hessian,TD-DFT gradient, ASA, ECA, R-Raman, ABS, FL, XAS/XES, NRVS
   Peter Pinski           : DLPNO-MP2, DLPNO-MP2 Gradient
   Christoph Reimann      : Effective Core Potentials
   Marius Retegan         : Local ZFS, SOC
   Christoph Riplinger    : Optimizer, TS searches, QM/MM, DLPNO-CCSD(T), (RO)-DLPNO pert. Triples
   Tobias Risthaus        : Range-separated hybrids, TD-DFT gradient, RPA, STAB
   Michael Roemelt        : Original ROCIS implementation
   Masaaki Saitow         : Open-shell DLPNO-CCSD energy and density
   Barbara Sandhoefer     : DKH picture change effects
   Avijit Sen             : IP-ROCIS
   Kantharuban Sivalingam : CASSCF convergence, NEVPT2, FIC-MRCI
   Bernardo de Souza      : ESD, SOC TD-DFT
   Georgi Stoychev        : AutoAux, RI-MP2 NMR
   Willem Van den Heuvel  : Paramagnetic NMR
   Boris Wezisla          : Elementary symmetry handling
   Frank Wennmohs         : Technical directorship


 We gratefully acknowledge several colleagues who have allowed us to
 interface, adapt or use parts of their codes:
   Stefan Grimme, W. Hujo, H. Kruse,             : VdW corrections, initial TS optimization,
                  C. Bannwarth                     DFT functionals, gCP, sTDA/sTD-DF
   Ed Valeev, F. Pavosevic, A. Kumar             : LibInt (2-el integral package), F12 methods
   Garnet Chan, S. Sharma, J. Yang, R. Olivares  : DMRG
   Ulf Ekstrom                                   : XCFun DFT Library
   Mihaly Kallay                                 : mrcc  (arbitrary order and MRCC methods)
   Andreas Klamt, Michael Diedenhofen            : otool_cosmo (COSMO solvation model)
   Jiri Pittner, Ondrej Demel                    : Mk-CCSD
   Frank Weinhold                                : gennbo (NPA and NBO analysis)
   Christopher J. Cramer and Donald G. Truhlar   : smd solvation model
   Lars Goerigk                                  : TD-DFT with DH, B97 family of functionals
   V. Asgeirsson, H. Jonsson                     : NEB implementation
   FAccTs GmbH                                   : IRC, NEB, NEB-TS, Multilevel, MM, QM/MM, CI optimization
   S Lehtola, MJT Oliveira, MAL Marques          : LibXC Library


 Your calculation uses the libint2 library for the computation of 2-el integrals
 For citations please refer to: http://libint.valeyev.net

 Your ORCA version has been built with support for libXC version: 4.2.3
 For citations please refer to: https://tddft.org/programs/libxc/

 This ORCA versions uses:
   CBLAS   interface :  Fast vector & matrix operations
   LAPACKE interface :  Fast linear algebra routines
   SCALAPACK package :  Parallel linear algebra routines


XCFun DFT library Copyright 2009-2010 Ulf Ekstrom and contributors.
See http://admol.org/xcfun for more information. This is free soft-
ware; see the source code for copying conditions. There is ABSOLUTELY
NO WARRANTY; not even for MERCHANTABILITY or FITNESS FOR A PARTICULAR
PURPOSE. For details see the documentation. Scientific users of this 
library should cite U. Ekstrom, L. Visscher, R. Bast, A. J. Thorvald-
sen and K. Ruud; J.Chem.Theor.Comp. 2010, DOI: 10.1021/ct100117s
XCFun Version 0.99 
----- Orbital basis set information -----
Your calculation utilizes the basis: def2-SVP
   F. Weigend and R. Ahlrichs, Phys. Chem. Chem. Phys. 7, 3297 (2005).

----- AuxJ basis set information -----
Your calculation utilizes the auxiliary basis: def2/J
   F. Weigend, Phys. Chem. Chem. Phys. 8, 1057 (2006).

================================================================================
                                        WARNINGS
                       Please study these warnings very carefully!
================================================================================

INFO   : Checking CIS options ...

WARNING: CIS/ROCIS methods need fully converged wavefunctions
  ===> : Setting SCFConvForced true
         You can overwrite this default with %scf ConvForced false 


INFO   : the flag for use of LIBINT has been found!

================================================================================
                                       INPUT FILE
================================================================================
NAME = xtbopt.inp
|  1> # ORCA input file
|  2> # SCF done       -138.501437648884          0.000875909232
|  3> ! CAM-B3LYP def2-SVP def2/J RIJCOSX Grid4 TightSCF
|  4> %maxcore 5000
|  5> %tddft
|  6>     Mode sTDDFT
|  7>     Ethresh 5.0
|  8>     maxcore 5000
|  9> end
| 10> 
| 11> %pal
| 12>   nprocs 6
| 13>   end
| 14> * xyz 0 1
| 15>    C        0.35569        -0.97807        -1.32666
| 16>    C        0.35483        -0.40824        -2.56558
| 17>    C        0.84229         0.92394        -2.55247
| 18>    S        1.00435         1.97177        -3.95169
| 19>    C       -0.00450         1.08572        -5.18968
| 20>    C        0.41884        -0.35828        -5.32286
| 21>    S       -0.23491        -1.34400        -3.93792
| 22>    C        1.21594         1.34133        -1.28083
| 23>    S        0.94319         0.07531        -0.11272
| 24>    C        1.77097         2.59018        -0.88983
| 25>    C        2.04768         3.06383         0.38720
| 26>    C        2.64666         4.34440         0.39658
| 27>    S        3.12740         5.29289         1.79819
| 28>    C        2.89431         4.13365         3.18314
| 29>    C        1.57204         3.41513         3.07975
| 30>    S        1.64952         2.10851         1.80908
| 31>    C        2.80600         4.87113        -0.87617
| 32>    S        2.23030         3.76322        -2.08745
| 33>    C        3.34340         6.11944        -1.29365
| 34>    C        4.13955         7.01272        -0.60414
| 35>    C        4.48129         8.12045        -1.38232
| 36>    C        3.93532         8.07998        -2.67402
| 37>    S        3.00931         6.66821        -2.93471
| 38>    C        4.34011         9.24772        -3.37223
| 39>    C        5.15096        10.01691        -2.52408
| 40>    C        5.26641         9.33649        -1.24442
| 41>    C        5.96470         9.74857        -0.14723
| 42>    C        6.69599        10.95460        -0.12388
| 43>    N        7.29613        11.93129        -0.08495
| 44>    C        6.00823         8.99834         1.04683
| 45>    N        6.05722         8.40122         2.02514
| 46>    C        5.60958        11.19436        -3.11828
| 47>    C        5.14802        11.33734        -4.41204
| 48>    S        4.13243         9.98212        -4.90041
| 49>    C        5.35833        12.39191        -5.34218
| 50>    C        6.30784        13.40244        -5.35294
| 51>    C        6.18864        14.25298        -6.47601
| 52>    S        7.24265        15.61017        -6.85106
| 53>    C        8.72436        15.16294        -5.88601
| 54>    C        8.38568        15.03998        -4.42125
| 55>    S        7.51247        13.47983        -4.07311
| 56>    C        5.13173        13.91956        -7.31471
| 57>    S        4.30189        12.51304        -6.71928
| 58>    C        4.68598        14.57317        -8.49576
| 59>    C        3.69527        14.17112        -9.38310
| 60>    C        3.49602        15.10273       -10.43433
| 61>    S        2.36406        15.00988       -11.78179
| 62>    C        1.24178        13.70029       -11.19613
| 63>    C        2.02363        12.47105       -10.79683
| 64>    S        2.80617        12.67384        -9.15884
| 65>    C        4.32737        16.17986       -10.34293
| 66>    S        5.37012        16.09971        -8.98866
| 67>    H        0.02746        -1.96583        -1.07501
| 68>    H        0.17221         1.63589        -6.11390
| 69>    H       -1.05581         1.16747        -4.91231
| 70>    H        1.50484        -0.45504        -5.34611
| 71>    H       -0.00696        -0.81345        -6.21709
| 72>    H        2.93883         4.76603         4.07027
| 73>    H        3.72654         3.42924         3.19701
| 74>    H        0.75888         4.09924         2.83563
| 75>    H        1.33885         2.88342         4.00193
| 76>    H        4.47619         6.85298         0.40192
| 77>    H        6.22448        11.92130        -2.62379
| 78>    H        9.42075        15.98238        -6.06292
| 79>    H        9.14043        14.23661        -6.28306
| 80>    H        7.76590        15.87286        -4.08794
| 81>    H        9.28351        14.98577        -3.80511
| 82>    H        0.58738        13.49362       -12.04306
| 83>    H        0.65066        14.08418       -10.36400
| 84>    H        2.79588        12.23616       -11.52985
| 85>    H        1.36749        11.61003       -10.66986
| 86>    H        4.37777        17.00990       -11.01753
| 87> *
| 88> 
| 89>                          ****END OF INPUT****
================================================================================

                       ****************************
                       * Single Point Calculation *
                       ****************************

---------------------------------
CARTESIAN COORDINATES (ANGSTROEM)
---------------------------------
  C      0.355690   -0.978070   -1.326660
  C      0.354830   -0.408240   -2.565580
  C      0.842290    0.923940   -2.552470
  S      1.004350    1.971770   -3.951690
  C     -0.004500    1.085720   -5.189680
  C      0.418840   -0.358280   -5.322860
  S     -0.234910   -1.344000   -3.937920
  C      1.215940    1.341330   -1.280830
  S      0.943190    0.075310   -0.112720
  C      1.770970    2.590180   -0.889830
  C      2.047680    3.063830    0.387200
  C      2.646660    4.344400    0.396580
  S      3.127400    5.292890    1.798190
  C      2.894310    4.133650    3.183140
  C      1.572040    3.415130    3.079750
  S      1.649520    2.108510    1.809080
  C      2.806000    4.871130   -0.876170
  S      2.230300    3.763220   -2.087450
  C      3.343400    6.119440   -1.293650
  C      4.139550    7.012720   -0.604140
  C      4.481290    8.120450   -1.382320
  C      3.935320    8.079980   -2.674020
  S      3.009310    6.668210   -2.934710
  C      4.340110    9.247720   -3.372230
  C      5.150960   10.016910   -2.524080
  C      5.266410    9.336490   -1.244420
  C      5.964700    9.748570   -0.147230
  C      6.695990   10.954600   -0.123880
  N      7.296130   11.931290   -0.084950
  C      6.008230    8.998340    1.046830
  N      6.057220    8.401220    2.025140
  C      5.609580   11.194360   -3.118280
  C      5.148020   11.337340   -4.412040
  S      4.132430    9.982120   -4.900410
  C      5.358330   12.391910   -5.342180
  C      6.307840   13.402440   -5.352940
  C      6.188640   14.252980   -6.476010
  S      7.242650   15.610170   -6.851060
  C      8.724360   15.162940   -5.886010
  C      8.385680   15.039980   -4.421250
  S      7.512470   13.479830   -4.073110
  C      5.131730   13.919560   -7.314710
  S      4.301890   12.513040   -6.719280
  C      4.685980   14.573170   -8.495760
  C      3.695270   14.171120   -9.383100
  C      3.496020   15.102730  -10.434330
  S      2.364060   15.009880  -11.781790
  C      1.241780   13.700290  -11.196130
  C      2.023630   12.471050  -10.796830
  S      2.806170   12.673840   -9.158840
  C      4.327370   16.179860  -10.342930
  S      5.370120   16.099710   -8.988660
  H      0.027460   -1.965830   -1.075010
  H      0.172210    1.635890   -6.113900
  H     -1.055810    1.167470   -4.912310
  H      1.504840   -0.455040   -5.346110
  H     -0.006960   -0.813450   -6.217090
  H      2.938830    4.766030    4.070270
  H      3.726540    3.429240    3.197010
  H      0.758880    4.099240    2.835630
  H      1.338850    2.883420    4.001930
  H      4.476190    6.852980    0.401920
  H      6.224480   11.921300   -2.623790
  H      9.420750   15.982380   -6.062920
  H      9.140430   14.236610   -6.283060
  H      7.765900   15.872860   -4.087940
  H      9.283510   14.985770   -3.805110
  H      0.587380   13.493620  -12.043060
  H      0.650660   14.084180  -10.364000
  H      2.795880   12.236160  -11.529850
  H      1.367490   11.610030  -10.669860
  H      4.377770   17.009900  -11.017530

----------------------------
CARTESIAN COORDINATES (A.U.)
----------------------------
  NO LB      ZA    FRAG     MASS         X           Y           Z
   0 C     6.0000    0    12.011    0.672157   -1.848284   -2.507024
   1 C     6.0000    0    12.011    0.670532   -0.771462   -4.848244
   2 C     6.0000    0    12.011    1.591697    1.745994   -4.823469
   3 S    16.0000    0    32.060    1.897946    3.726105   -7.467612
   4 C     6.0000    0    12.011   -0.008504    2.051713   -9.807074
   5 C     6.0000    0    12.011    0.791493   -0.677051  -10.058748
   6 S    16.0000    0    32.060   -0.443916   -2.539792   -7.441590
   7 C     6.0000    0    12.011    2.297794    2.534746   -2.420418
   8 S    16.0000    0    32.060    1.782371    0.142315   -0.213010
   9 C     6.0000    0    12.011    3.346648    4.894731   -1.681535
  10 C     6.0000    0    12.011    3.869554    5.789800    0.731702
  11 C     6.0000    0    12.011    5.001463    8.209726    0.749428
  12 S    16.0000    0    32.060    5.909930   10.002113    3.398087
  13 C     6.0000    0    12.011    5.469453    7.811466    6.015263
  14 C     6.0000    0    12.011    2.970725    6.453660    5.819884
  15 S    16.0000    0    32.060    3.117141    3.984506    3.418666
  16 C     6.0000    0    12.011    5.302572    9.205102   -1.655721
  17 S    16.0000    0    32.060    4.214656    7.111455   -3.944709
  18 C     6.0000    0    12.011    6.318110   11.564066   -2.444644
  19 C     6.0000    0    12.011    7.822616   13.252120   -1.141659
  20 C     6.0000    0    12.011    8.468411   15.345427   -2.612206
  21 C     6.0000    0    12.011    7.436677   15.268949   -5.053165
  22 S    16.0000    0    32.060    5.686772   12.601091   -5.545798
  23 C     6.0000    0    12.011    8.201619   17.475658   -6.372591
  24 C     6.0000    0    12.011    9.733904   18.929217   -4.769820
  25 C     6.0000    0    12.011    9.952073   17.643409   -2.351613
  26 C     6.0000    0    12.011   11.271649   18.422127   -0.278224
  27 C     6.0000    0    12.011   12.653587   20.701194   -0.234099
  28 N     7.0000    0    14.007   13.787688   22.546871   -0.160532
  29 C     6.0000    0    12.011   11.353909   17.004398    1.978222
  30 N     7.0000    0    14.007   11.446487   15.876005    3.826960
  31 C     6.0000    0    12.011   10.600570   21.154275   -5.892695
  32 C     6.0000    0    12.011    9.728348   21.424468   -8.337547
  33 S    16.0000    0    32.060    7.809161   18.863473   -9.260433
  34 C     6.0000    0    12.011   10.125776   23.417316  -10.095257
  35 C     6.0000    0    12.011   11.920090   25.326941  -10.115591
  36 C     6.0000    0    12.011   11.694835   26.934229  -12.237885
  37 S    16.0000    0    32.060   13.686625   29.498946  -12.946627
  38 C     6.0000    0    12.011   16.486651   28.653804  -11.122947
  39 C     6.0000    0    12.011   15.846639   28.421443   -8.354952
  40 S    16.0000    0    32.060   14.196511   25.473187   -7.697062
  41 C     6.0000    0    12.011    9.697564   26.304156  -13.822799
  42 S    16.0000    0    32.060    8.129394   23.646219  -12.697599
  43 C     6.0000    0    12.011    8.855219   27.539300  -16.054660
  44 C     6.0000    0    12.011    6.983048   26.779536  -17.731489
  45 C     6.0000    0    12.011    6.606520   28.540024  -19.718026
  46 S    16.0000    0    32.060    4.467426   28.364563  -22.264356
  47 C     6.0000    0    12.011    2.346624   25.889796  -21.157619
  48 C     6.0000    0    12.011    3.824106   23.566869  -20.403052
  49 S    16.0000    0    32.060    5.302893   23.950087  -17.307699
  50 C     6.0000    0    12.011    8.177544   30.575504  -19.545305
  51 S    16.0000    0    32.060   10.148056   30.424043  -16.986106
  52 H     1.0000    0     1.008    0.051892   -3.714880   -2.031474
  53 H     1.0000    0     1.008    0.325430    3.091384  -11.553597
  54 H     1.0000    0     1.008   -1.995192    2.206199   -9.282921
  55 H     1.0000    0     1.008    2.843735   -0.859901  -10.102684
  56 H     1.0000    0     1.008   -0.013152   -1.537198  -11.748597
  57 H     1.0000    0     1.008    5.553584    9.006491    7.691696
  58 H     1.0000    0     1.008    7.042140    6.480324    6.041473
  59 H     1.0000    0     1.008    1.434075    7.746441    5.358564
  60 H     1.0000    0     1.008    2.530060    5.448874    7.562552
  61 H     1.0000    0     1.008    8.458773   12.950255    0.759519
  62 H     1.0000    0     1.008   11.762563   22.527992   -4.958245
  63 H     1.0000    0     1.008   17.802637   30.202321  -11.457258
  64 H     1.0000    0     1.008   17.272909   26.903294  -11.873263
  65 H     1.0000    0     1.008   14.675424   29.995358   -7.725087
  66 H     1.0000    0     1.008   17.543291   28.319001   -7.190616
  67 H     1.0000    0     1.008    1.109987   25.499246  -22.758085
  68 H     1.0000    0     1.008    1.229569   26.615243  -19.585122
  69 H     1.0000    0     1.008    5.283448   23.122991  -21.788259
  70 H     1.0000    0     1.008    2.584182   21.939777  -20.163113
  71 H     1.0000    0     1.008    8.272786   32.144053  -20.820114

--------------------------------
INTERNAL COORDINATES (ANGSTROEM)
--------------------------------
 C      0   0   0     0.000000000000     0.00000000     0.00000000
 C      1   0   0     1.363682417171     0.00000000     0.00000000
 C      2   1   0     1.418623514573   112.56841742     0.00000000
 S      3   2   1     1.755570494426   125.79202491   179.41100164
 C      4   3   2     1.826330245355   101.51956125    14.79357454
 C      5   4   3     1.510658686799   111.63582245   306.99009168
 S      2   1   3     1.762599535005   119.06001860   180.62175853
 C      3   2   1     1.389567207515   112.51497051     0.31834124
 S      1   2   3     1.711261522386   112.79784837     0.00000000
 C      8   3   2     1.421466012045   128.36116823   178.47187466
 C     10   8   3     1.389862715343   129.04131137   174.13366616
 C     11  10   8     1.413762550678   113.52378367   177.85484172
 S     12  11  10     1.759333629475   127.54497405   179.13292353
 C     13  12  11     1.821058710805   103.16279950     7.98752631
 C     14  13  12     1.508429128398   111.30283087   314.30583271
 S     11  10   8     1.758667229012   120.84181082   357.40129580
 C     12  11  10     1.386624062607   112.74765815     1.28747070
 S     10   8   3     1.738188872045   120.43569018   353.08776425
 C     17  12  11     1.421747574818   130.27709872   179.16863702
 C     19  17  12     1.381024265174   129.73355928    17.49670401
 C     20  19  17     1.396214916444   112.08679791   178.74559078
 C     21  20  19     1.402929061571   113.26735096     0.42450040
 S     22  21  20     1.708375933189   112.04152568   359.53937757
 C     22  21  20     1.419495986539   108.55216541   179.83334326
 C     24  22  21     1.403028652986   108.57006695     0.54144172
 C     25  24  22     1.453901576621   108.74675805   359.60189080
 C     26  25  24     1.364274439620   127.38246415   179.99159309
 C     27  26  25     1.410616406930   122.47306503     0.16933287
 N     28  27  26     1.146999093548   178.94764536   179.27535724
 C     27  26  25     1.410857610604   122.39981251   180.20337100
 N     30  27  26     1.147189073606   178.99349808   173.46492544
 C     25  24  22     1.396350402621   113.25743669   179.82743421
 C     32  25  24     1.381048823033   112.09685464     0.43775983
 S     24  22  21     1.708159376288   139.38139879   180.92289673
 C     33  32  25     1.421797665141   129.80714758   178.65076133
 C     35  33  32     1.386670796765   130.30709124    16.98518309
 C     36  35  33     1.413829252951   112.75779292   179.24183690
 S     37  36  35     1.758853114589   125.66628286   181.89905060
 C     38  37  36     1.823951945502   100.64890746    21.27332490
 C     39  38  37     1.508424728516   110.57136126   300.67728714
 S     36  35  33     1.759286070513   119.68771669     1.01986162
 C     37  36  35     1.389836441636   113.52470530     1.37985851
 S     42  37  36     1.738237561699   110.51486044   358.68567528
 C     42  37  36     1.421540782778   129.01431390   177.50203561
 C     44  42  37     1.389432539636   128.39878797   174.39721384
 C     45  44  42     1.418690335309   112.54115066   178.23019756
 S     46  45  44     1.762272117381   128.47579004   179.59595372
 C     47  46  45     1.821410443063   100.82467187    15.57287071
 C     48  47  46     1.510549863493   110.55922387   307.32852499
 S     45  44  42     1.755744501914   121.75370059   359.09578981
 C     46  45  44     1.363710313593   112.54376782     0.38915146
 S     51  46  45     1.711081183901   112.80272396   359.97090434
 H      1   2   3     1.070855953432   126.77984458   179.33240888
 H      5   4   3     1.089998193301   103.90598767   187.00856949
 H      5   4   3     1.090353105879   108.89291218    70.35514750
 H      6   5   4     1.090549888863   111.45414859   316.49012367
 H      6   5   4     1.090014982374   111.22370690   193.93360678
 H     14  13  12     1.090360551240   104.14310830   193.94829154
 H     14  13  12     1.090409371704   108.85737959    77.26119461
 H     15  14  13     1.090334926571   111.72962443   314.69624883
 H     15  14  13     1.089728889495   111.22278567   191.82108372
 H     20  19  17     1.072846718222   123.55784276     0.45299456
 H     32  25  24     1.072876569648   124.29491012   178.72270730
 H     39  38  37     1.089833975338   104.40880659   180.93734061
 H     39  38  37     1.090344081609   109.00413460    63.85780543
 H     40  39  38     1.090372367084   111.23494904   314.76919162
 H     40  39  38     1.090259571203   111.58791895   192.19951714
 H     48  47  46     1.090065261257   104.85622889   187.37562311
 H     48  47  46     1.090520391098   109.04081494    70.16203813
 H     49  48  47     1.090349345393   111.35752492   315.83926515
 H     49  48  47     1.089952531489   111.22641422   193.34678736
 H     51  46  45     1.070790232305   126.77941053   179.31481638

---------------------------
INTERNAL COORDINATES (A.U.)
---------------------------
 C      0   0   0     0.000000000000     0.00000000     0.00000000
 C      1   0   0     2.576986302096     0.00000000     0.00000000
 C      2   1   0     2.680809929684   112.56841742     0.00000000
 S      3   2   1     3.317547443258   125.79202491   179.41100164
 C      4   3   2     3.451263993819   101.51956125    14.79357454
 C      5   4   3     2.854731199878   111.63582245   306.99009168
 S      2   1   3     3.330830404936   119.06001860   180.62175853
 C      3   2   1     2.625901466880   112.51497051     0.31834124
 S      1   2   3     3.233815620827   112.79784837     0.00000000
 C      8   3   2     2.686181471443   128.36116823   178.47187466
 C     10   8   3     2.626459895746   129.04131137   174.13366616
 C     11  10   8     2.671624039176   113.52378367   177.85484172
 S     12  11  10     3.324658737905   127.54497405   179.13292353
 C     13  12  11     3.441302237214   103.16279950     7.98752631
 C     14  13  12     2.850517945102   111.30283087   314.30583271
 S     11  10   8     3.323399423534   120.84181082   357.40129580
 C     12  11  10     2.620339729032   112.74765815     1.28747070
 S     10   8   3     3.284700937194   120.43569018   353.08776425
 C     17  12  11     2.686713547972   130.27709872   179.16863702
 C     19  17  12     2.609757645479   129.73355928    17.49670401
 C     20  19  17     2.638463816174   112.08679791   178.74559078
 C     21  20  19     2.651151711688   113.26735096     0.42450040
 S     22  21  20     3.228362647510   112.04152568   359.53937757
 C     22  21  20     2.682458662759   108.55216541   179.83334326
 C     24  22  21     2.651339912188   108.57006695     0.54144172
 C     25  24  22     2.747475805489   108.74675805   359.60189080
 C     26  25  24     2.578105062390   127.38246415   179.99159309
 C     27  26  25     2.665678689114   122.47306503     0.16933287
 N     28  27  26     2.167514162662   178.94764536   179.27535724
 C     27  26  25     2.666134498001   122.39981251   180.20337100
 N     30  27  26     2.167873172941   178.99349808   173.46492544
 C     25  24  22     2.638719847944   113.25743669   179.82743421
 C     32  25  24     2.609804053106   112.09685464     0.43775983
 S     24  22  21     3.227953414274   139.38139879   180.92289673
 C     33  32  25     2.686808204965   129.80714758   178.65076133
 C     35  33  32     2.620428043792   130.30709124    16.98518309
 C     36  35  33     2.671750088204   112.75779292   179.24183690
 S     37  36  35     3.323750696368   125.66628286   181.89905060
 C     38  37  36     3.446769658431   100.64890746    21.27332490
 C     39  38  37     2.850509630531   110.57136126   300.67728714
 S     36  35  33     3.324568864491   119.68771669     1.01986162
 C     37  36  35     2.626410245636   113.52470530     1.37985851
 S     42  37  36     3.284792947305   110.51486044   358.68567528
 C     42  37  36     2.686322767650   129.01431390   177.50203561
 C     44  42  37     2.625646981471   128.39878797   174.39721384
 C     45  44  42     2.680936202575   112.54115066   178.23019756
 S     46  45  44     3.330211675296   128.47579004   179.59595372
 C     47  46  45     3.441966914854   100.82467187    15.57287071
 C     48  47  46     2.854525553635   110.55922387   307.32852499
 S     45  44  42     3.317876269755   121.75370059   359.09578981
 C     46  45  44     2.577039018695   112.54376782     0.38915146
 S     51  46  45     3.233474830479   112.80272396   359.97090434
 H      1   2   3     2.023624480865   126.77984458   179.33240888
 H      5   4   3     2.059798071808   103.90598767   187.00856949
 H      5   4   3     2.060468759382   108.89291218    70.35514750
 H      6   5   4     2.060840625330   111.45414859   316.49012367
 H      6   5   4     2.059829798558   111.22370690   193.93360678
 H     14  13  12     2.060482829075   104.14310830   193.94829154
 H     14  13  12     2.060575086382   108.85737959    77.26119461
 H     15  14  13     2.060434405468   111.72962443   314.69624883
 H     15  14  13     2.059289161368   111.22278567   191.82108372
 H     20  19  17     2.027386481116   123.55784276     0.45299456
 H     32  25  24     2.027442892136   124.29491012   178.72270730
 H     39  38  37     2.059487744831   104.40880659   180.93734061
 H     39  38  37     2.060451705983   109.00413460    63.85780543
 H     40  39  38     2.060505157784   111.23494904   314.76919162
 H     40  39  38     2.060292004460   111.58791895   192.19951714
 H     48  47  46     2.059924811878   104.85622889   187.37562311
 H     48  47  46     2.060784882631   109.04081494    70.16203813
 H     49  48  47     2.060461653094   111.35752492   315.83926515
 H     49  48  47     2.059711783489   111.22641422   193.34678736
 H     51  46  45     2.023500285935   126.77941053   179.31481638

---------------------
BASIS SET INFORMATION
---------------------
There are 4 groups of distinct atoms

 Group   1 Type C   : 7s4p1d contracted to 3s2p1d pattern {511/31/1}
 Group   2 Type S   : 10s7p1d contracted to 4s3p1d pattern {5311/511/1}
 Group   3 Type N   : 7s4p1d contracted to 3s2p1d pattern {511/31/1}
 Group   4 Type H   : 4s1p contracted to 2s1p pattern {31/1}

Atom   0C    basis set group =>   1
Atom   1C    basis set group =>   1
Atom   2C    basis set group =>   1
Atom   3S    basis set group =>   2
Atom   4C    basis set group =>   1
Atom   5C    basis set group =>   1
Atom   6S    basis set group =>   2
Atom   7C    basis set group =>   1
Atom   8S    basis set group =>   2
Atom   9C    basis set group =>   1
Atom  10C    basis set group =>   1
Atom  11C    basis set group =>   1
Atom  12S    basis set group =>   2
Atom  13C    basis set group =>   1
Atom  14C    basis set group =>   1
Atom  15S    basis set group =>   2
Atom  16C    basis set group =>   1
Atom  17S    basis set group =>   2
Atom  18C    basis set group =>   1
Atom  19C    basis set group =>   1
Atom  20C    basis set group =>   1
Atom  21C    basis set group =>   1
Atom  22S    basis set group =>   2
Atom  23C    basis set group =>   1
Atom  24C    basis set group =>   1
Atom  25C    basis set group =>   1
Atom  26C    basis set group =>   1
Atom  27C    basis set group =>   1
Atom  28N    basis set group =>   3
Atom  29C    basis set group =>   1
Atom  30N    basis set group =>   3
Atom  31C    basis set group =>   1
Atom  32C    basis set group =>   1
Atom  33S    basis set group =>   2
Atom  34C    basis set group =>   1
Atom  35C    basis set group =>   1
Atom  36C    basis set group =>   1
Atom  37S    basis set group =>   2
Atom  38C    basis set group =>   1
Atom  39C    basis set group =>   1
Atom  40S    basis set group =>   2
Atom  41C    basis set group =>   1
Atom  42S    basis set group =>   2
Atom  43C    basis set group =>   1
Atom  44C    basis set group =>   1
Atom  45C    basis set group =>   1
Atom  46S    basis set group =>   2
Atom  47C    basis set group =>   1
Atom  48C    basis set group =>   1
Atom  49S    basis set group =>   2
Atom  50C    basis set group =>   1
Atom  51S    basis set group =>   2
Atom  52H    basis set group =>   4
Atom  53H    basis set group =>   4
Atom  54H    basis set group =>   4
Atom  55H    basis set group =>   4
Atom  56H    basis set group =>   4
Atom  57H    basis set group =>   4
Atom  58H    basis set group =>   4
Atom  59H    basis set group =>   4
Atom  60H    basis set group =>   4
Atom  61H    basis set group =>   4
Atom  62H    basis set group =>   4
Atom  63H    basis set group =>   4
Atom  64H    basis set group =>   4
Atom  65H    basis set group =>   4
Atom  66H    basis set group =>   4
Atom  67H    basis set group =>   4
Atom  68H    basis set group =>   4
Atom  69H    basis set group =>   4
Atom  70H    basis set group =>   4
Atom  71H    basis set group =>   4
---------------------------------
AUXILIARY/J BASIS SET INFORMATION
---------------------------------
There are 4 groups of distinct atoms

 Group   1 Type C   : 12s5p4d2f1g contracted to 6s4p3d1f1g pattern {711111/2111/211/2/1}
 Group   2 Type S   : 14s5p5d2f1g contracted to 8s4p3d1f1g pattern {71111111/2111/311/2/1}
 Group   3 Type N   : 12s5p4d2f1g contracted to 6s4p3d1f1g pattern {711111/2111/211/2/1}
 Group   4 Type H   : 5s2p1d contracted to 3s1p1d pattern {311/2/1}

Atom   0C    basis set group =>   1
Atom   1C    basis set group =>   1
Atom   2C    basis set group =>   1
Atom   3S    basis set group =>   2
Atom   4C    basis set group =>   1
Atom   5C    basis set group =>   1
Atom   6S    basis set group =>   2
Atom   7C    basis set group =>   1
Atom   8S    basis set group =>   2
Atom   9C    basis set group =>   1
Atom  10C    basis set group =>   1
Atom  11C    basis set group =>   1
Atom  12S    basis set group =>   2
Atom  13C    basis set group =>   1
Atom  14C    basis set group =>   1
Atom  15S    basis set group =>   2
Atom  16C    basis set group =>   1
Atom  17S    basis set group =>   2
Atom  18C    basis set group =>   1
Atom  19C    basis set group =>   1
Atom  20C    basis set group =>   1
Atom  21C    basis set group =>   1
Atom  22S    basis set group =>   2
Atom  23C    basis set group =>   1
Atom  24C    basis set group =>   1
Atom  25C    basis set group =>   1
Atom  26C    basis set group =>   1
Atom  27C    basis set group =>   1
Atom  28N    basis set group =>   3
Atom  29C    basis set group =>   1
Atom  30N    basis set group =>   3
Atom  31C    basis set group =>   1
Atom  32C    basis set group =>   1
Atom  33S    basis set group =>   2
Atom  34C    basis set group =>   1
Atom  35C    basis set group =>   1
Atom  36C    basis set group =>   1
Atom  37S    basis set group =>   2
Atom  38C    basis set group =>   1
Atom  39C    basis set group =>   1
Atom  40S    basis set group =>   2
Atom  41C    basis set group =>   1
Atom  42S    basis set group =>   2
Atom  43C    basis set group =>   1
Atom  44C    basis set group =>   1
Atom  45C    basis set group =>   1
Atom  46S    basis set group =>   2
Atom  47C    basis set group =>   1
Atom  48C    basis set group =>   1
Atom  49S    basis set group =>   2
Atom  50C    basis set group =>   1
Atom  51S    basis set group =>   2
Atom  52H    basis set group =>   4
Atom  53H    basis set group =>   4
Atom  54H    basis set group =>   4
Atom  55H    basis set group =>   4
Atom  56H    basis set group =>   4
Atom  57H    basis set group =>   4
Atom  58H    basis set group =>   4
Atom  59H    basis set group =>   4
Atom  60H    basis set group =>   4
Atom  61H    basis set group =>   4
Atom  62H    basis set group =>   4
Atom  63H    basis set group =>   4
Atom  64H    basis set group =>   4
Atom  65H    basis set group =>   4
Atom  66H    basis set group =>   4
Atom  67H    basis set group =>   4
Atom  68H    basis set group =>   4
Atom  69H    basis set group =>   4
Atom  70H    basis set group =>   4
Atom  71H    basis set group =>   4


           ************************************************************
           *        Program running with 6 parallel MPI-processes     *
           *              working on a common directory               *
           ************************************************************
------------------------------------------------------------------------------
                           ORCA GTO INTEGRAL CALCULATION
                           -- RI-GTO INTEGRALS CHOSEN --
------------------------------------------------------------------------------

                         BASIS SET STATISTICS AND STARTUP INFO

Gaussian basis set:
 # of primitive gaussian shells          ...  808
 # of primitive gaussian functions       ... 1556
 # of contracted shells                  ...  400
 # of contracted basis functions         ...  884
 Highest angular momentum                ...    2
 Maximum contraction depth               ...    5
Auxiliary gaussian basis set:
 # of primitive gaussian shells          ... 1450
 # of primitive gaussian functions       ... 4058
 # of contracted shells                  ...  908
 # of contracted aux-basis functions     ... 2796
 Highest angular momentum                ...    4
 Maximum contraction depth               ...    7
Ratio of auxiliary to basis functions    ...  3.16
Integral package used                  ... LIBINT
 One Electron integrals                  ... done
 Ordering auxiliary basis shells         ... done
 Integral threshhold             Thresh  ...  2.500e-11
 Primitive cut-off               TCut    ...  2.500e-12
 Pre-screening matrix                    ... done
 Shell pair data                         ... 
 Ordering of the shell pairs             ... done (   0.006 sec) 29368 of 80200 pairs
 Determination of significant pairs      ... done (   0.000 sec)
 Creation of shell pair data             ... done (   0.003 sec)
 Storage of shell pair data              ... done (   0.004 sec)
 Shell pair data done in (   0.013 sec)
 Computing two index integrals           ... done
 Cholesky decomposition of the V-matrix  ... done


Timings:
 Total evaluation time                   ...   1.278 sec (  0.021 min)
 One electron matrix time                ...   0.252 sec (  0.004 min) = 19.7%
 Schwartz matrix evaluation time         ...   0.418 sec (  0.007 min) = 32.7%
 Two index repulsion integral time       ...   0.139 sec (  0.002 min) = 10.9%
 Cholesky decomposition of V             ...   0.441 sec (  0.007 min) = 34.5%
 Three index repulsion integral time     ...   0.000 sec (  0.000 min) =  0.0%



           ************************************************************
           *        Program running with 6 parallel MPI-processes     *
           *              working on a common directory               *
           ************************************************************
-------------------------------------------------------------------------------
                                 ORCA SCF
-------------------------------------------------------------------------------

------------
SCF SETTINGS
------------
Hamiltonian:
 Density Functional     Method          .... DFT(GTOs)
 Exchange Functional    Exchange        .... WB88
 Correlation Functional Correlation     .... LYP
 LDA part of GGA corr.  LDAOpt          .... VWN-5
 Gradients option       PostSCFGGA      .... off
 Hybrid DFT is turned on
   Fraction HF Exchange ScalHFX         ....  0.190000
   Scaling of DF-GGA-X  ScalDFX         ....  0.350000
   Scaling of DF-GGA-C  ScalDFC         ....  0.810000
   Scaling of DF-LDA-C  ScalLDAC        ....  1.000000
   Perturbative correction              ....  0.000000
   Density functional embedding theory  .... OFF
 Long-range corrected/Screened/Range-Separated Hybrid DFT is turned on
   Amount of maximum screened exact exchange              ....  0.460000
   Range separation parameter mu (erf(mu*r12)/r12)        ....  0.330000
 RI-approximation to the Coulomb term is turned on
   Number of auxiliary basis functions  .... 2796
   RIJ-COSX (HFX calculated with COS-X)).... on


General Settings:
 Integral files         IntName         .... xtbopt
 Hartree-Fock type      HFTyp           .... RHF
 Total Charge           Charge          ....    0
 Multiplicity           Mult            ....    1
 Number of Electrons    NEL             ....  474
 Basis Dimension        Dim             ....  884
 Nuclear Repulsion      ENuc            ....   9439.6804736335 Eh

Convergence Acceleration:
 DIIS                   CNVDIIS         .... on
   Start iteration      DIISMaxIt       ....    12
   Startup error        DIISStart       ....  0.200000
   # of expansion vecs  DIISMaxEq       ....     5
   Bias factor          DIISBfac        ....   1.050
   Max. coefficient     DIISMaxC        ....  10.000
 Newton-Raphson         CNVNR           .... off
 SOSCF                  CNVSOSCF        .... on
   Start iteration      SOSCFMaxIt      ....   150
   Startup grad/error   SOSCFStart      ....  0.003300
 Level Shifting         CNVShift        .... on
   Level shift para.    LevelShift      ....    0.2500
   Turn off err/grad.   ShiftErr        ....    0.0010
 Zerner damping         CNVZerner       .... off
 Static damping         CNVDamp         .... on
   Fraction old density DampFac         ....    0.7000
   Max. Damping (<1)    DampMax         ....    0.9800
   Min. Damping (>=0)   DampMin         ....    0.0000
   Turn off err/grad.   DampErr         ....    0.1000
 Fernandez-Rico         CNVRico         .... off

SCF Procedure:
 Maximum # iterations   MaxIter         ....   125
 SCF integral mode      SCFMode         .... Direct
   Integral package                     .... LIBINT
 Reset frequency        DirectResetFreq ....    20
 Integral Threshold     Thresh          ....  2.500e-11 Eh
 Primitive CutOff       TCut            ....  2.500e-12 Eh

Convergence Tolerance:
 Convergence Check Mode ConvCheckMode   .... Total+1el-Energy
 Convergence forced     ConvForced      .... 1
 Energy Change          TolE            ....  1.000e-08 Eh
 1-El. energy change                    ....  1.000e-05 Eh
 Orbital Gradient       TolG            ....  1.000e-05
 Orbital Rotation angle TolX            ....  1.000e-05
 DIIS Error             TolErr          ....  5.000e-07


Diagonalization of the overlap matrix:
Smallest eigenvalue                        ... 1.941e-04
Time for diagonalization                   ...    0.344 sec
Threshold for overlap eigenvalues          ... 1.000e-08
Number of eigenvalues below threshold      ... 0
Time for construction of square roots      ...    0.118 sec
Total time needed                          ...    0.463 sec

-------------------
DFT GRID GENERATION
-------------------

General Integration Accuracy     IntAcc      ...  4.670
Radial Grid Type                 RadialGrid  ... Gauss-Chebyshev
Angular Grid (max. acc.)         AngularGrid ... Lebedev-302
Angular grid pruning method      GridPruning ... 3 (G Style)
Weight generation scheme         WeightScheme... Becke
Basis function cutoff            BFCut       ...    1.0000e-11
Integration weight cutoff        WCut        ...    1.0000e-14
Grids for H and He will be reduced by one unit

# of grid points (after initial pruning)     ... 399780 (   0.0 sec)
# of grid points (after weights+screening)   ... 349037 (   2.0 sec)
nearest neighbour list constructed           ...    0.0 sec
Grid point re-assignment to atoms done       ...    0.0 sec
Grid point division into batches done        ...    1.4 sec
Reduced shell lists constructed in    1.9 sec

Total number of grid points                  ...   349037
Total number of batches                      ...     5489
Average number of points per batch           ...       63
Average number of grid points per atom       ...     4848
Average number of shells per batch           ...    86.58 (21.65%)
Average number of basis functions per batch  ...   186.30 (21.07%)
Average number of large shells per batch     ...    57.21 (66.08%)
Average number of large basis fcns per batch ...   124.01 (66.57%)
Maximum spatial batch extension              ...  22.24, 19.38, 19.50 au
Average spatial batch extension              ...   0.32,  0.29,  0.27 au

Time for grid setup =    4.221 sec

------------------------------
INITIAL GUESS: MODEL POTENTIAL
------------------------------
Loading Hartree-Fock densities                     ... done
Calculating cut-offs                               ... done
Setting up the integral package                    ... done
Initializing the effective Hamiltonian             ... done
Starting the Coulomb interaction                   ... done (   0.7 sec)
Reading the grid                                   ... done
Mapping shells                                     ... done
Starting the XC term evaluation                    ... done (   0.8 sec)
  promolecular density results
     # of electrons  =    473.990960221
     EX              =   -552.073509597
     EC              =    -17.355437267
     EX+EC           =   -569.428946864
Transforming the Hamiltonian                       ... done (   0.3 sec)
Diagonalizing the Hamiltonian                      ... done (   0.3 sec)
Back transforming the eigenvectors                 ... done (   0.1 sec)
Now organizing SCF variables                       ... done
                      ------------------
                      INITIAL GUESS DONE (   6.4 sec)
                      ------------------
--------------------
COSX GRID GENERATION
--------------------

General Integration Accuracy     IntAcc      ...  3.340
Radial Grid Type                 RadialGrid  ... Gauss-Chebyshev
Angular Grid (max. acc.)         AngularGrid ... Lebedev-50
Angular grid pruning method      GridPruning ... 3 (G Style)
Weight generation scheme         WeightScheme... Becke
Basis function cutoff            BFCut       ...    1.0000e-11
Integration weight cutoff        WCut        ...    1.0000e-14
Grids for H and He will be reduced by one unit

# of grid points (after initial pruning)     ...  38296 (   0.0 sec)
# of grid points (after weights+screening)   ...  34790 (   0.2 sec)
nearest neighbour list constructed           ...    0.0 sec
Grid point re-assignment to atoms done       ...    0.0 sec
Grid point division into batches done        ...    0.0 sec
Reduced shell lists constructed in    0.1 sec

Total number of grid points                  ...    34790
Total number of batches                      ...      584
Average number of points per batch           ...       59
Average number of grid points per atom       ...      483
Average number of shells per batch           ...    99.48 (24.87%)
Average number of basis functions per batch  ...   215.85 (24.42%)
Average number of large shells per batch     ...    65.89 (66.23%)
Average number of large basis fcns per batch ...   145.32 (67.33%)
Maximum spatial batch extension              ...  24.63, 16.04, 11.51 au
Average spatial batch extension              ...   0.79,  0.61,  0.55 au

Overlap Fitting                  UseSFitting ... on
Constructing numerical overlap ... done (      0.1 sec)
Inverting numerical overlap    ... done (      0.1 sec)
Obtaining analytic overlap     ... done (      0.0 sec)
Final contraction and storage  ... done (      0.1 sec)


General Integration Accuracy     IntAcc      ...  3.670
Radial Grid Type                 RadialGrid  ... Gauss-Chebyshev
Angular Grid (max. acc.)         AngularGrid ... Lebedev-50
Angular grid pruning method      GridPruning ... 3 (G Style)
Weight generation scheme         WeightScheme... Becke
Basis function cutoff            BFCut       ...    1.0000e-11
Integration weight cutoff        WCut        ...    1.0000e-14
Grids for H and He will be reduced by one unit

# of grid points (after initial pruning)     ...  47728 (   0.0 sec)
# of grid points (after weights+screening)   ...  43234 (   0.2 sec)
nearest neighbour list constructed           ...    0.0 sec
Grid point re-assignment to atoms done       ...    0.0 sec
Grid point division into batches done        ...    0.0 sec
Reduced shell lists constructed in    0.1 sec

Total number of grid points                  ...    43234
Total number of batches                      ...      714
Average number of points per batch           ...       60
Average number of grid points per atom       ...      600
Average number of shells per batch           ...    98.66 (24.66%)
Average number of basis functions per batch  ...   213.29 (24.13%)
Average number of large shells per batch     ...    65.29 (66.18%)
Average number of large basis fcns per batch ...   143.76 (67.40%)
Maximum spatial batch extension              ...  21.26, 17.73, 11.72 au
Average spatial batch extension              ...   0.76,  0.58,  0.51 au

Overlap Fitting                  UseSFitting ... on
Constructing numerical overlap ... done (      0.1 sec)
Inverting numerical overlap    ... done (      0.1 sec)
Obtaining analytic overlap     ... done (      0.0 sec)
Final contraction and storage  ... done (      0.1 sec)


General Integration Accuracy     IntAcc      ...  4.010
Radial Grid Type                 RadialGrid  ... Gauss-Chebyshev
Angular Grid (max. acc.)         AngularGrid ... Lebedev-110
Angular grid pruning method      GridPruning ... 3 (G Style)
Weight generation scheme         WeightScheme... Becke
Basis function cutoff            BFCut       ...    1.0000e-11
Integration weight cutoff        WCut        ...    1.0000e-14
Grids for H and He will be reduced by one unit

# of grid points (after initial pruning)     ...  91992 (   0.0 sec)
# of grid points (after weights+screening)   ...  82399 (   0.5 sec)
nearest neighbour list constructed           ...    0.0 sec
Grid point re-assignment to atoms done       ...    0.0 sec
Grid point division into batches done        ...    0.1 sec
Reduced shell lists constructed in    0.2 sec

Total number of grid points                  ...    82399
Total number of batches                      ...     1324
Average number of points per batch           ...       62
Average number of grid points per atom       ...     1144
Average number of shells per batch           ...    94.25 (23.56%)
Average number of basis functions per batch  ...   203.60 (23.03%)
Average number of large shells per batch     ...    62.97 (66.82%)
Average number of large basis fcns per batch ...   138.17 (67.86%)
Maximum spatial batch extension              ...  32.53, 19.59, 19.83 au
Average spatial batch extension              ...   0.55,  0.45,  0.42 au

Overlap Fitting                  UseSFitting ... on
Constructing numerical overlap ... done (      0.2 sec)
Inverting numerical overlap    ... done (      0.1 sec)
Obtaining analytic overlap     ... done (      0.0 sec)
Final contraction and storage  ... done (      0.1 sec)

Time for X-Grid setup             =    2.636 sec
--------------
SCF ITERATIONS
--------------
ITER       Energy         Delta-E        Max-DP      RMS-DP      [F,P]     Damp
               ***  Starting incremental Fock matrix formation  ***
  0  -7063.4527670173   0.000000000000 0.07887444  0.00099935  0.2253511 0.7000
  1  -7063.8760202458  -0.423253228455 0.04465164  0.00068353  0.1009024 0.7000
                               ***Turning on DIIS***
  2  -7064.0485404017  -0.172520155973 0.08767881  0.00118735  0.0310025 0.0000
  3  -7064.3094584550  -0.260918053240 0.04463769  0.00058470  0.0508512 0.0000
  4  -7064.3795502847  -0.070091829703 0.01675996  0.00016410  0.0141683 0.0000
  5  -7064.3825348668  -0.002984582154 0.00770776  0.00006276  0.0144532 0.0000
                      *** Initiating the SOSCF procedure ***
                           *** Shutting down DIIS ***
                      *** Re-Reading the Fockian *** 
                      *** Removing any level shift *** 
ITER      Energy       Delta-E        Grad      Rot      Max-DP    RMS-DP
  6  -7064.38340947  -0.0008746071  0.001592  0.001592  0.002491  0.000038
               *** Restarting incremental Fock matrix formation ***
  7  -7064.38360514  -0.0001956623  0.001071  0.005299  0.001324  0.000031
  8  -7064.38371237  -0.0001072380  0.000552  0.004628  0.001627  0.000034
  9  -7064.38371791  -0.0000055385  0.000972  0.001894  0.001161  0.000015
 10  -7064.38374253  -0.0000246162  0.000226  0.000663  0.000557  0.000006
 11  -7064.38374162   0.0000009108  0.000183  0.000409  0.000279  0.000004
 12  -7064.38374435  -0.0000027325  0.000022  0.000124  0.000102  0.000001
 13  -7064.38374432   0.0000000268  0.000024  0.000056  0.000049  0.000001
 14  -7064.38374436  -0.0000000315  0.000003  0.000017  0.000014  0.000000
 15  -7064.38374440  -0.0000000474  0.000003  0.000009  0.000008  0.000000
                  ***Gradient check signals convergence***
              ***Rediagonalizing the Fockian in SOSCF/NRSCF***

               *****************************************************
               *                     SUCCESS                       *
               *           SCF CONVERGED AFTER  16 CYCLES          *
               *****************************************************

Setting up the final grid:

General Integration Accuracy     IntAcc      ...  5.010
Radial Grid Type                 RadialGrid  ... Gauss-Chebyshev
Angular Grid (max. acc.)         AngularGrid ... Lebedev-434
Angular grid pruning method      GridPruning ... 3 (G Style)
Weight generation scheme         WeightScheme... Becke
Basis function cutoff            BFCut       ...    1.0000e-11
Integration weight cutoff        WCut        ...    1.0000e-14
Grids for H and He will be reduced by one unit

# of grid points (after initial pruning)     ... 704508 (   0.0 sec)
# of grid points (after weights+screening)   ... 613434 (   3.5 sec)
nearest neighbour list constructed           ...    0.0 sec
Grid point re-assignment to atoms done       ...    0.1 sec
Grid point division into batches done        ...    4.5 sec
Reduced shell lists constructed in    5.4 sec

Total number of grid points                  ...   613434
Total number of batches                      ...     9622
Average number of points per batch           ...       63
Average number of grid points per atom       ...     8520
Average number of shells per batch           ...    84.35 (21.09%)
Average number of basis functions per batch  ...   181.10 (20.49%)
Average number of large shells per batch     ...    55.63 (65.95%)
Average number of large basis fcns per batch ...   120.22 (66.39%)
Maximum spatial batch extension              ...  20.59, 15.96, 19.01 au
Average spatial batch extension              ...   0.26,  0.23,  0.23 au

Final grid set up in    9.2 sec
Final integration                            ... done (   1.9 sec)
Change in XC energy                          ...    -0.000090641
Integrated number of electrons               ...   474.000040736
Previous integrated no of electrons          ...   474.000421806
Old exchange energy                            =   -143.382809483 Eh
New exchange energy                            =   -143.377560353 Eh
Exchange energy change after final integration =      0.005249130 Eh
Total energy after final integration           =  -7064.378585855 Eh
Final COS-X integration done in                =    31.527 sec

----------------
TOTAL SCF ENERGY
----------------

Total Energy       :        -7064.37858585 Eh         -192231.51418 eV

Components:
Nuclear Repulsion  :         9439.68047363 Eh          256866.76454 eV
Electronic Energy  :       -16504.05905949 Eh         -449098.27872 eV
One Electron Energy:       -28541.81177667 Eh         -776662.18319 eV
Two Electron Energy:        12037.75271718 Eh          327563.90446 eV

Virial components:
Potential Energy   :       -14101.55684724 Eh         -383722.86991 eV
Kinetic Energy     :         7037.17826138 Eh          191491.35572 eV
Virial Ratio       :            2.00386523


DFT components:
N(Alpha)           :      237.000020367968 electrons
N(Beta)            :      237.000020367968 electrons
N(Total)           :      474.000040735937 electrons
E(XC)              :     -432.542375687088 Eh       
DFET-embed. en.    :        0.000000000000 Eh       

---------------
SCF CONVERGENCE
---------------

  Last Energy change         ...    5.8879e-08  Tolerance :   1.0000e-08
  Last MAX-Density change    ...    7.9936e-15  Tolerance :   1.0000e-07
  Last RMS-Density change    ...    4.9287e-17  Tolerance :   5.0000e-09
  Last Orbital Gradient      ...    4.4054e-07  Tolerance :   1.0000e-05
  Last Orbital Rotation      ...    3.9729e-06  Tolerance :   1.0000e-05

             **** THE GBW FILE WAS UPDATED (xtbopt.gbw) ****
             **** DENSITY FILE WAS UPDATED (xtbopt.scfp) ****
             **** ENERGY FILE WAS UPDATED (xtbopt.en.tmp) ****
             **** THE GBW FILE WAS UPDATED (xtbopt.gbw) ****
             **** DENSITY FILE WAS UPDATED (xtbopt.scfp) ****
----------------
ORBITAL ENERGIES
----------------

  NO   OCC          E(Eh)            E(eV) 
   0   2.0000     -88.972695     -2421.0701 
   1   2.0000     -88.972601     -2421.0676 
   2   2.0000     -88.954607     -2420.5779 
   3   2.0000     -88.954297     -2420.5695 
   4   2.0000     -88.952635     -2420.5243 
   5   2.0000     -88.952335     -2420.5161 
   6   2.0000     -88.931325     -2419.9444 
   7   2.0000     -88.931325     -2419.9444 
   8   2.0000     -88.930400     -2419.9192 
   9   2.0000     -88.930246     -2419.9150 
  10   2.0000     -88.930027     -2419.9091 
  11   2.0000     -88.929964     -2419.9073 
  12   2.0000     -88.924697     -2419.7640 
  13   2.0000     -88.924570     -2419.7606 
  14   2.0000     -14.416556      -392.2944 
  15   2.0000     -14.416467      -392.2920 
  16   2.0000     -10.349179      -281.6155 
  17   2.0000     -10.336429      -281.2685 
  18   2.0000     -10.317221      -280.7459 
  19   2.0000     -10.317188      -280.7450 
  20   2.0000     -10.314381      -280.6686 
  21   2.0000     -10.314168      -280.6628 
  22   2.0000     -10.312156      -280.6080 
  23   2.0000     -10.312064      -280.6055 
  24   2.0000     -10.308951      -280.5208 
  25   2.0000     -10.308891      -280.5192 
  26   2.0000     -10.307275      -280.4752 
  27   2.0000     -10.307259      -280.4748 
  28   2.0000     -10.307142      -280.4716 
  29   2.0000     -10.307140      -280.4715 
  30   2.0000     -10.305996      -280.4404 
  31   2.0000     -10.305919      -280.4383 
  32   2.0000     -10.305899      -280.4378 
  33   2.0000     -10.305782      -280.4346 
  34   2.0000     -10.305773      -280.4344 
  35   2.0000     -10.305693      -280.4322 
  36   2.0000     -10.305687      -280.4320 
  37   2.0000     -10.305412      -280.4245 
  38   2.0000     -10.303484      -280.3721 
  39   2.0000     -10.303399      -280.3697 
  40   2.0000     -10.302855      -280.3549 
  41   2.0000     -10.302600      -280.3480 
  42   2.0000     -10.302503      -280.3454 
  43   2.0000     -10.302419      -280.3431 
  44   2.0000     -10.298688      -280.2415 
  45   2.0000     -10.298618      -280.2397 
  46   2.0000     -10.286100      -279.8990 
  47   2.0000     -10.286076      -279.8984 
  48   2.0000     -10.284573      -279.8575 
  49   2.0000     -10.284506      -279.8556 
  50   2.0000     -10.280662      -279.7510 
  51   2.0000     -10.280502      -279.7467 
  52   2.0000      -8.067430      -219.5259 
  53   2.0000      -8.067351      -219.5238 
  54   2.0000      -8.049796      -219.0461 
  55   2.0000      -8.049617      -219.0412 
  56   2.0000      -8.047776      -218.9911 
  57   2.0000      -8.047628      -218.9871 
  58   2.0000      -8.026812      -218.4207 
  59   2.0000      -8.026785      -218.4199 
  60   2.0000      -8.025714      -218.3908 
  61   2.0000      -8.025557      -218.3865 
  62   2.0000      -8.025504      -218.3851 
  63   2.0000      -8.025270      -218.3787 
  64   2.0000      -8.020457      -218.2477 
  65   2.0000      -8.020403      -218.2463 
  66   2.0000      -6.036752      -164.2684 
  67   2.0000      -6.036712      -164.2673 
  68   2.0000      -6.032511      -164.1530 
  69   2.0000      -6.032449      -164.1513 
  70   2.0000      -6.029648      -164.0751 
  71   2.0000      -6.029596      -164.0737 
  72   2.0000      -6.019356      -163.7950 
  73   2.0000      -6.019185      -163.7903 
  74   2.0000      -6.017271      -163.7383 
  75   2.0000      -6.017117      -163.7341 
  76   2.0000      -6.015167      -163.6810 
  77   2.0000      -6.014976      -163.6758 
  78   2.0000      -6.012876      -163.6187 
  79   2.0000      -6.012724      -163.6145 
  80   2.0000      -6.011317      -163.5762 
  81   2.0000      -6.011099      -163.5703 
  82   2.0000      -6.009708      -163.5325 
  83   2.0000      -6.009508      -163.5270 
  84   2.0000      -5.997240      -163.1932 
  85   2.0000      -5.997237      -163.1931 
  86   2.0000      -5.996197      -163.1648 
  87   2.0000      -5.996010      -163.1597 
  88   2.0000      -5.995990      -163.1592 
  89   2.0000      -5.995785      -163.1536 
  90   2.0000      -5.993078      -163.0800 
  91   2.0000      -5.993062      -163.0795 
  92   2.0000      -5.992051      -163.0520 
  93   2.0000      -5.991875      -163.0472 
  94   2.0000      -5.991712      -163.0428 
  95   2.0000      -5.991453      -163.0357 
  96   2.0000      -5.991003      -163.0235 
  97   2.0000      -5.990952      -163.0221 
  98   2.0000      -5.987015      -162.9150 
  99   2.0000      -5.986960      -162.9135 
 100   2.0000      -5.986432      -162.8991 
 101   2.0000      -5.986385      -162.8978 
 102   2.0000      -5.985228      -162.8663 
 103   2.0000      -5.985201      -162.8656 
 104   2.0000      -5.985050      -162.8615 
 105   2.0000      -5.984940      -162.8585 
 106   2.0000      -5.979738      -162.7170 
 107   2.0000      -5.979660      -162.7148 
 108   2.0000      -1.028186       -27.9784 
 109   2.0000      -1.008874       -27.4528 
 110   2.0000      -1.006901       -27.3992 
 111   2.0000      -1.003334       -27.3021 
 112   2.0000      -0.993932       -27.0463 
 113   2.0000      -0.988737       -26.9049 
 114   2.0000      -0.983811       -26.7709 
 115   2.0000      -0.972079       -26.4516 
 116   2.0000      -0.944084       -25.6898 
 117   2.0000      -0.931681       -25.3523 
 118   2.0000      -0.931156       -25.3380 
 119   2.0000      -0.929598       -25.2956 
 120   2.0000      -0.929421       -25.2908 
 121   2.0000      -0.904741       -24.6193 
 122   2.0000      -0.892494       -24.2860 
 123   2.0000      -0.882150       -24.0045 
 124   2.0000      -0.874593       -23.7989 
 125   2.0000      -0.873363       -23.7654 
 126   2.0000      -0.852253       -23.1910 
 127   2.0000      -0.851253       -23.1638 
 128   2.0000      -0.845684       -23.0122 
 129   2.0000      -0.840199       -22.8630 
 130   2.0000      -0.837423       -22.7874 
 131   2.0000      -0.835947       -22.7473 
 132   2.0000      -0.831053       -22.6141 
 133   2.0000      -0.826628       -22.4937 
 134   2.0000      -0.803342       -21.8601 
 135   2.0000      -0.783399       -21.3174 
 136   2.0000      -0.761366       -20.7178 
 137   2.0000      -0.755563       -20.5599 
 138   2.0000      -0.744045       -20.2465 
 139   2.0000      -0.743202       -20.2236 
 140   2.0000      -0.733612       -19.9626 
 141   2.0000      -0.733400       -19.9568 
 142   2.0000      -0.724591       -19.7171 
 143   2.0000      -0.706548       -19.2261 
 144   2.0000      -0.706275       -19.2187 
 145   2.0000      -0.699365       -19.0307 
 146   2.0000      -0.685194       -18.6451 
 147   2.0000      -0.685143       -18.6437 
 148   2.0000      -0.669889       -18.2286 
 149   2.0000      -0.665175       -18.1003 
 150   2.0000      -0.646656       -17.5964 
 151   2.0000      -0.640172       -17.4200 
 152   2.0000      -0.625546       -17.0220 
 153   2.0000      -0.624167       -16.9845 
 154   2.0000      -0.613511       -16.6945 
 155   2.0000      -0.601098       -16.3567 
 156   2.0000      -0.595715       -16.2102 
 157   2.0000      -0.595171       -16.1954 
 158   2.0000      -0.589541       -16.0422 
 159   2.0000      -0.579395       -15.7661 
 160   2.0000      -0.567503       -15.4425 
 161   2.0000      -0.562543       -15.3076 
 162   2.0000      -0.557002       -15.1568 
 163   2.0000      -0.551754       -15.0140 
 164   2.0000      -0.548189       -14.9170 
 165   2.0000      -0.546564       -14.8728 
 166   2.0000      -0.540621       -14.7111 
 167   2.0000      -0.537716       -14.6320 
 168   2.0000      -0.535872       -14.5818 
 169   2.0000      -0.531749       -14.4696 
 170   2.0000      -0.530690       -14.4408 
 171   2.0000      -0.527483       -14.3536 
 172   2.0000      -0.524660       -14.2767 
 173   2.0000      -0.517553       -14.0833 
 174   2.0000      -0.516269       -14.0484 
 175   2.0000      -0.507709       -13.8155 
 176   2.0000      -0.504862       -13.7380 
 177   2.0000      -0.503948       -13.7131 
 178   2.0000      -0.503883       -13.7113 
 179   2.0000      -0.497956       -13.5501 
 180   2.0000      -0.490640       -13.3510 
 181   2.0000      -0.489294       -13.3144 
 182   2.0000      -0.484783       -13.1916 
 183   2.0000      -0.483035       -13.1441 
 184   2.0000      -0.481696       -13.1076 
 185   2.0000      -0.479412       -13.0455 
 186   2.0000      -0.477959       -13.0059 
 187   2.0000      -0.477686       -12.9985 
 188   2.0000      -0.471768       -12.8375 
 189   2.0000      -0.469166       -12.7666 
 190   2.0000      -0.462757       -12.5923 
 191   2.0000      -0.459787       -12.5114 
 192   2.0000      -0.455192       -12.3864 
 193   2.0000      -0.449583       -12.2338 
 194   2.0000      -0.448348       -12.2002 
 195   2.0000      -0.447161       -12.1679 
 196   2.0000      -0.442528       -12.0418 
 197   2.0000      -0.435867       -11.8606 
 198   2.0000      -0.435006       -11.8371 
 199   2.0000      -0.433192       -11.7878 
 200   2.0000      -0.431430       -11.7398 
 201   2.0000      -0.429395       -11.6844 
 202   2.0000      -0.426884       -11.6161 
 203   2.0000      -0.426098       -11.5947 
 204   2.0000      -0.424768       -11.5585 
 205   2.0000      -0.418601       -11.3907 
 206   2.0000      -0.417257       -11.3541 
 207   2.0000      -0.412249       -11.2179 
 208   2.0000      -0.406754       -11.0683 
 209   2.0000      -0.398201       -10.8356 
 210   2.0000      -0.396283       -10.7834 
 211   2.0000      -0.393117       -10.6972 
 212   2.0000      -0.392935       -10.6923 
 213   2.0000      -0.383622       -10.4389 
 214   2.0000      -0.383488       -10.4352 
 215   2.0000      -0.376665       -10.2496 
 216   2.0000      -0.376421       -10.2429 
 217   2.0000      -0.372795       -10.1443 
 218   2.0000      -0.371778       -10.1166 
 219   2.0000      -0.364417        -9.9163 
 220   2.0000      -0.363861        -9.9012 
 221   2.0000      -0.359768        -9.7898 
 222   2.0000      -0.351644        -9.5687 
 223   2.0000      -0.340735        -9.2719 
 224   2.0000      -0.337909        -9.1950 
 225   2.0000      -0.331648        -9.0246 
 226   2.0000      -0.330761        -9.0005 
 227   2.0000      -0.308560        -8.3963 
 228   2.0000      -0.308019        -8.3816 
 229   2.0000      -0.300018        -8.1639 
 230   2.0000      -0.284961        -7.7542 
 231   2.0000      -0.270737        -7.3671 
 232   2.0000      -0.267143        -7.2693 
 233   2.0000      -0.258321        -7.0293 
 234   2.0000      -0.256274        -6.9736 
 235   2.0000      -0.240640        -6.5481 
 236   2.0000      -0.216439        -5.8896 
 237   0.0000      -0.089638        -2.4392 
 238   0.0000      -0.037932        -1.0322 
 239   0.0000      -0.022896        -0.6230 
 240   0.0000       0.011903         0.3239 
 241   0.0000       0.022007         0.5988 
 242   0.0000       0.029195         0.7944 
 243   0.0000       0.030991         0.8433 
 244   0.0000       0.046542         1.2665 
 245   0.0000       0.053237         1.4487 
 246   0.0000       0.053505         1.4560 
 247   0.0000       0.064702         1.7606 
 248   0.0000       0.065215         1.7746 
 249   0.0000       0.078493         2.1359 
 250   0.0000       0.080410         2.1881 
 251   0.0000       0.082855         2.2546 
 252   0.0000       0.083420         2.2700 
 253   0.0000       0.084786         2.3071 
 254   0.0000       0.085668         2.3311 
 255   0.0000       0.094072         2.5598 
 256   0.0000       0.097141         2.6433 
 257   0.0000       0.100403         2.7321 
 258   0.0000       0.104139         2.8338 
 259   0.0000       0.104186         2.8350 
 260   0.0000       0.107513         2.9256 
 261   0.0000       0.108703         2.9580 
 262   0.0000       0.110717         3.0128 
 263   0.0000       0.111222         3.0265 
 264   0.0000       0.113708         3.0941 
 265   0.0000       0.115655         3.1471 
 266   0.0000       0.117636         3.2010 
 267   0.0000       0.118888         3.2351 
 268   0.0000       0.122482         3.3329 
 269   0.0000       0.128999         3.5103 
 270   0.0000       0.132642         3.6094 
 271   0.0000       0.135931         3.6989 
 272   0.0000       0.136971         3.7272 
 273   0.0000       0.139709         3.8017 
 274   0.0000       0.141605         3.8533 
 275   0.0000       0.142545         3.8789 
 276   0.0000       0.142787         3.8854 
 277   0.0000       0.144718         3.9380 
 278   0.0000       0.147149         4.0041 
 279   0.0000       0.149033         4.0554 
 280   0.0000       0.153189         4.1685 
 281   0.0000       0.155751         4.2382 
 282   0.0000       0.157346         4.2816 
 283   0.0000       0.159982         4.3533 
 284   0.0000       0.164466         4.4754 
 285   0.0000       0.164679         4.4811 
 286   0.0000       0.167520         4.5585 
 287   0.0000       0.169610         4.6153 
 288   0.0000       0.175058         4.7636 
 289   0.0000       0.175090         4.7644 
 290   0.0000       0.177451         4.8287 
 291   0.0000       0.177569         4.8319 
 292   0.0000       0.181777         4.9464 
 293   0.0000       0.187852         5.1117 
 294   0.0000       0.195362         5.3161 
 295   0.0000       0.209623         5.7041 
 296   0.0000       0.209829         5.7097 
 297   0.0000       0.212758         5.7894 
 298   0.0000       0.213086         5.7984 
 299   0.0000       0.222478         6.0539 
 300   0.0000       0.227482         6.1901 
 301   0.0000       0.239678         6.5220 
 302   0.0000       0.241689         6.5767 
 303   0.0000       0.242006         6.5853 
 304   0.0000       0.245068         6.6686 
 305   0.0000       0.246218         6.6999 
 306   0.0000       0.250473         6.8157 
 307   0.0000       0.261211         7.1079 
 308   0.0000       0.261462         7.1147 
 309   0.0000       0.272921         7.4266 
 310   0.0000       0.284311         7.7365 
 311   0.0000       0.288421         7.8483 
 312   0.0000       0.289323         7.8729 
 313   0.0000       0.301238         8.1971 
 314   0.0000       0.307333         8.3630 
 315   0.0000       0.308308         8.3895 
 316   0.0000       0.315710         8.5909 
 317   0.0000       0.321680         8.7534 
 318   0.0000       0.321959         8.7609 
 319   0.0000       0.338031         9.1983 
 320   0.0000       0.343782         9.3548 
 321   0.0000       0.346820         9.4374 
 322   0.0000       0.351652         9.5689 
 323   0.0000       0.353681         9.6241 
 324   0.0000       0.356372         9.6974 
 325   0.0000       0.358298         9.7498 
 326   0.0000       0.364659         9.9229 
 327   0.0000       0.369243        10.0476 
 328   0.0000       0.372834        10.1453 
 329   0.0000       0.375208        10.2099 
 330   0.0000       0.385053        10.4778 
 331   0.0000       0.387396        10.5416 
 332   0.0000       0.397799        10.8247 
 333   0.0000       0.397869        10.8266 
 334   0.0000       0.399254        10.8642 
 335   0.0000       0.401772        10.9328 
 336   0.0000       0.404622        11.0103 
 337   0.0000       0.407470        11.0878 
 338   0.0000       0.410081        11.1589 
 339   0.0000       0.410492        11.1701 
 340   0.0000       0.412970        11.2375 
 341   0.0000       0.419169        11.4062 
 342   0.0000       0.419939        11.4271 
 343   0.0000       0.423895        11.5348 
 344   0.0000       0.429787        11.6951 
 345   0.0000       0.431951        11.7540 
 346   0.0000       0.435450        11.8492 
 347   0.0000       0.438820        11.9409 
 348   0.0000       0.446351        12.1458 
 349   0.0000       0.448629        12.2078 
 350   0.0000       0.452389        12.3101 
 351   0.0000       0.455472        12.3940 
 352   0.0000       0.468215        12.7408 
 353   0.0000       0.469209        12.7678 
 354   0.0000       0.469811        12.7842 
 355   0.0000       0.470637        12.8067 
 356   0.0000       0.471002        12.8166 
 357   0.0000       0.474960        12.9243 
 358   0.0000       0.475101        12.9282 
 359   0.0000       0.475827        12.9479 
 360   0.0000       0.479249        13.0410 
 361   0.0000       0.479604        13.0507 
 362   0.0000       0.480994        13.0885 
 363   0.0000       0.488140        13.2830 
 364   0.0000       0.491657        13.3787 
 365   0.0000       0.493766        13.4360 
 366   0.0000       0.500466        13.6184 
 367   0.0000       0.501802        13.6547 
 368   0.0000       0.510227        13.8840 
 369   0.0000       0.517019        14.0688 
 370   0.0000       0.518520        14.1097 
 371   0.0000       0.519103        14.1255 
 372   0.0000       0.522242        14.2109 
 373   0.0000       0.523060        14.2332 
 374   0.0000       0.524342        14.2681 
 375   0.0000       0.527845        14.3634 
 376   0.0000       0.530077        14.4241 
 377   0.0000       0.530582        14.4379 
 378   0.0000       0.532784        14.4978 
 379   0.0000       0.534533        14.5454 
 380   0.0000       0.535602        14.5745 
 381   0.0000       0.543137        14.7795 
 382   0.0000       0.543693        14.7946 
 383   0.0000       0.549782        14.9603 
 384   0.0000       0.553430        15.0596 
 385   0.0000       0.554382        15.0855 
 386   0.0000       0.556453        15.1418 
 387   0.0000       0.560293        15.2463 
 388   0.0000       0.560564        15.2537 
 389   0.0000       0.571617        15.5545 
 390   0.0000       0.572972        15.5914 
 391   0.0000       0.578724        15.7479 
 392   0.0000       0.584948        15.9172 
 393   0.0000       0.585671        15.9369 
 394   0.0000       0.589441        16.0395 
 395   0.0000       0.591626        16.0990 
 396   0.0000       0.594865        16.1871 
 397   0.0000       0.598722        16.2921 
 398   0.0000       0.603234        16.4148 
 399   0.0000       0.603862        16.4319 
 400   0.0000       0.605897        16.4873 
 401   0.0000       0.615534        16.7495 
 402   0.0000       0.618815        16.8388 
 403   0.0000       0.623631        16.9699 
 404   0.0000       0.624646        16.9975 
 405   0.0000       0.625756        17.0277 
 406   0.0000       0.630551        17.1582 
 407   0.0000       0.634760        17.2727 
 408   0.0000       0.635993        17.3063 
 409   0.0000       0.636343        17.3158 
 410   0.0000       0.640991        17.4422 
 411   0.0000       0.641934        17.4679 
 412   0.0000       0.643932        17.5223 
 413   0.0000       0.648960        17.6591 
 414   0.0000       0.650986        17.7142 
 415   0.0000       0.651946        17.7403 
 416   0.0000       0.652676        17.7602 
 417   0.0000       0.654802        17.8181 
 418   0.0000       0.655377        17.8337 
 419   0.0000       0.660854        17.9827 
 420   0.0000       0.661010        17.9870 
 421   0.0000       0.667551        18.1650 
 422   0.0000       0.670897        18.2560 
 423   0.0000       0.675556        18.3828 
 424   0.0000       0.676743        18.4151 
 425   0.0000       0.678448        18.4615 
 426   0.0000       0.678612        18.4660 
 427   0.0000       0.679035        18.4775 
 428   0.0000       0.682351        18.5677 
 429   0.0000       0.683308        18.5938 
 430   0.0000       0.683602        18.6018 
 431   0.0000       0.685266        18.6470 
 432   0.0000       0.686742        18.6872 
 433   0.0000       0.689287        18.7565 
 434   0.0000       0.689796        18.7703 
 435   0.0000       0.693340        18.8667 
 436   0.0000       0.697296        18.9744 
 437   0.0000       0.697637        18.9837 
 438   0.0000       0.698284        19.0013 
 439   0.0000       0.699388        19.0313 
 440   0.0000       0.701838        19.0980 
 441   0.0000       0.703933        19.1550 
 442   0.0000       0.705536        19.1986 
 443   0.0000       0.705861        19.2075 
 444   0.0000       0.706661        19.2292 
 445   0.0000       0.708810        19.2877 
 446   0.0000       0.712177        19.3793 
 447   0.0000       0.715363        19.4660 
 448   0.0000       0.717667        19.5287 
 449   0.0000       0.719944        19.5907 
 450   0.0000       0.721348        19.6289 
 451   0.0000       0.723983        19.7006 
 452   0.0000       0.725344        19.7376 
 453   0.0000       0.726022        19.7561 
 454   0.0000       0.731455        19.9039 
 455   0.0000       0.731990        19.9185 
 456   0.0000       0.733192        19.9512 
 457   0.0000       0.733552        19.9610 
 458   0.0000       0.735051        20.0018 
 459   0.0000       0.738475        20.0949 
 460   0.0000       0.739592        20.1253 
 461   0.0000       0.741293        20.1716 
 462   0.0000       0.744433        20.2571 
 463   0.0000       0.745784        20.2938 
 464   0.0000       0.747967        20.3532 
 465   0.0000       0.750806        20.4305 
 466   0.0000       0.753753        20.5107 
 467   0.0000       0.754405        20.5284 
 468   0.0000       0.755903        20.5692 
 469   0.0000       0.756479        20.5849 
 470   0.0000       0.764877        20.8134 
 471   0.0000       0.766585        20.8598 
 472   0.0000       0.768288        20.9062 
 473   0.0000       0.770492        20.9661 
 474   0.0000       0.770778        20.9739 
 475   0.0000       0.771670        20.9982 
 476   0.0000       0.772909        21.0319 
 477   0.0000       0.773564        21.0498 
 478   0.0000       0.774578        21.0773 
 479   0.0000       0.775059        21.0904 
 480   0.0000       0.776245        21.1227 
 481   0.0000       0.776301        21.1242 
 482   0.0000       0.780959        21.2510 
 483   0.0000       0.781170        21.2567 
 484   0.0000       0.782531        21.2937 
 485   0.0000       0.783848        21.3296 
 486   0.0000       0.786834        21.4109 
 487   0.0000       0.793061        21.5803 
 488   0.0000       0.795009        21.6333 
 489   0.0000       0.796029        21.6610 
 490   0.0000       0.801076        21.7984 
 491   0.0000       0.801935        21.8218 
 492   0.0000       0.806520        21.9465 
 493   0.0000       0.806576        21.9480 
 494   0.0000       0.811769        22.0893 
 495   0.0000       0.814926        22.1753 
 496   0.0000       0.818228        22.2651 
 497   0.0000       0.825892        22.4737 
 498   0.0000       0.830730        22.6053 
 499   0.0000       0.834746        22.7146 
 500   0.0000       0.835937        22.7470 
 501   0.0000       0.836256        22.7557 
 502   0.0000       0.838524        22.8174 
 503   0.0000       0.843583        22.9551 
 504   0.0000       0.844304        22.9747 
 505   0.0000       0.846386        23.0313 
 506   0.0000       0.847289        23.0559 
 507   0.0000       0.851283        23.1646 
 508   0.0000       0.855268        23.2730 
 509   0.0000       0.857449        23.3324 
 510   0.0000       0.867666        23.6104 
 511   0.0000       0.869418        23.6581 
 512   0.0000       0.869629        23.6638 
[...]
Orbital Orthonormalization  ....       0.000 sec  (  0.0%)
DIIS solution               ....       2.118 sec  (  0.7%)
SOSCF solution              ....       5.595 sec  (  1.8%)
Grid generation             ....      16.095 sec  (  5.1%)


           ************************************************************
           *        Program running with 6 parallel MPI-processes     *
           *              working on a common directory               *
           ************************************************************

---------------------------------------------------------------------------------

                       ORCA sTD-DFT CALCULATION

                       please cite in your paper           
 orginal sTDA method:  S. Grimme, J. Chem. Phys. 138, 244104 (2013)           
 range-separated sTDA: T. Risthaus, A. Hansen, S. Grimme, Phys. Chem. Chem. Phys.
                       16, 14408-14419 (2014) 
 sTD-DFT approach:     C. Bannwarth, S. Grimme, Comp. Theor. Chem. 
                       1040-1041, 45-53 (2014)

---------------------------------------------------------------------------------


spectral range up to (eV)      ...    5.000000
occ. MO cut-off (eV)           ...   -15.479170
virt. MO cut-off (eV)          ...    7.150384
perturbation threshold         ...   1.000e-04 
MOs in sTD-DFT                 ...         149 
occ. MOs in sTD-DFT            ...          77 
virt. in sTD-DFT               ...          72 
calculate triplets           ...   no  

Calculating the dipole lengths integrals ... 
Transforming integrals ... 
Calculating the dipole velocity integrals ... 
Transforming integrals ... 
Calculating magnetic dipole integrals ... 
Transforming integrals ... 









SCF atom population (using active MOs):

   2.442   2.229   2.184   3.999   2.514   2.554   4.105   2.188   3.786   2.177
   2.197   2.159   4.013   2.537   2.540   4.036   2.216   3.809   2.177   2.118
   2.113   2.144   3.574   2.144   2.113   1.728   1.355   2.128   3.864   2.128
   3.864   2.117   2.178   3.574   2.216   2.159   2.197   4.036   2.540   2.538
   4.012   2.178   3.809   2.187   2.185   2.228   4.105   2.556   2.513   4.000
   2.441   3.785   0.520   0.619   0.548   0.557   0.625   0.619   0.557   0.549
   0.622   0.440   0.440   0.622   0.549   0.557   0.619   0.626   0.558   0.548
   0.618   0.519

Number of electrons in sTDA:  154.000

ax(DF)   :  0.3800
s^k      :  2.0000
beta  (J):  1.8600
alpha (K):  0.9000

hardness table read
setting up gammas ...
computing q(ij,n)
memory needed for q data:             4.6 MB 
memory available for q data:       2489.1 MB 

































CSF included by energy:           26 
CSF considered in PT2:          5518 

ordered frontier orbitals
           eV         # centers 
  66      -9.000       6.8
  67      -8.396      14.3
  68      -8.382      13.0
  69      -8.164      22.5
  70      -7.754      19.2
  71      -7.367      15.4
  72      -7.269      12.8
  73      -7.029      19.0
  74      -6.974      19.2
  75      -6.548      22.6
  76      -5.890      26.3

  77      -2.439      11.4
  78      -1.032      26.7
  79      -0.623      26.3
  80       0.324      31.0
  81       0.599      21.9
  82       0.794      34.6
  83       0.843      20.9
  84       1.266       5.9
  85       1.449      10.4
  86       1.456      10.8
  87       1.761      28.5

           eV        nm       excitation i->a                     eV 
   0      1.46     848.2    76 ->  77      gap,J,K:    3.450     2.272     0.141
   1      2.45     505.1    75 ->  77      gap,J,K:    4.109     1.812     0.079
   2      2.90     428.1    74 ->  77      gap,J,K:    4.534     1.684     0.023
   3      3.04     408.5    73 ->  77      gap,J,K:    4.590     1.597     0.021
   4      3.13     396.6    76 ->  78      gap,J,K:    4.857     2.133     0.201
   5      3.26     380.8    71 ->  77      gap,J,K:    4.928     1.721     0.024
   6      3.36     369.1    70 ->  77      gap,J,K:    5.315     2.124     0.084
   7      3.37     368.1    72 ->  77      gap,J,K:    4.830     1.517     0.027
   8      3.76     329.8    76 ->  79      gap,J,K:    5.267     2.051     0.272
   9      4.01     309.1    75 ->  78      gap,J,K:    5.516     1.960     0.228
  10      4.19     295.8    69 ->  77      gap,J,K:    5.725     1.888     0.177
  11      4.21     294.6    67 ->  77      gap,J,K:    5.957     1.829     0.040
  12      4.33     286.1    68 ->  77      gap,J,K:    5.942     2.740     0.565
  13      4.36     284.4    74 ->  78      gap,J,K:    5.941     1.847     0.133
  14      4.38     283.1    66 ->  77      gap,J,K:    6.561     2.778     0.298
  15      4.47     277.3    76 ->  81      gap,J,K:    6.488     2.140     0.061
  16      4.48     276.8    73 ->  78      gap,J,K:    5.997     1.779     0.131
  17      4.49     276.1    75 ->  79      gap,J,K:    5.925     2.002     0.284
  18      4.57     271.4    76 ->  80      gap,J,K:    6.214     2.028     0.191
  19      4.73     262.4    71 ->  78      gap,J,K:    6.335     1.837     0.114
  20      4.73     262.4    72 ->  78      gap,J,K:    6.237     1.700     0.094
  21      4.78     259.4    76 ->  83      gap,J,K:    6.733     2.004     0.025
  22      4.79     258.6    65 ->  77      gap,J,K:    6.585     1.924     0.067
  23      4.80     258.3    74 ->  79      gap,J,K:    6.351     1.891     0.171
  24      4.88     254.0    73 ->  79      gap,J,K:    6.406     1.839     0.157

average / max PT2 energy lowering (eV):       0.059       0.125

CSF included by PT:                   213 
total number of CSF included:         239 
 
sTD-DFT procedure...
setting up A+B and A-B matrices...  done
estimated time (min):    0.001
calculating (A-B)^0.5 ... done
calculating (A+B)*(A-B)^0.5 ... done
calculating (A-B)^0.5 *(A+B)*(A-B)^0.5 ... done
diagonalizing ...using LAPACKE_ssyevr ...done

   28 roots found, lowest/highest eigenvalue :     1.227     4.944

excitation energies, transition moments and amplitudes

molecular weight:  929.410
state   eV        nm        fL         fV        Rl        RV
   0   1.227    1010.4   0.122835   0.200751  -12.333518  -15.263868     0.93 (  76->  77)    0.02 (  70->  77)    0.02 (  72->  77)
   1   2.297     539.8   0.012117   0.016126  -14.780061  -17.145922     0.90 (  75->  77)    0.04 (  71->  77)    0.03 (  73->  77)
   2   2.756     449.8   0.255074   0.269814  182.867658  191.463032     0.69 (  74->  77)    0.14 (  76->  78)    0.11 (  72->  77)
   3   2.795     443.6   0.024630   0.024488  -41.663049  -41.344176     0.64 (  73->  77)    0.28 (  71->  77)    0.07 (  75->  77)
   4   2.886     429.7   1.374096   1.416058  117.865994  129.184699     0.67 (  76->  78)    0.15 (  74->  77)    0.10 (  70->  77)
   5   3.205     386.9   0.052321   0.048558   1.680819   3.001290     0.69 (  70->  77)    0.11 (  76->  78)    0.07 (  67->  77)
   6   3.399     364.8   0.782009   0.758828  -658.216342  -650.273642     0.77 (  76->  79)    0.16 (  75->  78)    0.01 (  68->  77)
   7   3.422     362.3   0.007627   0.005856   1.167566   1.098100     0.42 (  72->  77)    0.29 (  71->  77)    0.15 (  73->  77)
   8   3.426     361.9   0.007501   0.005807   1.091099   1.214723     0.36 (  72->  77)    0.35 (  71->  77)    0.16 (  73->  77)
   9   3.754     330.3   0.226999   0.201732  -290.008117  -273.862847     0.59 (  75->  78)    0.14 (  74->  79)    0.09 (  76->  79)
  10   3.862     321.0   0.138810   0.113600  515.243052  467.605389     0.59 (  74->  78)    0.18 (  73->  79)    0.09 (  75->  79)
  11   3.878     319.7   0.292128   0.276170  198.665718  192.012342     0.56 (  68->  77)    0.19 (  69->  77)    0.07 (  73->  78)
  12   4.001     309.8   0.048096   0.043407  233.332123  221.645258     0.35 (  66->  77)    0.25 (  76->  80)    0.17 (  75->  79)
  13   4.026     308.0   0.112689   0.104714  -83.322737  -80.309026     0.33 (  68->  77)    0.27 (  69->  77)    0.17 (  73->  78)
  14   4.045     306.5   0.044249   0.037872  -31.882439  -29.255332     0.52 (  76->  81)    0.11 (  73->  78)    0.08 (  75->  83)
  15   4.093     303.0   0.113806   0.095403  -62.823407  -57.332254     0.42 (  69->  77)    0.16 (  76->  81)    0.15 (  73->  78)
  16   4.124     300.6   0.386106   0.345273  52.453403  50.933761     0.43 (  66->  77)    0.19 (  76->  80)    0.16 (  76->  83)
  17   4.200     295.2   0.007734   0.004633   4.837607   4.478606     0.79 (  67->  77)    0.09 (  70->  77)    0.03 (  72->  78)
  18   4.256     291.3   0.034039   0.026515  -6.174602  -5.288081     0.45 (  72->  78)    0.15 (  71->  79)    0.11 (  73->  79)
  19   4.289     289.1   0.002645   0.002193   4.209791   3.911031     0.54 (  71->  78)    0.22 (  72->  79)    0.06 (  76->  82)
  20   4.407     281.3   0.035122   0.033560  218.953903  216.165181     0.41 (  75->  79)    0.27 (  76->  83)    0.09 (  66->  77)
  21   4.522     274.2   0.128119   0.111235  -211.156994  -195.086196     0.37 (  65->  77)    0.26 (  76->  82)    0.06 (  75->  80)
  22   4.527     273.9   0.032834   0.031535  110.113209  99.956645     0.29 (  76->  80)    0.13 (  75->  79)    0.13 (  76->  83)
  23   4.686     264.6   0.194922   0.157213  -217.975953  -195.634892     0.32 (  65->  77)    0.24 (  76->  82)    0.14 (  75->  80)
  24   4.809     257.8   0.008887   0.007494   3.976854   3.267382     0.34 (  74->  79)    0.19 (  73->  78)    0.10 (  73->  80)
  25   4.818     257.3   0.001050   0.002268   1.993625   0.454538     0.21 (  73->  79)    0.21 (  70->  78)    0.17 (  74->  78)
  26   4.933     251.3   0.145926   0.124998  26.422396  23.799069     0.41 (  70->  78)    0.10 (  73->  79)    0.09 (  74->  80)
  27   4.944     250.8   0.005644   0.004894  -4.754975  -4.329861     0.21 (  69->  78)    0.12 (  75->  83)    0.11 (  70->  79)

-----------------------------------------------------------------------------
         ABSORPTION SPECTRUM VIA TRANSITION ELECTRIC DIPOLE MOMENTS
-----------------------------------------------------------------------------
State   Energy  Wavelength   fosc         T2         TX        TY        TZ  
        (cm-1)    (nm)                  (au**2)     (au)      (au)      (au) 
-----------------------------------------------------------------------------
   0    9897.5   1010.4   0.122835462   4.08578   0.51838   1.69738  -0.96745
   1   18526.0    539.8   0.012116930   0.21532  -0.23980  -0.14843  -0.36849
   2   22231.0    449.8   0.255073620   3.77730   0.27474   1.74124  -0.81849
   3   22541.4    443.6   0.024630423   0.35972   0.28571   0.10621   0.51654
   4   23274.2    429.7   1.374096484  19.43646  -1.02705  -3.75000   2.07826
   5   25849.6    386.9   0.052320713   0.66634   0.13036   0.71471  -0.37220
   6   27411.8    364.8   0.782008912   9.39181  -1.56886  -0.94404  -2.45749
   7   27599.9    362.3   0.007626576   0.09097  -0.06431  -0.24425   0.16486
   8   27634.1    361.9   0.007501425   0.08937   0.11294   0.26355  -0.08458
   9   30277.6    330.3   0.226999110   2.46819   0.80182   0.47817   1.26358
  10   31149.0    321.0   0.138810008   1.46708  -0.77120  -0.55516   0.75108
  11   31281.3    319.7   0.292127799   3.07442   0.91622   0.53217   1.39705
  12   32274.3    309.8   0.048096207   0.49060  -0.12214   0.68223  -0.10121
  13   32469.7    308.0   0.112689065   1.14256   0.55142   0.31591   0.85947
  14   32626.0    306.5   0.044249265   0.44650   0.32803   0.15583   0.56090
  15   33008.3    303.0   0.113805542   1.13505  -0.55623  -0.37297  -0.82858
  16   33264.8    300.6   0.386105799   3.82118   0.74338   1.46072  -1.06531
  17   33877.6    295.2   0.007734391   0.07516  -0.03490  -0.26137   0.07502
  18   34325.1    291.3   0.034039310   0.32647   0.06229   0.49504  -0.27844
  19   34595.2    289.1   0.002645128   0.02517   0.08858   0.10634   0.07758
  20   35548.3    281.3   0.035121719   0.32526  -0.45827  -0.09465   0.32602
  21   36475.1    274.2   0.128119212   1.15636   0.46712   0.32788   0.91140
  22   36510.1    273.9   0.032834447   0.29607   0.51898   0.11642  -0.11477
  23   37797.2    264.6   0.194921917   1.69776   0.66609   0.40486   1.04411
  24   38788.4    257.8   0.008886513   0.07542   0.14674   0.07089   0.22106
  25   38860.6    257.3   0.001049639   0.00889   0.02638   0.08003   0.04233
  26   39788.6    251.3   0.145926116   1.20740  -0.32015  -0.88748   0.56327
  27   39878.3    250.8   0.005643911   0.04659  -0.12864  -0.16259  -0.06007

-----------------------------------------------------------------------------
         ABSORPTION SPECTRUM VIA TRANSITION VELOCITY DIPOLE MOMENTS
-----------------------------------------------------------------------------
State   Energy  Wavelength   fosc         P2         PX        PY        PZ  
        (cm-1)    (nm)                  (au**2)     (au)      (au)      (au) 
-----------------------------------------------------------------------------
   0    9897.5   1010.4   0.200751326   0.01358   0.02927   0.09820  -0.05550
   1   18526.0    539.8   0.016126430   0.00204  -0.02332  -0.01447  -0.03590
   2   22231.0    449.8   0.269814219   0.04100   0.02815   0.18153  -0.08514
   3   22541.4    443.6   0.024487578   0.00377   0.02921   0.01061   0.05298
   4   23274.2    429.7   1.416057906   0.22525  -0.10977  -0.40411   0.22338
   5   25849.6    386.9   0.048557768   0.00858   0.01330   0.08159  -0.04177
   6   27411.8    364.8   0.758827723   0.14216  -0.19291  -0.11624  -0.30239
   7   27599.9    362.3   0.005856166   0.00110  -0.00783  -0.02684   0.01798
   8   27634.1    361.9   0.005807237   0.00110   0.01299   0.02894  -0.00951
   9   30277.6    330.3   0.201732197   0.04174   0.10419   0.06215   0.16440
  10   31149.0    321.0   0.113600186   0.02418  -0.09880  -0.07104   0.09684
  11   31281.3    319.7   0.276170004   0.05904   0.12683   0.07377   0.19369
  12   32274.3    309.8   0.043406509   0.00957  -0.01713   0.09529  -0.01419
  13   32469.7    308.0   0.104714423   0.02324   0.07867   0.04514   0.12252
  14   32626.0    306.5   0.037871946   0.00844   0.04511   0.02121   0.07720
  15   33008.3    303.0   0.095403029   0.02152  -0.07666  -0.05144  -0.11401
  16   33264.8    300.6   0.345273137   0.07850   0.10493   0.21067  -0.15200
  17   33877.6    295.2   0.004632687   0.00107  -0.00338  -0.03162   0.00782
  18   34325.1    291.3   0.026515466   0.00622   0.00891   0.06815  -0.03868
  19   34595.2    289.1   0.002193457   0.00052   0.01273   0.01493   0.01156
  20   35548.3    281.3   0.033560337   0.00815  -0.07296  -0.01367   0.05142
  21   36475.1    274.2   0.111234943   0.02773   0.07213   0.04926   0.14178
  22   36510.1    273.9   0.031535121   0.00787   0.08153   0.02715  -0.02202
  23   37797.2    264.6   0.157213173   0.04061   0.10305   0.06263   0.16146
  24   38788.4    257.8   0.007493911   0.00199   0.02264   0.00919   0.03728
  25   38860.6    257.3   0.002267574   0.00060   0.00882   0.02290   0.00005
  26   39788.6    251.3   0.124997611   0.03399  -0.05461  -0.14831   0.09493
  27   39878.3    250.8   0.004893892   0.00133  -0.02188  -0.02746  -0.01006

-------------------------------------------------------------------
                             CD SPECTRUM
-------------------------------------------------------------------
State   Energy Wavelength       R         MX        MY        MZ   
        (cm-1)   (nm)       (1e40*cgs)   (au)      (au)      (au)  
-------------------------------------------------------------------
   0    9897.5   1010.4    -12.33352   0.04035  -0.07572  -0.16531
   1   18526.0    539.8    -14.78006   0.59825  -0.45337  -0.37686
   2   22231.0    449.8    182.86766   2.18626  -1.58799  -1.69659
   3   22541.4    443.6    -41.66305  -0.84258   0.70962   0.66233
   4   23274.2    429.7    117.86599  -3.27920   2.23359   2.16914
   5   25849.6    386.9      1.68082   0.23954  -0.27536  -0.42570
   6   27411.8    364.8    -658.21634   5.14220  -3.73939  -2.98254
   7   27599.9    362.3      1.16757   0.06020  -0.01869  -0.03425
   8   27634.1    361.9      1.09110  -0.21659   0.09428   0.05928
   9   30277.6    330.3    -290.00812  -2.66637   2.12814   1.86030
  10   31149.0    321.0    515.24305   1.76548  -1.56566  -2.25470
  11   31281.3    319.7    198.66572  -3.90645   2.13684   1.14472
  12   32274.3    309.8    233.33212   1.71918  -1.41365  -1.82341
  13   32469.7    308.0    -83.32274  -2.17139   1.55063   1.23443
  14   32626.0    306.5    -31.88244  -1.32835   0.94911   0.75430
  15   33008.3    303.0    -62.82341   2.03635  -1.40265  -1.05728
  16   33264.8    300.6     52.45340   0.54901  -0.16755   0.36224
  17   33877.6    295.2      4.83761  -0.13928   0.17286   0.26390
  18   34325.1    291.3     -6.17460  -0.39706   0.04720  -0.09899
  19   34595.2    289.1      4.20979  -0.40777   0.15843   0.01821
  20   35548.3    281.3    218.95390   0.98050  -1.09112  -1.78763
  21   36475.1    274.2    -211.15699  -1.97623   1.64369   1.40442
  22   36510.1    273.9    110.11321  -0.77367   1.06354   1.65052
  23   37797.2    264.6    -217.97595  -2.64099   2.06746   1.76881
  24   38788.4    257.8      3.97685  -0.76242   0.43982   0.28873
  25   38860.6    257.3      1.99363   0.12227  -0.06169  -0.15938
  26   39788.6    251.3     26.42240  -0.32257   0.30036   0.09091
  27   39878.3    250.8     -4.75498   0.30850  -0.26706  -0.27362

sTD-DFT done

Total run time:        1.696 sec

           *** ORCA-CIS/TD-DFT FINISHED WITHOUT ERROR ***

-------------------------   --------------------
FINAL SINGLE POINT ENERGY     -7064.378585854896
-------------------------   --------------------


                            ***************************************
                            *     ORCA property calculations      *
                            ***************************************

                                    ---------------------
                                    Active property flags
                                    ---------------------
   (+) Dipole Moment


------------------------------------------------------------------------------
                       ORCA ELECTRIC PROPERTIES CALCULATION
------------------------------------------------------------------------------

Dipole Moment Calculation                       ... on
Quadrupole Moment Calculation                   ... off
Polarizability Calculation                      ... off
GBWName                                         ... xtbopt.gbw
Electron density file                           ... xtbopt.scfp
The origin for moment calculation is the CENTER OF MASS  = ( 6.813081, 15.775971 -7.290788)

-------------
DIPOLE MOMENT
-------------
                                X             Y             Z
Electronic contribution:      4.91906       2.92730       7.80792
Nuclear contribution   :     -6.02351      -3.58374      -9.55314
                        -----------------------------------------
Total Dipole Moment    :     -1.10444      -0.65643      -1.74522
                        -----------------------------------------
Magnitude (a.u.)       :      2.16714
Magnitude (Debye)      :      5.50844



--------------------
Rotational spectrum 
--------------------
 
Rotational constants in cm-1:     0.001797     0.000428     0.000353 
Rotational constants in MHz :    53.876384    12.819132    10.590947 

 Dipole components along the rotational axes: 
x,y,z [a.u.] :    -0.004419    -2.167138    -0.002213 
x,y,z [Debye]:    -0.011232    -5.508428    -0.005625 

 

Timings for individual modules:

Sum of individual times         ...      319.701 sec (=   5.328 min)
GTO integral calculation        ...        1.984 sec (=   0.033 min)   0.6 %
SCF iterations                  ...      315.121 sec (=   5.252 min)  98.6 %
CIS module                      ...        2.596 sec (=   0.043 min)   0.8 %
                             ****ORCA TERMINATED NORMALLY****
TOTAL RUN TIME: 0 days 0 hours 5 minutes 20 seconds 560 msec
