      -----------------------------------------------------------      
     |                   =====================                   |     
     |                           x T B                           |     
     |                   =====================                   |     
     |                         S. Grimme                         |     
     |          Mulliken Center for Theoretical Chemistry        |     
     |                    University of Bonn                     |     
     |                Version 6.2 RC2 (SAW190805)                |     
      -----------------------------------------------------------      

   This program is distributed in the hope that it will be useful,
   but WITHOUT ANY WARRANTY; without even the implied warranty of
   MERCHANTABILITY or FITNESS FOR A PARTICULAR PURPOSE.
   
   FOR NON-COMMERCIAL, ACADEMIA USE ONLY.
   
   Cite this work as:
   * S. Grimme, C. Bannwarth, P. Shushkov, J. Chem. Theory Comput., 2017,
     13, 1989-2009. DOI: 10.1021/acs.jctc.7b00118
   * C. Bannwarth, S. Ehlert and S. Grimme., J. Chem. Theory Comput., 2019,
     15, 1652-1671. DOI: 10.1021/acs.jctc.8b01176
   * P. Pracht, E. Caldeweyher, S. Ehlert, S. Grimme, ChemRxiv, 2019, preprint.
     DOI: 10.26434/chemrxiv.8326202.v1
   
   for DFT-D4:
   * E. Caldeweyher, C. Bannwarth and S. Grimme, J. Chem. Phys., 2017,
     147, 034112. DOI: 10.1063/1.4993215
   * E. Caldeweyher, S. Ehlert, A. Hansen, H. Neugebauer, S. Spicher,
     C. Bannwarth and S. Grimme, J. Chem. Phys., 2019, 150, 154122.
     DOI: 10.1063/1.5090222
   
   for sTDA-xTB:
   * S. Grimme and C. Bannwarth, J. Chem. Phys., 2016, 145, 054103.
     DOI: 10.1063/1.4959605
   
   in the mass-spec context:
   * V. Asgeirsson, C. Bauer and S. Grimme, Chem. Sci., 2017, 8, 4879.
     DOI: 10.1039/c7sc00601b
   
   for metadynamics refer to:
   * S. Grimme, J. Chem. Theory Comput., 2019, 155, 2847-2862
     DOI: 10.1021/acs.jctc.9b00143
   
   with help from (in alphabetical order)
   C. Bannwarth, F. Bohle, G. Brandenburg, E. Caldeweyher, M. Checinski,
   S. Dohm, S. Ehlert, S. Ehrlich, F. März, H. Neugebauer, J. Pisarek,
   P. Pracht, P. Shushkov, and S. Spicher.
   
 * started run on 2021/02/19 at 08:09:21.021     

           -------------------------------------------------
          |                Calculation Setup                |
           -------------------------------------------------

          program call               : /ihome/ghutchison/geoffh/xtb/xtb 15utl.xyz -opt
          hostname                   : smp-n61
          coordinate file            : 15utl.xyz
          omp threads                :                     1
          number of atoms            :                    14
          number of electrons        :                    36
          charge                     :                     0
          spin                       :                   0.0
          first test random number   :      0.18656807153406


########################################################################
# WARNING! Please study the warnings concerning your input carefully
#  - the use of '-opt' is discouraged, please use '--opt' next time
########################################################################

           ------------------------------------------------- 
          |                 G F N 2 - x T B                 |
          | Geometry, Frequencies, Noncovalent interactions |
          |            JCTC 2019 parametrisation            |
           ------------------------------------------------- 
             KAB for C  - Si     :                1.0500
             KAB for H  - Pd     :                0.9500
             k(s)              :                1.8500
             k(p)              :                2.2300
             k(d)              :                2.2300
             k(f)              :                2.0000
             kEN (H0ij)        :               -2.0000
             D4 a1             :                0.5200
             D4 a2             :                5.0000
             D4 s6             :                1.0000
             D4 s8             :                2.7000
             D4 s9             :                5.0000
             alphaj            :                2.0000

  Z AO/shell   Hii/eV     exponent
  1     Wed Apr 25 08:07:45 CEST 2018   EN: 2.200 GM2: 0.406  GM3: 0.0800  RAES: 1.40
     1s    -10.707211    1.230000
  6     Wed Apr 25 08:07:45 CEST 2018   EN: 2.550 GM2: 0.538  GM3: 0.1500  RAES: 3.00
     2s    -13.970922    2.096432
     2p    -10.063292    1.800000
  7     Wed Apr 25 08:07:45 CEST 2018   EN: 3.040 GM2: 0.461  GM3:-0.0640  RAES: 1.90
     2s    -16.686243    2.339881
     2p    -12.523956    2.014332

           ------------------------------------------------- 
          |        Self-Consistent Charge Iterations        |
           ------------------------------------------------- 

          ...................................................
          :                      SETUP                      :
          :.................................................:
          :  # basis functions                  35          :
          :  # atomic orbitals                  35          :
          :  # shells                           21          :
          :  # electrons                        36          :
          :  max. iterations                   250          :
          :  Hamiltonian                  GFN2-xTB          :
          :  restarted?                      false          :
          :  GBSA solvation                  false          :
          :  PC potential                    false          :
          :  electronic temp.          300.0000000     K    :
          :  accuracy                    1.0000000          :
          :  -> integral cutoff          0.2500000E+02      :
          :  -> integral neglect         0.1000000E-07      :
          :  -> SCF convergence          0.1000000E-05 Eh   :
          :  -> wf. convergence          0.1000000E-03 e    :
          :  Broyden damping             0.4000000          :
          ...................................................

 iter      E             dE          RMSdq      gap      omega  full diag
   1    -19.6196772 -0.196197E+02  0.440E+00    3.25       0.0  T
   2    -19.6442477 -0.245705E-01  0.272E+00    3.93       1.0  T
   3    -19.6418483  0.239946E-02  0.121E+00    3.91       1.0  T
   4    -19.6464211 -0.457279E-02  0.385E-01    3.90       1.0  T
   5    -19.6474503 -0.102924E-02  0.782E-02    3.93       1.0  T
   6    -19.6474625 -0.122401E-04  0.325E-02    3.91       1.0  T
   7    -19.6474619  0.671577E-06  0.182E-02    3.92       1.5  T
   8    -19.6474645 -0.266892E-05  0.289E-03    3.91       9.2  T
   9    -19.6474646 -0.419690E-07  0.164E-03    3.91      16.3  T
  10    -19.6474646 -0.613496E-08  0.590E-04    3.91      45.3  T
  11    -19.6474646 -0.192207E-08  0.179E-04    3.91     149.0  T

   *** convergence criteria satisfied after 11 iterations ***

         #    Occupation            Energy/Eh            Energy/eV
      -------------------------------------------------------------
         1        2.0000           -0.6420068             -17.4699
       ...           ...                  ...                  ...
        12        2.0000           -0.4707374             -12.8094
        13        2.0000           -0.4663719             -12.6906
        14        2.0000           -0.4319827             -11.7548
        15        2.0000           -0.4222672             -11.4905
        16        2.0000           -0.4149576             -11.2916
        17        2.0000           -0.3913088             -10.6481
        18        2.0000           -0.3595187              -9.7830 (HOMO)
        19                         -0.2156850              -5.8691 (LUMO)
        20                         -0.2035411              -5.5386
        21                         -0.0847771              -2.3069
        22                          0.0385633               1.0494
        23                          0.1190274               3.2389
       ...                                ...                  ...
        35                          0.6476311              17.6229
      -------------------------------------------------------------
                  HL-Gap            0.1438337 Eh            3.9139 eV
             Fermi-level           -0.2876019 Eh           -7.8260 eV

 SCC (total)                   0 d,  0 h,  0 min,  0.013 sec
 SCC setup                      ...        0 min,  0.000 sec (  1.197%)
 Dispersion                     ...        0 min,  0.000 sec (  0.825%)
 integral evaluation            ...        0 min,  0.003 sec ( 19.584%)
 zeroth order Hamiltonian       ...        0 min,  0.000 sec (  0.473%)
 iterations                     ...        0 min,  0.006 sec ( 43.322%)
 molecular gradient             ...        0 min,  0.004 sec ( 32.085%)
 printout                       ...        0 min,  0.000 sec (  2.084%)

         :::::::::::::::::::::::::::::::::::::::::::::::::::::
         ::                     SUMMARY                     ::
         :::::::::::::::::::::::::::::::::::::::::::::::::::::
         :: total energy             -19.314744895289 Eh    ::
         :: gradient norm              0.031427495222 Eh/a0 ::
         :: HOMO-LUMO gap              3.913914272585 eV    ::
         ::.................................................::
         :: SCC energy               -19.647464582079 Eh    ::
         :: -> isotropic ES            0.009605587470 Eh    ::
         :: -> anisotropic ES          0.005466972670 Eh    ::
         :: -> anisotropic XC          0.013780597776 Eh    ::
         :: -> dispersion             -0.009976552072 Eh    ::
         :: repulsion energy           0.332705586590 Eh    ::
         :: add. restraining           0.000000000000 Eh    ::
         :::::::::::::::::::::::::::::::::::::::::::::::::::::

      ----------------------------------------------------------- 
     |                   =====================                   |
     |                        A N C O P T                        |
     |                   =====================                   |
     |               Approximate Normal Coordinate               |
     |                Rational Function Optimizer                |
      ----------------------------------------------------------- 

          ...................................................
          :                      SETUP                      :
          :.................................................:
          :   optimization level            normal          :
          :   max. optcycles                   200          :
          :   ANC micro-cycles                  20          :
          :   degrees of freedom                36          :
          :.................................................:
          :   RF solver                   davidson          :
          :   input Hessian                  false          :
          :   write xtbopt.log                true          :
          :   linear?                        false          :
          :   energy convergence         0.5000000E-05 Eh   :
          :   grad. convergence          0.1000000E-02 Eh/α :
          :   maximium RF displ.         2.0000000          :
          :   Hlow (freq-cutoff)         0.5000000E-02      :
          :   Hmax (freq-cutoff)         5.0000000          :
          :   S6 in model hess.         20.0000000          :
          ...................................................

generating ANC from model Hessian ...
Using Lindh-Hessian (1995)
 Shifting diagonal of input Hessian by   0.000000000000000E+000
 Lowest  eigenvalues of input Hessian
   -0.000000   -0.000000   -0.000000    0.000000    0.000000    0.000000
    0.007305    0.012717    0.016755    0.020166    0.024698    0.027469
    0.054277    0.066861    0.069426    0.092125    0.093457    0.096252
 Highest eigenvalues
    1.429679    1.577028    1.696015    1.849180    1.961152    2.014269
 

........................................................................
.............................. CYCLE    1 ..............................
........................................................................
   1    -19.6474646 -0.196475E+02  0.318E-05    3.91       0.0  T
   2    -19.6474646 -0.250466E-11  0.169E-05    3.91    1578.5  T
   3    -19.6474646 -0.114753E-11  0.104E-05    3.91    2575.8  T
     SCC iter.                  ...        0 min,  0.002 sec
     gradient                   ...        0 min,  0.004 sec
 * total energy  :   -19.3147449 Eh     change        0.5756633E-08 Eh
   gradient norm :     0.0314277 Eh/α   predicted     0.0000000E+00 (-100.00%)
   displ. norm   :     0.1694608 α      lambda       -0.2858465E-02
   maximum displ.:     0.1056899 α      in ANC's #5, #4, #7, ...

........................................................................
.............................. CYCLE    2 ..............................
........................................................................
   1    -19.6644496 -0.196644E+02  0.237E-01    3.99       0.0  T
   2    -19.6644623 -0.127809E-04  0.135E-01    3.98       1.0  T
   3    -19.6644526  0.971943E-05  0.438E-02    3.98       1.0  T
   4    -19.6644672 -0.145573E-04  0.716E-03    3.98       3.7  T
   5    -19.6644673 -0.745871E-07  0.324E-03    3.98       8.2  T
   6    -19.6644673 -0.184212E-09  0.561E-04    3.98      47.7  T
     SCC iter.                  ...        0 min,  0.002 sec
     gradient                   ...        0 min,  0.004 sec
 * total energy  :   -19.3163776 Eh     change       -0.1632676E-02 Eh
   gradient norm :     0.0111483 Eh/α   predicted    -0.1470275E-02 (  -9.95%)
   displ. norm   :     0.0756213 α      lambda       -0.3234671E-03
   maximum displ.:     0.0619219 α      in ANC's #1, #8, #22, ...

........................................................................
.............................. CYCLE    3 ..............................
........................................................................
   1    -19.6700061 -0.196700E+02  0.109E-01    3.99       0.0  T
   2    -19.6700128 -0.675207E-05  0.622E-02    4.00       1.0  T
   3    -19.6700094  0.339507E-05  0.340E-02    3.99       1.0  T
   4    -19.6700166 -0.717485E-05  0.366E-03    3.99       7.3  T
   5    -19.6700166 -0.165495E-07  0.198E-03    3.99      13.5  T
   6    -19.6700166 -0.587299E-08  0.647E-04    3.99      41.3  T
     SCC iter.                  ...        0 min,  0.002 sec
     gradient                   ...        0 min,  0.004 sec
 * total energy  :   -19.3165782 Eh     change       -0.2006216E-03 Eh
   gradient norm :     0.0053878 Eh/α   predicted    -0.1626575E-03 ( -18.92%)
   displ. norm   :     0.0566413 α      lambda       -0.1111695E-03
   maximum displ.:     0.0487072 α      in ANC's #1, #15, #19, ...

........................................................................
.............................. CYCLE    4 ..............................
........................................................................
   1    -19.6705358 -0.196705E+02  0.923E-02    3.98       0.0  T
   2    -19.6705412 -0.544570E-05  0.521E-02    3.99       1.0  T
   3    -19.6705386  0.257895E-05  0.273E-02    3.98       1.0  T
   4    -19.6705442 -0.553342E-05  0.297E-03    3.99       9.0  T
   5    -19.6705442 -0.161193E-07  0.168E-03    3.99      15.9  T
   6    -19.6705442 -0.439081E-08  0.540E-04    3.99      49.5  T
     SCC iter.                  ...        0 min,  0.002 sec
     gradient                   ...        0 min,  0.004 sec
 * total energy  :   -19.3166552 Eh     change       -0.7701184E-04 Eh
   gradient norm :     0.0027136 Eh/α   predicted    -0.5576237E-04 ( -27.59%)
   displ. norm   :     0.0404681 α      lambda       -0.4896013E-04
   maximum displ.:     0.0299084 α      in ANC's #1, #7, #15, ...

........................................................................
.............................. CYCLE    5 ..............................
........................................................................
   1    -19.6699241 -0.196699E+02  0.789E-02    3.97       0.0  T
   2    -19.6699279 -0.376371E-05  0.446E-02    3.97       1.0  T
   3    -19.6699257  0.220361E-05  0.221E-02    3.97       1.2  T
   4    -19.6699299 -0.424377E-05  0.247E-03    3.97      10.8  T
   5    -19.6699299 -0.124161E-07  0.139E-03    3.97      19.2  T
   6    -19.6699299 -0.371997E-08  0.410E-04    3.97      65.1  T
   7    -19.6699299 -0.455415E-09  0.126E-04    3.97     211.3  T
     SCC iter.                  ...        0 min,  0.003 sec
     gradient                   ...        0 min,  0.004 sec
 * total energy  :   -19.3166848 Eh     change       -0.2959350E-04 Eh
   gradient norm :     0.0017557 Eh/α   predicted    -0.2451997E-04 ( -17.14%)
   displ. norm   :     0.0174871 α      lambda       -0.8446423E-05
   maximum displ.:     0.0085701 α      in ANC's #4, #15, #19, ...

........................................................................
.............................. CYCLE    6 ..............................
........................................................................
   1    -19.6698237 -0.196698E+02  0.428E-02    3.96       0.0  T
   2    -19.6698246 -0.930557E-06  0.239E-02    3.96       1.1  T
   3    -19.6698239  0.705781E-06  0.104E-02    3.96       2.6  T
   4    -19.6698251 -0.117848E-05  0.136E-03    3.96      19.6  T
   5    -19.6698251 -0.336494E-08  0.715E-04    3.96      37.4  T
   6    -19.6698251 -0.186110E-08  0.251E-04    3.96     106.3  T
     SCC iter.                  ...        0 min,  0.003 sec
     gradient                   ...        0 min,  0.004 sec
 * total energy  :   -19.3166910 Eh     change       -0.6193425E-05 Eh
   gradient norm :     0.0007938 Eh/α   predicted    -0.4222961E-05 ( -31.82%)
   displ. norm   :     0.0079840 α      lambda       -0.1273497E-05
   maximum displ.:     0.0066099 α      in ANC's #1, #10, #13, ...

........................................................................
.............................. CYCLE    7 ..............................
........................................................................
   1    -19.6700331 -0.196700E+02  0.672E-03    3.97       0.0  T
   2    -19.6700331 -0.427456E-07  0.372E-03    3.96       7.2  T
   3    -19.6700331  0.698173E-08  0.179E-03    3.96      15.0  T
   4    -19.6700331 -0.139882E-07  0.343E-04    3.96      78.0  T
   5    -19.6700331 -0.638710E-09  0.108E-04    3.96     248.5  T
     SCC iter.                  ...        0 min,  0.002 sec
     gradient                   ...        0 min,  0.004 sec
 * total energy  :   -19.3166917 Eh     change       -0.7407199E-06 Eh
   gradient norm :     0.0001672 Eh/α   predicted    -0.6365250E-06 ( -14.07%)
   displ. norm   :     0.0030945 α      lambda       -0.2374022E-06
   maximum displ.:     0.0018473 α      in ANC's #5, #7, #4, ...

   *** GEOMETRY OPTIMIZATION CONVERGED AFTER 7 ITERATIONS ***

------------------------------------------------------------------------
 total energy gain   :        -0.0019468 Eh       -1.2217 kcal/mol
 total RMSD          :         0.0648051 a0        0.0343 Å
 total power (kW/mol):        -0.7302008 (step)  -77.7246 (real)
------------------------------------------------------------------------

 ANCopt (total)                0 d,  0 h,  0 min,  0.066 sec
 optimizer setup                ...        0 min,  0.000 sec (  0.198%)
 model hessian                  ...        0 min,  0.001 sec (  2.213%)
 ANC generation                 ...        0 min,  0.000 sec (  0.490%)
 coordinate transformation      ...        0 min,  0.000 sec (  0.116%)
 single point calculation       ...        0 min,  0.062 sec ( 93.864%)
 optimization log               ...        0 min,  0.000 sec (  0.669%)
 hessian update                 ...        0 min,  0.000 sec (  0.100%)
 rational function              ...        0 min,  0.001 sec (  1.583%)

================
 final structure:
================
$coord
   -1.44809150508233    2.15586641440889   -0.01083552093379      C 
    1.16478859221276    2.30724941261910    0.01025658994956      C 
    2.57957026115516    0.10525233526125    0.00272349750249      C 
    1.40367236093629   -2.22388900539994   -0.02820981052044      C 
   -1.22722514275646   -2.39133151547017   -0.04777433353331      C 
   -2.63961920337799   -0.16530980284984   -0.04176606047247      C 
   -2.41107484889153   -4.71582195606809    0.06170801632446      N 
   -2.56957743514851    3.86232474900333   -0.01047254144289      H 
    2.09025529818291    4.12509942967859    0.02720064719795      H 
    4.61923516067724    0.20226020753242    0.01311029498386      H 
    2.51330632435496   -3.93951922332598   -0.03557874350406      H 
   -4.67965321174366   -0.27733025093019   -0.05925723732605      H 
   -1.37649086667835   -6.21427253788175   -0.49176212680866      H 
   -4.22841399981976   -4.76223231140226   -0.50138970079960      H 
$end
           -------------------------------------------------
          |                Final Singlepoint                |
           -------------------------------------------------

          ...................................................
          :                      SETUP                      :
          :.................................................:
          :  # basis functions                  35          :
          :  # atomic orbitals                  35          :
          :  # shells                           21          :
          :  # electrons                        36          :
          :  max. iterations                   250          :
          :  Hamiltonian                  GFN2-xTB          :
          :  restarted?                      false          :
          :  GBSA solvation                  false          :
          :  PC potential                    false          :
          :  electronic temp.          300.0000000     K    :
          :  accuracy                    1.0000000          :
          :  -> integral cutoff          0.2500000E+02      :
          :  -> integral neglect         0.1000000E-07      :
          :  -> SCF convergence          0.1000000E-05 Eh   :
          :  -> wf. convergence          0.1000000E-03 e    :
          :  Broyden damping             0.4000000          :
          ...................................................

 iter      E             dE          RMSdq      gap      omega  full diag
   1    -19.6700331 -0.196700E+02  0.206E-05    3.96       0.0  T
   2    -19.6700331 -0.179767E-11  0.979E-06    3.96    2729.6  T
   3    -19.6700331 -0.415668E-12  0.625E-06    3.96    4279.5  T

   *** convergence criteria satisfied after 3 iterations ***

         #    Occupation            Energy/Eh            Energy/eV
      -------------------------------------------------------------
         1        2.0000           -0.6435385             -17.5116
       ...           ...                  ...                  ...
        12        2.0000           -0.4701987             -12.7948
        13        2.0000           -0.4664152             -12.6918
        14        2.0000           -0.4320165             -11.7558
        15        2.0000           -0.4220172             -11.4837
        16        2.0000           -0.4121443             -11.2150
        17        2.0000           -0.3923117             -10.6753
        18        2.0000           -0.3556887              -9.6788 (HOMO)
        19                         -0.2100014              -5.7144 (LUMO)
        20                         -0.1986752              -5.4062
        21                         -0.0759345              -2.0663
        22                          0.0404615               1.1010
        23                          0.1296071               3.5268
       ...                                ...                  ...
        35                          0.6803434              18.5131
      -------------------------------------------------------------
                  HL-Gap            0.1456872 Eh            3.9644 eV
             Fermi-level           -0.2828450 Eh           -7.6966 eV

 SCC (total)                   0 d,  0 h,  0 min,  0.008 sec
 SCC setup                      ...        0 min,  0.000 sec (  1.289%)
 Dispersion                     ...        0 min,  0.000 sec (  0.791%)
 integral evaluation            ...        0 min,  0.002 sec ( 27.046%)
 zeroth order Hamiltonian       ...        0 min,  0.000 sec (  0.531%)
 iterations                     ...        0 min,  0.002 sec ( 19.893%)
 molecular gradient             ...        0 min,  0.004 sec ( 47.717%)
 printout                       ...        0 min,  0.000 sec (  2.150%)

         :::::::::::::::::::::::::::::::::::::::::::::::::::::
         ::                     SUMMARY                     ::
         :::::::::::::::::::::::::::::::::::::::::::::::::::::
         :: total energy             -19.316691732546 Eh    ::
         :: gradient norm              0.000167010087 Eh/a0 ::
         :: HOMO-LUMO gap              3.964350879191 eV    ::
         ::.................................................::
         :: SCC energy               -19.670033109245 Eh    ::
         :: -> isotropic ES            0.009662052791 Eh    ::
         :: -> anisotropic ES          0.005347786289 Eh    ::
         :: -> anisotropic XC          0.012905392031 Eh    ::
         :: -> dispersion             -0.010029163397 Eh    ::
         :: repulsion energy           0.353327627253 Eh    ::
         :: add. restraining           0.000000000000 Eh    ::
         :::::::::::::::::::::::::::::::::::::::::::::::::::::

           -------------------------------------------------
          |                Property Printout                |
           -------------------------------------------------

    * Orbital Energies and Occupations

         #    Occupation            Energy/Eh            Energy/eV
      -------------------------------------------------------------
         1        2.0000           -0.6435385             -17.5116
       ...           ...                  ...                  ...
         6        2.0000           -0.5638543             -15.3433
         7        2.0000           -0.5289778             -14.3942
         8        2.0000           -0.5248033             -14.2806
         9        2.0000           -0.5012215             -13.6389
        10        2.0000           -0.4812044             -13.0942
        11        2.0000           -0.4726345             -12.8610
        12        2.0000           -0.4701987             -12.7948
        13        2.0000           -0.4664152             -12.6918
        14        2.0000           -0.4320165             -11.7558
        15        2.0000           -0.4220172             -11.4837
        16        2.0000           -0.4121443             -11.2150
        17        2.0000           -0.3923117             -10.6753
        18        2.0000           -0.3556887              -9.6788 (HOMO)
        19                         -0.2100014              -5.7144 (LUMO)
        20                         -0.1986752              -5.4062
        21                         -0.0759345              -2.0663
        22                          0.0404615               1.1010
        23                          0.1296071               3.5268
        24                          0.1556965               4.2367
        25                          0.1585407               4.3141
        26                          0.1939589               5.2779
        27                          0.2061470               5.6095
        28                          0.2256157               6.1393
        29                          0.2412555               6.5649
       ...                                ...                  ...
        35                          0.6803434              18.5131
      -------------------------------------------------------------
                  HL-Gap            0.1456872 Eh            3.9644 eV
             Fermi-level           -0.2828450 Eh           -7.6966 eV

     #   Z        covCN         q      C6AA      α(0)
     1   6 C      2.920    -0.030    28.757     8.794
     2   6 C      2.919    -0.046    29.144     8.853
     3   6 C      2.920    -0.030    28.757     8.794
     4   6 C      2.924    -0.061    29.508     8.908
     5   6 C      2.899     0.080    26.218     8.395
     6   6 C      2.924    -0.061    29.508     8.908
     7   7 N      2.641    -0.281    27.249     7.753
     8   1 H      0.926     0.025     2.657     2.549
     9   1 H      0.926     0.023     2.688     2.564
    10   1 H      0.926     0.025     2.657     2.549
    11   1 H      0.925     0.021     2.715     2.577
    12   1 H      0.926     0.021     2.715     2.577
    13   1 H      0.860     0.157     1.357     1.825
    14   1 H      0.860     0.157     1.357     1.825

 Mol. C6AA /au·bohr⁶  :       2286.766781
 Mol. C8AA /au·bohr⁸  :      54588.818236
 Mol. α(0) /au        :         76.869878


Wiberg/Mayer (AO) data.
largest (>0.10) Wiberg bond orders for each atom
          total WBO             WBO to atom ...
     1  C   3.993        C    6 1.461    C    2 1.428    H    8 0.972    C    4 0.104
     2  C   3.991        C    3 1.428    C    1 1.428    H    9 0.972
     3  C   3.993        C    4 1.461    C    2 1.428    H   10 0.972    C    6 0.104
     4  C   3.988        C    3 1.461    C    5 1.351    H   11 0.969    C    1 0.104
     5  C   3.971        C    4 1.351    C    6 1.351    N    7 1.149
     6  C   3.988        C    1 1.461    C    5 1.351    H   12 0.969    C    3 0.104
     7  N   3.240        C    5 1.149    H   14 0.956    H   13 0.956
     8  H   0.999        C    1 0.972
     9  H   0.999        C    2 0.972
    10  H   0.999        C    3 0.972
    11  H   1.000        C    4 0.969
    12  H   1.000        C    6 0.969
    13  H   0.975        N    7 0.956
    14  H   0.975        N    7 0.956

molecular dipole:
                 x           y           z       tot (Debye)
 q only:       -0.258      -0.508      -0.174
   full:       -0.301      -0.593      -0.383       1.952
molecular quadrupole (traceless):
                xx          xy          yy          xz          yz          zz
 q only:       -0.033       2.176       3.126       0.729       1.415      -3.092
  q+dip:        2.290       1.994       5.196       1.663       3.200      -7.485
   full:        1.069       2.143       4.193       1.653       3.202      -5.262

           -------------------------------------------------
          |                Geometry Summary                 |
           -------------------------------------------------

      molecular mass/u    :       93.1280000
   center of mass at/Å    :       -0.2240850      -0.4299218      -0.0090389
  moments of inertia/u·Å² :        0.8895543E+02   0.1915584E+03   0.2801943E+03
rotational constants/cm⁻¹ :        0.1895065E+00   0.8800257E-01   0.6016407E-01

 * 14 selected distances

     #   Z        #   Z                                     value/Å
     1   6 C      2   6 C                                 1.3850404
     2   6 C      3   6 C                                 1.3850354
     3   6 C      4   6 C                                 1.3807970
     4   6 C      5   6 C                                 1.3950664
     1   6 C      6   6 C                                 1.3807931
     5   6 C      6   6 C                                 1.3950688 (max)
     5   6 C      7   7 N                                 1.3816232
     1   6 C      8   1 H                                 1.0805757
     2   6 C      9   1 H                                 1.0794898
     3   6 C     10   1 H                                 1.0805783
     4   6 C     11   1 H                                 1.0812231
     6   6 C     12   1 H                                 1.0812055
     7   7 N     13   1 H                                 1.0071131
     7   7 N     14   1 H                                 1.0071002 (min)

 * 4 distinct bonds (by element types)

   Z      Z             #   av. dist./Å        max./Å        min./Å
   1 H    6 C           5     1.0806145     1.0812231     1.0794898
   6 C    6 C           6     1.3869669     1.3950688     1.3807931
   1 H    7 N           2     1.0071066     1.0071131     1.0071002
   6 C    7 N           1     1.3816232     1.3816232     1.3816232


optimized geometry written to: xtbopt.xyz


           -------------------------------------------------
          | TOTAL ENERGY              -19.316691732546 Eh   |
          | GRADIENT NORM               0.000167010087 Eh/α |
          | HOMO-LUMO GAP               3.964350879191 eV   |
           -------------------------------------------------

------------------------------------------------------------------------
 * finished run on 2021/02/19 at 08:09:21.127     
------------------------------------------------------------------------
 total:
 * wall-time:     0 d,  0 h,  0 min,  0.106 sec
 *  cpu-time:     0 d,  0 h,  0 min,  0.100 sec
 * ratio c/w:     0.941 speedup
 SCF:
 * wall-time:     0 d,  0 h,  0 min,  0.013 sec
 *  cpu-time:     0 d,  0 h,  0 min,  0.013 sec
 * ratio c/w:     0.998 speedup
 ANC optimizer:
 * wall-time:     0 d,  0 h,  0 min,  0.074 sec
 *  cpu-time:     0 d,  0 h,  0 min,  0.074 sec
 * ratio c/w:     0.999 speedup

