      -----------------------------------------------------------      
     |                   =====================                   |     
     |                           x T B                           |     
     |                   =====================                   |     
     |                         S. Grimme                         |     
     |          Mulliken Center for Theoretical Chemistry        |     
     |                    University of Bonn                     |     
     |                Version 6.2 RC2 (SAW190805)                |     
      -----------------------------------------------------------      

   This program is distributed in the hope that it will be useful,
   but WITHOUT ANY WARRANTY; without even the implied warranty of
   MERCHANTABILITY or FITNESS FOR A PARTICULAR PURPOSE.
   
   FOR NON-COMMERCIAL, ACADEMIA USE ONLY.
   
   Cite this work as:
   * S. Grimme, C. Bannwarth, P. Shushkov, J. Chem. Theory Comput., 2017,
     13, 1989-2009. DOI: 10.1021/acs.jctc.7b00118
   * C. Bannwarth, S. Ehlert and S. Grimme., J. Chem. Theory Comput., 2019,
     15, 1652-1671. DOI: 10.1021/acs.jctc.8b01176
   * P. Pracht, E. Caldeweyher, S. Ehlert, S. Grimme, ChemRxiv, 2019, preprint.
     DOI: 10.26434/chemrxiv.8326202.v1
   
   for DFT-D4:
   * E. Caldeweyher, C. Bannwarth and S. Grimme, J. Chem. Phys., 2017,
     147, 034112. DOI: 10.1063/1.4993215
   * E. Caldeweyher, S. Ehlert, A. Hansen, H. Neugebauer, S. Spicher,
     C. Bannwarth and S. Grimme, J. Chem. Phys., 2019, 150, 154122.
     DOI: 10.1063/1.5090222
   
   for sTDA-xTB:
   * S. Grimme and C. Bannwarth, J. Chem. Phys., 2016, 145, 054103.
     DOI: 10.1063/1.4959605
   
   in the mass-spec context:
   * V. Asgeirsson, C. Bauer and S. Grimme, Chem. Sci., 2017, 8, 4879.
     DOI: 10.1039/c7sc00601b
   
   for metadynamics refer to:
   * S. Grimme, J. Chem. Theory Comput., 2019, 155, 2847-2862
     DOI: 10.1021/acs.jctc.9b00143
   
   with help from (in alphabetical order)
   C. Bannwarth, F. Bohle, G. Brandenburg, E. Caldeweyher, M. Checinski,
   S. Dohm, S. Ehlert, S. Ehrlich, F. März, H. Neugebauer, J. Pisarek,
   P. Pracht, P. Shushkov, and S. Spicher.
   
 * started run on 2021/02/19 at 08:13:27.178     

           -------------------------------------------------
          |                Calculation Setup                |
           -------------------------------------------------

          program call               : /ihome/ghutchison/geoffh/xtb/xtb 8utl.xyz -opt
          hostname                   : smp-n167
          coordinate file            : 8utl.xyz
          omp threads                :                     1
          number of atoms            :                    12
          number of electrons        :                    36
          charge                     :                     0
          spin                       :                   0.0
          first test random number   :      0.24538295709414


########################################################################
# WARNING! Please study the warnings concerning your input carefully
#  - the use of '-opt' is discouraged, please use '--opt' next time
########################################################################

           ------------------------------------------------- 
          |                 G F N 2 - x T B                 |
          | Geometry, Frequencies, Noncovalent interactions |
          |            JCTC 2019 parametrisation            |
           ------------------------------------------------- 
             KAB for C  - Si     :                1.0500
             KAB for H  - Pd     :                0.9500
             k(s)              :                1.8500
             k(p)              :                2.2300
             k(d)              :                2.2300
             k(f)              :                2.0000
             kEN (H0ij)        :               -2.0000
             D4 a1             :                0.5200
             D4 a2             :                5.0000
             D4 s6             :                1.0000
             D4 s8             :                2.7000
             D4 s9             :                5.0000
             alphaj            :                2.0000

  Z AO/shell   Hii/eV     exponent
  1     Wed Apr 25 08:07:45 CEST 2018   EN: 2.200 GM2: 0.406  GM3: 0.0800  RAES: 1.40
     1s    -10.707211    1.230000
  6     Wed Apr 25 08:07:45 CEST 2018   EN: 2.550 GM2: 0.538  GM3: 0.1500  RAES: 3.00
     2s    -13.970922    2.096432
     2p    -10.063292    1.800000
  7     Wed Apr 25 08:07:45 CEST 2018   EN: 3.040 GM2: 0.461  GM3:-0.0640  RAES: 1.90
     2s    -16.686243    2.339881
     2p    -12.523956    2.014332
  8     Wed Apr 25 08:07:45 CEST 2018   EN: 3.440 GM2: 0.452  GM3:-0.0517  RAES: 1.80
     2s    -20.229985    2.439742
     2p    -15.503117    2.137023

           ------------------------------------------------- 
          |        Self-Consistent Charge Iterations        |
           ------------------------------------------------- 

          ...................................................
          :                      SETUP                      :
          :.................................................:
          :  # basis functions                  33          :
          :  # atomic orbitals                  33          :
          :  # shells                           19          :
          :  # electrons                        36          :
          :  max. iterations                   250          :
          :  Hamiltonian                  GFN2-xTB          :
          :  restarted?                      false          :
          :  GBSA solvation                  false          :
          :  PC potential                    false          :
          :  electronic temp.          300.0000000     K    :
          :  accuracy                    1.0000000          :
          :  -> integral cutoff          0.2500000E+02      :
          :  -> integral neglect         0.1000000E-07      :
          :  -> SCF convergence          0.1000000E-05 Eh   :
          :  -> wf. convergence          0.1000000E-03 e    :
          :  Broyden damping             0.4000000          :
          ...................................................

 iter      E             dE          RMSdq      gap      omega  full diag
   1    -20.4336505 -0.204337E+02  0.536E+00    3.82       0.0  T
   2    -20.5095114 -0.758609E-01  0.336E+00    3.14       1.0  T
   3    -20.5180979 -0.858646E-02  0.199E+00    3.50       1.0  T
   4    -20.5215496 -0.345167E-02  0.846E-01    3.39       1.0  T
   5    -20.5261054 -0.455584E-02  0.109E-01    3.43       1.0  T
   6    -20.5261238 -0.183384E-04  0.680E-02    3.43       1.0  T
   7    -20.5261473 -0.235653E-04  0.283E-02    3.43       1.0  T
   8    -20.5261477 -0.362384E-06  0.149E-02    3.43       1.9  T
   9    -20.5261489 -0.124483E-05  0.467E-03    3.43       6.2  T
  10    -20.5261489 -0.149404E-07  0.145E-03    3.43      19.8  T
  11    -20.5261490 -0.949285E-08  0.657E-04    3.43      43.9  T
  12    -20.5261490 -0.892680E-09  0.185E-04    3.43     155.7  T

   *** convergence criteria satisfied after 12 iterations ***

         #    Occupation            Energy/Eh            Energy/eV
      -------------------------------------------------------------
         1        2.0000           -0.6940694             -18.8866
       ...           ...                  ...                  ...
        12        2.0000           -0.5009461             -13.6314
        13        2.0000           -0.4814030             -13.0996
        14        2.0000           -0.4662108             -12.6862
        15        2.0000           -0.4574849             -12.4488
        16        2.0000           -0.4527929             -12.3211
        17        2.0000           -0.3902073             -10.6181
        18        2.0000           -0.3894982             -10.5988 (HOMO)
        19                         -0.2634299              -7.1683 (LUMO)
        20                         -0.2223898              -6.0515
        21                         -0.1238245              -3.3694
        22                          0.0070252               0.1912
        23                          0.0852343               2.3193
       ...                                ...                  ...
        33                          0.7037571              19.1502
      -------------------------------------------------------------
                  HL-Gap            0.1260683 Eh            3.4305 eV
             Fermi-level           -0.3264640 Eh           -8.8835 eV

 SCC (total)                   0 d,  0 h,  0 min,  0.009 sec
 SCC setup                      ...        0 min,  0.000 sec (  0.998%)
 Dispersion                     ...        0 min,  0.000 sec (  0.705%)
 integral evaluation            ...        0 min,  0.002 sec ( 26.130%)
 zeroth order Hamiltonian       ...        0 min,  0.000 sec (  0.435%)
 iterations                     ...        0 min,  0.003 sec ( 36.129%)
 molecular gradient             ...        0 min,  0.003 sec ( 34.050%)
 printout                       ...        0 min,  0.000 sec (  1.367%)

         :::::::::::::::::::::::::::::::::::::::::::::::::::::
         ::                     SUMMARY                     ::
         :::::::::::::::::::::::::::::::::::::::::::::::::::::
         :: total energy             -20.231446177927 Eh    ::
         :: gradient norm              0.055384470795 Eh/a0 ::
         :: HOMO-LUMO gap              3.430492364510 eV    ::
         ::.................................................::
         :: SCC energy               -20.526148952416 Eh    ::
         :: -> isotropic ES            0.040868358655 Eh    ::
         :: -> anisotropic ES          0.001647060811 Eh    ::
         :: -> anisotropic XC          0.008407473359 Eh    ::
         :: -> dispersion             -0.008290195871 Eh    ::
         :: repulsion energy           0.294694245461 Eh    ::
         :: add. restraining           0.000000000000 Eh    ::
         :::::::::::::::::::::::::::::::::::::::::::::::::::::

      ----------------------------------------------------------- 
     |                   =====================                   |
     |                        A N C O P T                        |
     |                   =====================                   |
     |               Approximate Normal Coordinate               |
     |                Rational Function Optimizer                |
      ----------------------------------------------------------- 

          ...................................................
          :                      SETUP                      :
          :.................................................:
          :   optimization level            normal          :
          :   max. optcycles                   200          :
          :   ANC micro-cycles                  20          :
          :   degrees of freedom                30          :
          :.................................................:
          :   RF solver                   davidson          :
          :   input Hessian                  false          :
          :   write xtbopt.log                true          :
          :   linear?                        false          :
          :   energy convergence         0.5000000E-05 Eh   :
          :   grad. convergence          0.1000000E-02 Eh/α :
          :   maximium RF displ.         2.0000000          :
          :   Hlow (freq-cutoff)         0.5000000E-02      :
          :   Hmax (freq-cutoff)         5.0000000          :
          :   S6 in model hess.         20.0000000          :
          ...................................................

generating ANC from model Hessian ...
Using Lindh-Hessian (1995)
 Shifting diagonal of input Hessian by   0.000000000000000E+000
 Lowest  eigenvalues of input Hessian
   -0.000000   -0.000000    0.000000    0.000000    0.000000    0.000000
    0.014475    0.016262    0.026571    0.030301    0.071968    0.086854
    0.089846    0.096413    0.104965    0.113120    0.128318    0.131627
 Highest eigenvalues
    1.474583    1.681843    1.889010    1.901528    2.084095    2.362244
 

........................................................................
.............................. CYCLE    1 ..............................
........................................................................
   1    -20.5261490 -0.205261E+02  0.867E-05    3.43       0.0  T
   2    -20.5261490 -0.382840E-10  0.426E-05    3.43     678.1  T
   3    -20.5261490 -0.766676E-11  0.279E-05    3.43    1034.6  T
     SCC iter.                  ...        0 min,  0.001 sec
     gradient                   ...        0 min,  0.003 sec
 * total energy  :   -20.2314462 Eh     change       -0.4149985E-08 Eh
   gradient norm :     0.0553837 Eh/α   predicted     0.0000000E+00 (-100.00%)
   displ. norm   :     0.1025071 α      lambda       -0.3132420E-02
   maximum displ.:     0.0480808 α      in ANC's #11, #16, #10, ...

........................................................................
.............................. CYCLE    2 ..............................
........................................................................
   1    -20.5346383 -0.205346E+02  0.164E-01    3.36       0.0  T
   2    -20.5346546 -0.162796E-04  0.928E-02    3.35       1.0  T
   3    -20.5346605 -0.592957E-05  0.731E-02    3.36       1.0  T
   4    -20.5346797 -0.191602E-04  0.940E-03    3.36       3.1  T
   5    -20.5346804 -0.652631E-06  0.347E-03    3.36       8.3  T
   6    -20.5346804 -0.700251E-08  0.129E-03    3.36      22.3  T
     SCC iter.                  ...        0 min,  0.002 sec
     gradient                   ...        0 min,  0.003 sec
 * total energy  :   -20.2336986 Eh     change       -0.2252452E-02 Eh
   gradient norm :     0.0312075 Eh/α   predicted    -0.1582664E-02 ( -29.74%)
   displ. norm   :     0.0761988 α      lambda       -0.1438102E-02
   maximum displ.:     0.0410938 α      in ANC's #10, #11, #16, ...

........................................................................
.............................. CYCLE    3 ..............................
........................................................................
   1    -20.5386010 -0.205386E+02  0.166E-01    3.29       0.0  T
   2    -20.5386119 -0.108603E-04  0.927E-02    3.28       1.0  T
   3    -20.5386122 -0.306891E-06  0.767E-02    3.29       1.0  T
   4    -20.5386353 -0.230916E-04  0.693E-03    3.29       4.2  T
   5    -20.5386355 -0.232474E-06  0.330E-03    3.29       8.8  T
   6    -20.5386355 -0.273007E-08  0.102E-03    3.29      28.3  T
     SCC iter.                  ...        0 min,  0.001 sec
     gradient                   ...        0 min,  0.003 sec
 * total energy  :   -20.2345095 Eh     change       -0.8108679E-03 Eh
   gradient norm :     0.0090630 Eh/α   predicted    -0.7232242E-03 ( -10.81%)
   displ. norm   :     0.0271464 α      lambda       -0.1392396E-03
   maximum displ.:     0.0200136 α      in ANC's #8, #10, #12, ...

........................................................................
.............................. CYCLE    4 ..............................
........................................................................
   1    -20.5377107 -0.205377E+02  0.444E-02    3.27       0.0  T
   2    -20.5377122 -0.144792E-05  0.257E-02    3.27       1.1  T
   3    -20.5377118  0.379261E-06  0.181E-02    3.27       1.6  T
   4    -20.5377129 -0.107203E-05  0.344E-03    3.27       8.4  T
   5    -20.5377130 -0.105928E-06  0.103E-03    3.27      28.1  T
   6    -20.5377130 -0.901696E-09  0.556E-04    3.27      51.9  T
     SCC iter.                  ...        0 min,  0.001 sec
     gradient                   ...        0 min,  0.003 sec
 * total energy  :   -20.2346064 Eh     change       -0.9691497E-04 Eh
   gradient norm :     0.0040037 Eh/α   predicted    -0.6967098E-04 ( -28.11%)
   displ. norm   :     0.0238591 α      lambda       -0.5231284E-04
   maximum displ.:     0.0181935 α      in ANC's #8, #9, #12, ...

........................................................................
.............................. CYCLE    5 ..............................
........................................................................
   1    -20.5368679 -0.205369E+02  0.294E-02    3.26       0.0  T
   2    -20.5368699 -0.197024E-05  0.169E-02    3.27       1.7  T
   3    -20.5368701 -0.152008E-06  0.102E-02    3.27       2.8  T
   4    -20.5368701 -0.346168E-07  0.361E-03    3.27       8.0  T
   5    -20.5368702 -0.132066E-06  0.641E-04    3.27      45.1  T
   6    -20.5368702 -0.676685E-10  0.318E-04    3.27      90.7  T
     SCC iter.                  ...        0 min,  0.001 sec
     gradient                   ...        0 min,  0.003 sec
 * total energy  :   -20.2346352 Eh     change       -0.2880595E-04 Eh
   gradient norm :     0.0011202 Eh/α   predicted    -0.2616929E-04 (  -9.15%)
   displ. norm   :     0.0068613 α      lambda       -0.2524127E-05
   maximum displ.:     0.0032476 α      in ANC's #13, #10, #7, ...

........................................................................
.............................. CYCLE    6 ..............................
........................................................................
   1    -20.5368969 -0.205369E+02  0.747E-03    3.27       0.0  T
   2    -20.5368971 -0.180640E-06  0.401E-03    3.27       7.2  T
   3    -20.5368971 -0.182381E-07  0.234E-03    3.27      12.3  T
   4    -20.5368971 -0.152586E-08  0.960E-04    3.27      30.1  T
   5    -20.5368971 -0.817671E-08  0.201E-04    3.27     143.7  T
     SCC iter.                  ...        0 min,  0.001 sec
     gradient                   ...        0 min,  0.003 sec
 * total energy  :   -20.2346372 Eh     change       -0.1987884E-05 Eh
   gradient norm :     0.0003859 Eh/α   predicted    -0.1262211E-05 ( -36.50%)
   displ. norm   :     0.0029015 α      lambda       -0.4786916E-06
   maximum displ.:     0.0016367 α      in ANC's #13, #8, #10, ...

   *** GEOMETRY OPTIMIZATION CONVERGED AFTER 6 ITERATIONS ***

------------------------------------------------------------------------
 total energy gain   :        -0.0031910 Eh       -2.0024 kcal/mol
 total RMSD          :         0.0503893 a0        0.0267 Å
 total power (kW/mol):        -1.3963428 (step) -198.6552 (real)
------------------------------------------------------------------------

 ANCopt (total)                0 d,  0 h,  0 min,  0.042 sec
 optimizer setup                ...        0 min,  0.000 sec (  0.137%)
 model hessian                  ...        0 min,  0.001 sec (  2.395%)
 ANC generation                 ...        0 min,  0.000 sec (  0.429%)
 coordinate transformation      ...        0 min,  0.000 sec (  0.045%)
 single point calculation       ...        0 min,  0.040 sec ( 95.334%)
 optimization log               ...        0 min,  0.000 sec (  0.503%)
 hessian update                 ...        0 min,  0.000 sec (  0.054%)
 rational function              ...        0 min,  0.000 sec (  0.701%)

================
 final structure:
================
$coord
   -1.41553101214287    2.20044325527101    0.00777691630869      C 
    1.14015895367049    2.35760834539929    0.00993210871930      C 
    2.71334859244368    0.13016637580861    0.00982601401839      C 
    5.01091664854076    0.06196810350278    0.01181715439239      O 
    1.34903786082471   -2.12804377138951    0.00777543249041      N 
   -1.19825756062836   -2.29480285227594    0.00569454336780      C 
   -2.64351834409645   -0.17732533671698    0.00551364430269      C 
   -2.55090815888087    3.89743404487605    0.00743757922161      H 
    2.11007072267154    4.14987578500805    0.01158844260006      H 
    2.41293546969396   -3.71906497102442    0.00795617874449      H 
   -1.99584853383745   -4.17400151338615    0.00425962662515      H 
   -4.67379564209782   -0.30055360221217    0.00379371836377      H 
$end
           -------------------------------------------------
          |                Final Singlepoint                |
           -------------------------------------------------

          ...................................................
          :                      SETUP                      :
          :.................................................:
          :  # basis functions                  33          :
          :  # atomic orbitals                  33          :
          :  # shells                           19          :
          :  # electrons                        36          :
          :  max. iterations                   250          :
          :  Hamiltonian                  GFN2-xTB          :
          :  restarted?                      false          :
          :  GBSA solvation                  false          :
          :  PC potential                    false          :
          :  electronic temp.          300.0000000     K    :
          :  accuracy                    1.0000000          :
          :  -> integral cutoff          0.2500000E+02      :
          :  -> integral neglect         0.1000000E-07      :
          :  -> SCF convergence          0.1000000E-05 Eh   :
          :  -> wf. convergence          0.1000000E-03 e    :
          :  Broyden damping             0.4000000          :
          ...................................................

 iter      E             dE          RMSdq      gap      omega  full diag
   1    -20.5368971 -0.205369E+02  0.860E-05    3.27       0.0  T
   2    -20.5368971 -0.213305E-10  0.486E-05    3.27     594.6  T
   3    -20.5368971 -0.221441E-10  0.279E-05    3.27    1035.4  T

   *** convergence criteria satisfied after 3 iterations ***

         #    Occupation            Energy/Eh            Energy/eV
      -------------------------------------------------------------
         1        2.0000           -0.6958092             -18.9339
       ...           ...                  ...                  ...
        12        2.0000           -0.5013423             -13.6422
        13        2.0000           -0.4841692             -13.1749
        14        2.0000           -0.4660301             -12.6813
        15        2.0000           -0.4581573             -12.4671
        16        2.0000           -0.4540877             -12.3564
        17        2.0000           -0.3928046             -10.6888
        18        2.0000           -0.3872733             -10.5382 (HOMO)
        19                         -0.2672347              -7.2718 (LUMO)
        20                         -0.2199641              -5.9855
        21                         -0.1187496              -3.2313
        22                          0.0169742               0.4619
        23                          0.0933394               2.5399
       ...                                ...                  ...
        33                          0.7077222              19.2581
      -------------------------------------------------------------
                  HL-Gap            0.1200385 Eh            3.2664 eV
             Fermi-level           -0.3272540 Eh           -8.9050 eV

 SCC (total)                   0 d,  0 h,  0 min,  0.006 sec
 SCC setup                      ...        0 min,  0.000 sec (  1.003%)
 Dispersion                     ...        0 min,  0.000 sec (  0.599%)
 integral evaluation            ...        0 min,  0.002 sec ( 35.738%)
 zeroth order Hamiltonian       ...        0 min,  0.000 sec (  0.535%)
 iterations                     ...        0 min,  0.001 sec ( 13.281%)
 molecular gradient             ...        0 min,  0.003 sec ( 47.040%)
 printout                       ...        0 min,  0.000 sec (  1.617%)

         :::::::::::::::::::::::::::::::::::::::::::::::::::::
         ::                     SUMMARY                     ::
         :::::::::::::::::::::::::::::::::::::::::::::::::::::
         :: total energy             -20.234637206244 Eh    ::
         :: gradient norm              0.000385093975 Eh/a0 ::
         :: HOMO-LUMO gap              3.266415075826 eV    ::
         ::.................................................::
         :: SCC energy               -20.536897109535 Eh    ::
         :: -> isotropic ES            0.040674369909 Eh    ::
         :: -> anisotropic ES          0.001807670079 Eh    ::
         :: -> anisotropic XC          0.007998378491 Eh    ::
         :: -> dispersion             -0.008313201060 Eh    ::
         :: repulsion energy           0.302251631129 Eh    ::
         :: add. restraining           0.000000000000 Eh    ::
         :::::::::::::::::::::::::::::::::::::::::::::::::::::

           -------------------------------------------------
          |                Property Printout                |
           -------------------------------------------------

    * Orbital Energies and Occupations

         #    Occupation            Energy/Eh            Energy/eV
      -------------------------------------------------------------
         1        2.0000           -0.6958092             -18.9339
       ...           ...                  ...                  ...
         6        2.0000           -0.6087479             -16.5649
         7        2.0000           -0.5739817             -15.6188
         8        2.0000           -0.5492300             -14.9453
         9        2.0000           -0.5482797             -14.9194
        10        2.0000           -0.5310640             -14.4510
        11        2.0000           -0.5151882             -14.0190
        12        2.0000           -0.5013423             -13.6422
        13        2.0000           -0.4841692             -13.1749
        14        2.0000           -0.4660301             -12.6813
        15        2.0000           -0.4581573             -12.4671
        16        2.0000           -0.4540877             -12.3564
        17        2.0000           -0.3928046             -10.6888
        18        2.0000           -0.3872733             -10.5382 (HOMO)
        19                         -0.2672347              -7.2718 (LUMO)
        20                         -0.2199641              -5.9855
        21                         -0.1187496              -3.2313
        22                          0.0169742               0.4619
        23                          0.0933394               2.5399
        24                          0.1241890               3.3794
        25                          0.1440113               3.9187
        26                          0.1619945               4.4081
        27                          0.2105294               5.7288
        28                          0.3229650               8.7883
        29                          0.3561775               9.6921
       ...                                ...                  ...
        33                          0.7077222              19.2581
      -------------------------------------------------------------
                  HL-Gap            0.1200385 Eh            3.2664 eV
             Fermi-level           -0.3272540 Eh           -8.9050 eV

     #   Z        covCN         q      C6AA      α(0)
     1   6 C      2.916    -0.012    28.321     8.727
     2   6 C      2.910    -0.069    29.711     8.938
     3   6 C      2.763     0.268    22.480     7.765
     4   8 O      0.859    -0.451    22.725     6.391
     5   7 N      2.703    -0.113    23.459     7.194
     6   6 C      2.848     0.033    27.246     8.555
     7   6 C      2.913    -0.057    29.407     8.892
     8   1 H      0.926     0.047     2.353     2.399
     9   1 H      0.926     0.062     2.174     2.306
    10   1 H      0.860     0.192     1.150     1.680
    11   1 H      0.926     0.051     2.310     2.377
    12   1 H      0.926     0.048     2.345     2.395

 Mol. C6AA /au·bohr⁶  :       1832.980648
 Mol. C8AA /au·bohr⁸  :      43783.116640
 Mol. α(0) /au        :         67.616643


Wiberg/Mayer (AO) data.
largest (>0.10) Wiberg bond orders for each atom
          total WBO             WBO to atom ...
     1  C   3.990        C    2 1.653    C    7 1.255    H    8 0.969
     2  C   3.989        C    1 1.653    C    3 1.126    H    9 0.967    C    6 0.118
     3  C   3.951        O    4 1.648    C    2 1.126    N    5 1.093
     4  O   1.991        C    3 1.648    N    5 0.155
     5  N   3.581        C    6 1.255    C    3 1.093    H   10 0.933    O    4 0.155
     6  C   3.968        C    7 1.591    N    5 1.255    H   11 0.964    C    2 0.118
     7  C   3.986        C    6 1.591    C    1 1.255    H   12 0.970
     8  H   0.998        C    1 0.969
     9  H   0.996        C    2 0.967
    10  H   0.963        N    5 0.933
    11  H   0.997        C    6 0.964
    12  H   0.998        C    7 0.970

molecular dipole:
                 x           y           z       tot (Debye)
 q only:       -1.489      -0.506      -0.001
   full:       -1.664      -0.666      -0.002       4.555
molecular quadrupole (traceless):
                xx          xy          yy          xz          yz          zz
 q only:       -9.344      -1.439       8.089      -0.027      -0.004       1.256
  q+dip:      -10.904      -2.326      11.609      -0.029      -0.004      -0.705
   full:      -11.942      -2.101      10.325      -0.031      -0.006       1.617

           -------------------------------------------------
          |                Geometry Summary                 |
           -------------------------------------------------

      molecular mass/u    :       95.1006000
   center of mass at/Å    :        0.4310822      -0.0130509       0.0044439
  moments of inertia/u·Å² :        0.8859907E+02   0.1782103E+03   0.2668094E+03
rotational constants/cm⁻¹ :        0.1902687E+00   0.9459404E-01   0.6318231E-01

 * 11 selected distances

     #   Z        #   Z                                     value/Å
     1   6 C      2   6 C                                 1.3549683
     3   6 C      4   8 O                                 1.2163567
     3   6 C      5   7 N                                 1.3961518
     5   7 N      6   6 C                                 1.3508567
     1   6 C      7   6 C                                 1.4161540 (max)
     6   6 C      7   6 C                                 1.3566447
     1   6 C      8   1 H                                 1.0804627
     2   6 C      9   1 H                                 1.0783997
     5   7 N     10   1 H                                 1.0128219 (min)
     6   6 C     11   1 H                                 1.0802919
     7   6 C     12   1 H                                 1.0763541

 * 5 distinct bonds (by element types)

   Z      Z             #   av. dist./Å        max./Å        min./Å
   1 H    6 C           4     1.0788771     1.0804627     1.0763541
   6 C    6 C           3     1.3759224     1.4161540     1.3549683
   1 H    7 N           1     1.0128219     1.0128219     1.0128219
   6 C    7 N           2     1.3735043     1.3961518     1.3508567
   6 C    8 O           1     1.2163567     1.2163567     1.2163567


optimized geometry written to: xtbopt.xyz


           -------------------------------------------------
          | TOTAL ENERGY              -20.234637206244 Eh   |
          | GRADIENT NORM               0.000385093975 Eh/α |
          | HOMO-LUMO GAP               3.266415075826 eV   |
           -------------------------------------------------

------------------------------------------------------------------------
 * finished run on 2021/02/19 at 08:13:27.247     
------------------------------------------------------------------------
 total:
 * wall-time:     0 d,  0 h,  0 min,  0.069 sec
 *  cpu-time:     0 d,  0 h,  0 min,  0.068 sec
 * ratio c/w:     0.986 speedup
 SCF:
 * wall-time:     0 d,  0 h,  0 min,  0.009 sec
 *  cpu-time:     0 d,  0 h,  0 min,  0.009 sec
 * ratio c/w:     1.000 speedup
 ANC optimizer:
 * wall-time:     0 d,  0 h,  0 min,  0.049 sec
 *  cpu-time:     0 d,  0 h,  0 min,  0.049 sec
 * ratio c/w:     1.000 speedup

