
                                 *****************
                                 * O   R   C   A *
                                 *****************

           --- An Ab Initio, DFT and Semiempirical electronic structure package ---

                  #######################################################
                  #                        -***-                        #
                  #          Department of theory and spectroscopy      #
                  #               Directorship: Frank Neese             #
                  #        Max Planck Institute fuer Kohlenforschung    #
                  #                Kaiser Wilhelm Platz 1               #
                  #                 D-45470 Muelheim/Ruhr               #
                  #                      Germany                        #
                  #                                                     #
                  #                  All rights reserved                #
                  #                        -***-                        #
                  #######################################################


                         Program Version 4.2.0 -  RELEASE  -


 With contributions from (in alphabetic order):
   Daniel Aravena         : Magnetic Suceptibility
   Michael Atanasov       : Ab Initio Ligand Field Theory (pilot matlab implementation)
   Alexander A. Auer      : GIAO ZORA, VPT2
   Ute Becker             : Parallelization
   Giovanni Bistoni       : ED, misc. LED, open-shell LED, HFLED
   Martin Brehm           : Molecular dynamics
   Dmytro Bykov           : SCF Hessian
   Vijay G. Chilkuri      : MRCI spin determinant printing, contributions to CSF-ICE
   Dipayan Datta          : RHF DLPNO-CCSD density
   Achintya Kumar Dutta   : EOM-CC, STEOM-CC
   Dmitry Ganyushin       : Spin-Orbit,Spin-Spin,Magnetic field MRCI
   Miquel Garcia          : C-PCM Hessian, Gaussian charge scheme
   Yang Guo               : DLPNO-NEVPT2, CIM, IAO-localization
   Andreas Hansen         : Spin unrestricted coupled pair/coupled cluster methods
   Benjamin Helmich-Paris : CASSCF linear response (MC-RPA)
   Lee Huntington         : MR-EOM, pCC
   Robert Izsak           : Overlap fitted RIJCOSX, COSX-SCS-MP3, EOM
   Christian Kollmar      : KDIIS, OOCD, Brueckner-CCSD(T), CCSD density
   Simone Kossmann        : Meta GGA functionals, TD-DFT gradient, OOMP2, MP2 Hessian
   Martin Krupicka        : AUTO-CI
   Lucas Lang             : DCDCAS
   Dagmar Lenk            : GEPOL surface, SMD
   Dimitrios Liakos       : Extrapolation schemes; Compound Job, initial MDCI parallelization
   Dimitrios Manganas     : Further ROCIS development; embedding schemes
   Dimitrios Pantazis     : SARC Basis sets
   Taras Petrenko         : DFT Hessian,TD-DFT gradient, ASA, ECA, R-Raman, ABS, FL, XAS/XES, NRVS
   Peter Pinski           : DLPNO-MP2, DLPNO-MP2 Gradient
   Christoph Reimann      : Effective Core Potentials
   Marius Retegan         : Local ZFS, SOC
   Christoph Riplinger    : Optimizer, TS searches, QM/MM, DLPNO-CCSD(T), (RO)-DLPNO pert. Triples
   Tobias Risthaus        : Range-separated hybrids, TD-DFT gradient, RPA, STAB
   Michael Roemelt        : Original ROCIS implementation
   Masaaki Saitow         : Open-shell DLPNO-CCSD energy and density
   Barbara Sandhoefer     : DKH picture change effects
   Avijit Sen             : IP-ROCIS
   Kantharuban Sivalingam : CASSCF convergence, NEVPT2, FIC-MRCI
   Bernardo de Souza      : ESD, SOC TD-DFT
   Georgi Stoychev        : AutoAux, RI-MP2 NMR
   Willem Van den Heuvel  : Paramagnetic NMR
   Boris Wezisla          : Elementary symmetry handling
   Frank Wennmohs         : Technical directorship


 We gratefully acknowledge several colleagues who have allowed us to
 interface, adapt or use parts of their codes:
   Stefan Grimme, W. Hujo, H. Kruse,             : VdW corrections, initial TS optimization,
                  C. Bannwarth                     DFT functionals, gCP, sTDA/sTD-DF
   Ed Valeev, F. Pavosevic, A. Kumar             : LibInt (2-el integral package), F12 methods
   Garnet Chan, S. Sharma, J. Yang, R. Olivares  : DMRG
   Ulf Ekstrom                                   : XCFun DFT Library
   Mihaly Kallay                                 : mrcc  (arbitrary order and MRCC methods)
   Andreas Klamt, Michael Diedenhofen            : otool_cosmo (COSMO solvation model)
   Jiri Pittner, Ondrej Demel                    : Mk-CCSD
   Frank Weinhold                                : gennbo (NPA and NBO analysis)
   Christopher J. Cramer and Donald G. Truhlar   : smd solvation model
   Lars Goerigk                                  : TD-DFT with DH, B97 family of functionals
   V. Asgeirsson, H. Jonsson                     : NEB implementation
   FAccTs GmbH                                   : IRC, NEB, NEB-TS, Multilevel, MM, QM/MM, CI optimization
   S Lehtola, MJT Oliveira, MAL Marques          : LibXC Library


 Your calculation uses the libint2 library for the computation of 2-el integrals
 For citations please refer to: http://libint.valeyev.net

 Your ORCA version has been built with support for libXC version: 4.2.3
 For citations please refer to: https://tddft.org/programs/libxc/

 This ORCA versions uses:
   CBLAS   interface :  Fast vector & matrix operations
   LAPACKE interface :  Fast linear algebra routines
   SCALAPACK package :  Parallel linear algebra routines


XCFun DFT library Copyright 2009-2010 Ulf Ekstrom and contributors.
See http://admol.org/xcfun for more information. This is free soft-
ware; see the source code for copying conditions. There is ABSOLUTELY
NO WARRANTY; not even for MERCHANTABILITY or FITNESS FOR A PARTICULAR
PURPOSE. For details see the documentation. Scientific users of this 
library should cite U. Ekstrom, L. Visscher, R. Bast, A. J. Thorvald-
sen and K. Ruud; J.Chem.Theor.Comp. 2010, DOI: 10.1021/ct100117s
XCFun Version 0.99 
----- Orbital basis set information -----
Your calculation utilizes the basis: def2-SVP
   F. Weigend and R. Ahlrichs, Phys. Chem. Chem. Phys. 7, 3297 (2005).

----- AuxJ basis set information -----
Your calculation utilizes the auxiliary basis: def2/J
   F. Weigend, Phys. Chem. Chem. Phys. 8, 1057 (2006).

================================================================================
                                        WARNINGS
                       Please study these warnings very carefully!
================================================================================

INFO   : Checking CIS options ...

WARNING: CIS/ROCIS methods need fully converged wavefunctions
  ===> : Setting SCFConvForced true
         You can overwrite this default with %scf ConvForced false 


INFO   : the flag for use of LIBINT has been found!

================================================================================
                                       INPUT FILE
================================================================================
NAME = xtbopt.inp
|  1> # ORCA input file
|  2> # SCF done       -214.629534445980          0.000949673317
|  3> ! CAM-B3LYP def2-SVP def2/J RIJCOSX Grid4 TightSCF
|  4> %maxcore 5000
|  5> %tddft
|  6>     Mode sTDDFT
|  7>     Ethresh 5.0
|  8>     maxcore 5000
|  9> end
| 10> 
| 11> %pal
| 12>   nprocs 6
| 13>   end
| 14> * xyz 0 1
| 15>    C        3.59085         3.39048         7.28582
| 16>    C        2.41628         3.91004         7.75507
| 17>    F        2.26964         4.13034         9.07358
| 18>    C        1.34392         4.22718         6.91016
| 19>    C        1.47358         4.00992         5.56655
| 20>    C        2.66246         3.47614         5.02854
| 21>    C        3.74269         3.16269         5.90459
| 22>    C        4.94915         2.63433         5.38778
| 23>    C        5.06507         2.42565         4.04069
| 24>    C        3.97466         2.72083         3.17174
| 25>    C        2.80290         3.23879         3.64260
| 26>    C        4.34052         2.35460         1.79121
| 27>    O        3.69548         2.50713         0.77977
| 28>    C        5.66978         1.68825         1.90406
| 29>    C        6.17511         1.92131         3.23623
| 30>    C        7.49058         1.90816         3.62803
| 31>    C        7.92821         2.24315         4.92568
| 32>    N        8.34400         2.49970         5.96402
| 33>    C        8.56749         1.63738         2.76315
| 34>    N        9.47944         1.45770         2.08856
| 35>    C        6.14138         0.96999         0.84264
| 36>    C        7.13184        -0.02872         0.82186
| 37>    S        7.95228        -0.39771        -0.67320
| 38>    C        8.96957        -1.60390         0.06294
| 39>    C        8.63840        -1.73160         1.40214
| 40>    C        7.60119        -0.86640         1.83919
| 41>    C        7.26943        -1.09554         3.19379
| 42>    C        8.06130        -2.04992         3.76247
| 43>    C        7.99088        -2.48172         5.16300
| 44>    O        7.18415        -2.05921         5.95324
| 45>    O        8.92842        -3.39456         5.43221
| 46>    C        8.99170        -3.88886         6.76305
| 47>    S        9.23305        -2.74420         2.67512
| 48>    C        9.94648        -2.29743        -0.68426
| 49>    C       10.25477        -2.11581        -2.02457
| 50>    C       11.25095        -2.98766        -2.44950
| 51>    C       11.70554        -3.84293        -1.42575
| 52>    S       10.91240        -3.56139         0.06119
| 53>    C       12.69042        -4.70550        -1.96223
| 54>    C       12.86498        -4.39423        -3.32529
| 55>    C       11.97554        -3.29785        -3.67238
| 56>    C       11.85468        -2.68706        -4.88529
| 57>    C       10.94419        -1.63199        -5.10838
| 58>    N       10.20269        -0.77754        -5.29263
| 59>    C       12.64119        -3.06904        -5.99297
| 60>    N       13.28875        -3.37139        -6.88955
| 61>    C       13.79275        -5.21429        -3.95823
| 62>    C       14.33476        -6.15378        -3.09328
| 63>    S       13.67716        -6.00528        -1.46557
| 64>    C       15.26591        -7.17601        -3.38311
| 65>    S       15.62794        -8.39334        -2.20057
| 66>    C       16.65592        -9.30145        -3.28715
| 67>    C       16.73412        -8.62412        -4.49696
| 68>    C       15.97314        -7.42300        -4.56511
| 69>    C       16.15011        -6.76308        -5.80474
| 70>    C       17.01456        -7.42668        -6.62108
| 71>    C       17.46379        -7.07336        -7.97209
| 72>    O       18.25646        -7.72587        -8.60509
| 73>    O       16.89183        -5.94486        -8.40325
| 74>    C       17.25682        -5.52578        -9.71159
| 75>    S       17.65056        -8.90241        -5.93487
| 76>    C       17.27919       -10.47419        -2.82654
| 77>    C       17.82762       -11.49962        -3.54392
| 78>    C       18.81506       -12.39828        -2.88036
| 79>    O       19.06155       -12.44903        -1.69709
| 80>    C       19.44538       -13.15607        -3.97719
| 81>    C       20.48664       -14.03698        -3.92765
| 82>    C       20.94535       -14.62969        -5.12592
| 83>    C       20.31753       -14.28807        -6.35922
| 84>    C       20.78642       -14.87486        -7.55022
| 85>    C       21.82675       -15.76070        -7.49785
| 86>    C       22.45482       -16.11212        -6.29543
| 87>    C       22.01403       -15.54914        -5.12995
| 88>    F       22.27469       -16.32455        -8.63419
| 89>    C       19.23409       -13.37802        -6.37936
| 90>    C       18.79966       -12.82876        -5.20467
| 91>    C       17.70221       -11.90871        -4.91827
| 92>    C       16.62645       -11.67962        -5.74204
| 93>    C       15.45022       -11.03043        -5.32136
| 94>    N       14.46618       -10.53197        -5.00166
| 95>    C       16.51861       -12.18267        -7.05468
| 96>    N       16.37579       -12.56311        -8.12782
| 97>    H        4.39660         3.16002         7.96505
| 98>    H        0.44134         4.63424         7.33760
| 99>    H        0.66100         4.24543         4.89590
|100>    H        5.74652         2.39404         6.07318
|101>    H        1.99107         3.46260         2.96693
|102>    H        5.64447         1.17141        -0.10181
|103>    H        6.47779        -0.61564         3.73833
|104>    H        9.30989        -4.92734         6.69991
|105>    H        8.01243        -3.80971         7.23881
|106>    H        9.71925        -3.30731         7.33238
|107>    H        9.76263        -1.38179        -2.63701
|108>    H       14.04362        -5.15663        -4.99927
|109>    H       15.69395        -5.83710        -6.09896
|110>    H       16.69025        -4.61880        -9.90423
|111>    H       17.00684        -6.29963       -10.44000
|112>    H       18.32990        -5.32966        -9.76105
|113>    H       17.39780       -10.55597        -1.75026
|114>    H       20.95615       -14.28003        -2.98621
|115>    H       20.32446       -14.62953        -8.49369
|116>    H       23.27064       -16.81718        -6.31561
|117>    H       22.48251       -15.80383        -4.19118
|118>    H       18.78167       -13.13006        -7.32634
|119> *
|120> 
|121>                          ****END OF INPUT****
================================================================================

                       ****************************
                       * Single Point Calculation *
                       ****************************

---------------------------------
CARTESIAN COORDINATES (ANGSTROEM)
---------------------------------
  C      3.590850    3.390480    7.285820
  C      2.416280    3.910040    7.755070
  F      2.269640    4.130340    9.073580
  C      1.343920    4.227180    6.910160
  C      1.473580    4.009920    5.566550
  C      2.662460    3.476140    5.028540
  C      3.742690    3.162690    5.904590
  C      4.949150    2.634330    5.387780
  C      5.065070    2.425650    4.040690
  C      3.974660    2.720830    3.171740
  C      2.802900    3.238790    3.642600
  C      4.340520    2.354600    1.791210
  O      3.695480    2.507130    0.779770
  C      5.669780    1.688250    1.904060
  C      6.175110    1.921310    3.236230
  C      7.490580    1.908160    3.628030
  C      7.928210    2.243150    4.925680
  N      8.344000    2.499700    5.964020
  C      8.567490    1.637380    2.763150
  N      9.479440    1.457700    2.088560
  C      6.141380    0.969990    0.842640
  C      7.131840   -0.028720    0.821860
  S      7.952280   -0.397710   -0.673200
  C      8.969570   -1.603900    0.062940
  C      8.638400   -1.731600    1.402140
  C      7.601190   -0.866400    1.839190
  C      7.269430   -1.095540    3.193790
  C      8.061300   -2.049920    3.762470
  C      7.990880   -2.481720    5.163000
  O      7.184150   -2.059210    5.953240
  O      8.928420   -3.394560    5.432210
  C      8.991700   -3.888860    6.763050
  S      9.233050   -2.744200    2.675120
  C      9.946480   -2.297430   -0.684260
  C     10.254770   -2.115810   -2.024570
  C     11.250950   -2.987660   -2.449500
  C     11.705540   -3.842930   -1.425750
  S     10.912400   -3.561390    0.061190
  C     12.690420   -4.705500   -1.962230
  C     12.864980   -4.394230   -3.325290
  C     11.975540   -3.297850   -3.672380
  C     11.854680   -2.687060   -4.885290
  C     10.944190   -1.631990   -5.108380
  N     10.202690   -0.777540   -5.292630
  C     12.641190   -3.069040   -5.992970
  N     13.288750   -3.371390   -6.889550
  C     13.792750   -5.214290   -3.958230
  C     14.334760   -6.153780   -3.093280
  S     13.677160   -6.005280   -1.465570
  C     15.265910   -7.176010   -3.383110
  S     15.627940   -8.393340   -2.200570
  C     16.655920   -9.301450   -3.287150
  C     16.734120   -8.624120   -4.496960
  C     15.973140   -7.423000   -4.565110
  C     16.150110   -6.763080   -5.804740
  C     17.014560   -7.426680   -6.621080
  C     17.463790   -7.073360   -7.972090
  O     18.256460   -7.725870   -8.605090
  O     16.891830   -5.944860   -8.403250
  C     17.256820   -5.525780   -9.711590
  S     17.650560   -8.902410   -5.934870
  C     17.279190  -10.474190   -2.826540
  C     17.827620  -11.499620   -3.543920
  C     18.815060  -12.398280   -2.880360
  O     19.061550  -12.449030   -1.697090
  C     19.445380  -13.156070   -3.977190
  C     20.486640  -14.036980   -3.927650
  C     20.945350  -14.629690   -5.125920
  C     20.317530  -14.288070   -6.359220
  C     20.786420  -14.874860   -7.550220
  C     21.826750  -15.760700   -7.497850
  C     22.454820  -16.112120   -6.295430
  C     22.014030  -15.549140   -5.129950
  F     22.274690  -16.324550   -8.634190
  C     19.234090  -13.378020   -6.379360
  C     18.799660  -12.828760   -5.204670
  C     17.702210  -11.908710   -4.918270
  C     16.626450  -11.679620   -5.742040
  C     15.450220  -11.030430   -5.321360
  N     14.466180  -10.531970   -5.001660
  C     16.518610  -12.182670   -7.054680
  N     16.375790  -12.563110   -8.127820
  H      4.396600    3.160020    7.965050
  H      0.441340    4.634240    7.337600
  H      0.661000    4.245430    4.895900
  H      5.746520    2.394040    6.073180
  H      1.991070    3.462600    2.966930
  H      5.644470    1.171410   -0.101810
  H      6.477790   -0.615640    3.738330
  H      9.309890   -4.927340    6.699910
  H      8.012430   -3.809710    7.238810
  H      9.719250   -3.307310    7.332380
  H      9.762630   -1.381790   -2.637010
  H     14.043620   -5.156630   -4.999270
  H     15.693950   -5.837100   -6.098960
  H     16.690250   -4.618800   -9.904230
  H     17.006840   -6.299630  -10.440000
  H     18.329900   -5.329660   -9.761050
  H     17.397800  -10.555970   -1.750260
  H     20.956150  -14.280030   -2.986210
  H     20.324460  -14.629530   -8.493690
  H     23.270640  -16.817180   -6.315610
  H     22.482510  -15.803830   -4.191180
  H     18.781670  -13.130060   -7.326340

----------------------------
CARTESIAN COORDINATES (A.U.)
----------------------------
  NO LB      ZA    FRAG     MASS         X           Y           Z
   0 C     6.0000    0    12.011    6.785723    6.407079   13.768204
   1 C     6.0000    0    12.011    4.566107    7.388905   14.654958
   2 F     9.0000    0    18.998    4.288998    7.805211   17.146581
   3 C     6.0000    0    12.011    2.539641    7.988213   13.058310
   4 C     6.0000    0    12.011    2.784663    7.577651   10.519255
   5 C     6.0000    0    12.011    5.031320    6.568953    9.502563
   6 C     6.0000    0    12.011    7.072659    5.976618   11.158058
   7 C     6.0000    0    12.011    9.352538    4.978162   10.181429
   8 C     6.0000    0    12.011    9.571595    4.583814    7.635797
   9 C     6.0000    0    12.011    7.511019    5.141624    5.993720
  10 C     6.0000    0    12.011    5.296713    6.120426    6.883516
  11 C     6.0000    0    12.011    8.202394    4.449549    3.384896
  12 O     8.0000    0    15.999    6.983445    4.737789    1.473552
  13 C     6.0000    0    12.011   10.714331    3.190330    3.598152
  14 C     6.0000    0    12.011   11.669267    3.630750    6.115588
  15 C     6.0000    0    12.011   14.155145    3.605900    6.855983
  16 C     6.0000    0    12.011   14.982146    4.238939    9.308186
  17 N     7.0000    0    14.007   15.767875    4.723748   11.270364
  18 C     6.0000    0    12.011   16.190210    3.094200    5.221597
  19 N     7.0000    0    14.007   17.913546    2.754654    3.946806
  20 C     6.0000    0    12.011   11.605526    1.833015    1.592359
  21 C     6.0000    0    12.011   13.477224   -0.054273    1.553090
  22 S    16.0000    0    32.060   15.027631   -0.751563   -1.272164
  23 C     6.0000    0    12.011   16.950031   -3.030932    0.118939
  24 C     6.0000    0    12.011   16.324210   -3.272250    2.649661
  25 C     6.0000    0    12.011   14.364167   -1.637259    3.475565
  26 C     6.0000    0    12.011   13.737232   -2.070271    6.035388
  27 C     6.0000    0    12.011   15.233649   -3.873787    7.110038
  28 C     6.0000    0    12.011   15.100575   -4.689771    9.756656
  29 O     8.0000    0    15.999   13.576076   -3.891343   11.249993
  30 O     8.0000    0    15.999   16.872269   -6.414789   10.265389
  31 C     6.0000    0    12.011   16.991850   -7.348880   12.780312
  32 S    16.0000    0    32.060   17.447936   -5.185786    5.055244
  33 C     6.0000    0    12.011   18.796123   -4.341514   -1.293064
  34 C     6.0000    0    12.011   19.378707   -3.998301   -3.825883
  35 C     6.0000    0    12.011   21.261214   -5.645859   -4.628884
  36 C     6.0000    0    12.011   22.120265   -7.262085   -2.694277
  37 S    16.0000    0    32.060   20.621447   -6.730052    0.115632
  38 C     6.0000    0    12.011   23.981418   -8.892106   -3.708077
  39 C     6.0000    0    12.011   24.311289   -8.303891   -6.283887
  40 C     6.0000    0    12.011   22.630491   -6.232033   -6.939792
  41 C     6.0000    0    12.011   22.402099   -5.077808   -9.231860
  42 C     6.0000    0    12.011   20.681522   -3.084014   -9.653439
  43 N     7.0000    0    14.007   19.280290   -1.469338  -10.001621
  44 C     6.0000    0    12.011   23.888387   -5.799645  -11.325072
  45 N     7.0000    0    14.007   25.112098   -6.371004  -13.019363
  46 C     6.0000    0    12.011   26.064520   -9.853580   -7.479971
  47 C     6.0000    0    12.011   27.088771  -11.628959   -5.845452
  48 S    16.0000    0    32.060   25.846087  -11.348335   -2.769526
  49 C     6.0000    0    12.011   28.848389  -13.560694   -6.393151
  50 S    16.0000    0    32.060   29.532527  -15.861114   -4.158475
  51 C     6.0000    0    12.011   31.475127  -17.577193   -6.211813
  52 C     6.0000    0    12.011   31.622904  -16.297225   -8.498023
  53 C     6.0000    0    12.011   30.184860  -14.027437   -8.626808
  54 C     6.0000    0    12.011   30.519285  -12.780369  -10.969369
  55 C     6.0000    0    12.011   32.152859  -14.034391  -12.512028
  56 C     6.0000    0    12.011   33.001780  -13.366713  -15.065067
  57 O     8.0000    0    15.999   34.499710  -14.599778  -16.261263
  58 O     8.0000    0    15.999   31.920933  -11.234157  -15.879841
  59 C     6.0000    0    12.011   32.610664  -10.442211  -18.352245
  60 S    16.0000    0    32.060   33.354725  -16.823117  -11.215279
  61 C     6.0000    0    12.011   32.652937  -19.793351   -5.341387
  62 C     6.0000    0    12.011   33.689319  -21.731132   -6.697038
  63 C     6.0000    0    12.011   35.555311  -23.429354   -5.443092
  64 O     8.0000    0    15.999   36.021109  -23.525257   -3.207035
  65 C     6.0000    0    12.011   36.746443  -24.861369   -7.515800
  66 C     6.0000    0    12.011   38.714139  -26.526048   -7.422183
  67 C     6.0000    0    12.011   39.580975  -27.646108   -9.686585
  68 C     6.0000    0    12.011   38.394567  -27.000539  -12.017184
  69 C     6.0000    0    12.011   39.280641  -28.109412  -14.267848
  70 C     6.0000    0    12.011   41.246580  -29.783407  -14.168883
  71 C     6.0000    0    12.011   42.433460  -30.447494  -11.896639
  72 C     6.0000    0    12.011   41.600488  -29.383616   -9.694201
  73 F     9.0000    0    18.998   42.093064  -30.848929  -16.316254
  74 C     6.0000    0    12.011   36.347163  -25.280794  -12.055243
  75 C     6.0000    0    12.011   35.526209  -24.242843   -9.835401
  76 C     6.0000    0    12.011   33.452329  -22.504201   -9.294183
  77 C     6.0000    0    12.011   31.419437  -22.071283  -10.850883
  78 C     6.0000    0    12.011   29.196685  -20.844492  -10.055913
  79 N     7.0000    0    14.007   27.337118  -19.902539   -9.451768
  80 C     6.0000    0    12.011   31.215649  -23.021910  -13.331413
  81 N     7.0000    0    14.007   30.945758  -23.740837  -15.359354
  82 H     1.0000    0     1.008    8.308370    5.971572   15.051763
  83 H     1.0000    0     1.008    0.834012    8.757444   13.866054
  84 H     1.0000    0     1.008    1.249109    8.022700    9.251910
  85 H     1.0000    0     1.008   10.859349    4.524080   11.476647
  86 H     1.0000    0     1.008    3.762577    6.543366    5.606685
  87 H     1.0000    0     1.008   10.666502    2.213644   -0.192393
  88 H     1.0000    0     1.008   12.241249   -1.163391    7.064420
  89 H     1.0000    0     1.008   17.593142   -9.311323   12.660995
  90 H     1.0000    0     1.008   15.141298   -7.199309   13.679368
  91 H     1.0000    0     1.008   18.366721   -6.249910   13.856190
  92 H     1.0000    0     1.008   18.448697   -2.611205   -4.983227
  93 H     1.0000    0     1.008   26.538596   -9.744618   -9.447251
  94 H     1.0000    0     1.008   29.657267  -11.030520  -11.525364
  95 H     1.0000    0     1.008   31.540002   -8.728267  -18.716282
  96 H     1.0000    0     1.008   32.138270  -11.904575  -19.728741
  97 H     1.0000    0     1.008   34.638491  -10.071598  -18.445711
  98 H     1.0000    0     1.008   32.877077  -19.947892   -3.307512
  99 H     1.0000    0     1.008   39.601384  -26.985346   -5.643119
 100 H     1.0000    0     1.008   38.407663  -27.645805  -16.050748
 101 H     1.0000    0     1.008   43.975137  -31.779865  -11.934773
 102 H     1.0000    0     1.008   42.485787  -29.864911   -7.920182
 103 H     1.0000    0     1.008   35.492213  -24.812218  -13.844776

--------------------------------
INTERNAL COORDINATES (ANGSTROEM)
--------------------------------
 C      0   0   0     0.000000000000     0.00000000     0.00000000
 C      1   0   0     1.367389059851     0.00000000     0.00000000
 F      2   1   0     1.344806305644   119.49657154     0.00000000
 C      2   1   3     1.401572922577   122.43369700   180.00537575
 C      4   2   1     1.367223996023   118.94060883     0.00000000
 C      5   4   2     1.409897692352   121.00637287     0.00000000
 C      1   2   3     1.408098001774   119.38786261   180.09894724
 C      7   1   2     1.414850733222   120.70833296   179.58448832
 C      8   7   1     1.368077577077   119.26739980   180.04811205
 C      9   8   7     1.425201495579   120.26033556   359.14811243
 C     10   9   8     1.364922414938   121.67376270     1.27569934
 C     10   9   8     1.474395141541   109.24387917   182.34986627
 O     12  10   9     1.209277832469   128.27669425   183.18530911
 C     12  10   9     1.491204074766   105.14902647     5.68975725
 C     14  12  10     1.443728603790   108.04113929   348.12864290
 C     15  14  12     1.372640332862   126.67476742   204.27463142
 C     16  15  14     1.409834685167   123.91274295   175.00581528
 N     17  16  15     1.147540492619   176.79111244   175.59359233
 C     16  15  14     1.407506437250   124.03516466   358.98606884
 N     19  16  15     1.148481333327   176.93415145   144.13258206
 C     14  12  10     1.365619421362   118.94968872   165.46540353
 C     21  14  12     1.406721182076   128.90555391   200.02938470
 S     22  21  14     1.744843780199   119.59489230   201.53617348
 C     23  22  21     1.741170686578    93.38010682   178.76846533
 C     24  23  22     1.385437656086   109.44297588     1.96594630
 C     22  21  14     1.398912982926   130.58795136    23.23385592
 C     26  22  21     1.413333293035   135.67062549     3.38075782
 C     27  26  22     1.364293305598   112.12802357   180.14010709
 C     28  27  26     1.467274513273   125.16123917   178.09938241
 O     29  28  27     1.205739296283   123.68137971     2.49195476
 O     29  28  27     1.335938674229   111.08489100   182.36410352
 C     31  29  28     1.421081262279   117.23494505   179.02198297
 S     25  24  23     1.731890719099   133.02444614   179.04789582
 C     24  23  22     1.411964889436   121.38357500   181.48010893
 C     34  24  23     1.387248876229   126.92272442     1.72789457
 C     35  34  24     1.390346187034   111.86486207   181.29878753
 C     36  35  34     1.409327110184   112.93265433     0.07947241
 S     37  36  35     1.708603638882   112.48490861   359.53966262
 C     37  36  35     1.414859148361   108.60669385   178.72682345
 C     39  37  36     1.409004176750   108.56434186     0.23417787
 C     40  39  37     1.453830831321   108.76950156     0.35730737
 C     41  40  39     1.363386310552   127.19088089   178.85724887
 C     42  41  40     1.411358881752   122.18877562   179.53126520
 N     43  42  41     1.146235191835   179.77941085   240.68973436
 C     42  41  40     1.411191582635   121.84508580   359.14859574
 N     45  42  41     1.146562328223   179.39131627   270.83443570
 C     40  39  37     1.390636048756   113.12151087   181.60489935
 C     47  40  39     1.387283245304   112.10074347   359.95158149
 S     39  37  36     1.705800407902   139.18331725   182.17082163
 C     48  47  40     1.412797198575   128.28670932   177.66881476
 S     50  48  47     1.735326741971   120.34947379   189.33510001
 C     51  50  48     1.749875066655    93.63847059   175.04039870
 C     52  51  50     1.388715739451   108.71837931     2.31546037
 C     50  48  47     1.399393559010   129.35114982     6.93628520
 C     54  50  48     1.415448806633   136.10673872     6.93363259
 C     55  54  50     1.361634957725   112.16136374   177.37490584
 C     56  55  54     1.466925572550   128.99047362   180.27479646
 O     57  56  55     1.206144281999   123.66249101   178.73229674
 O     57  56  55     1.336618658107   111.67835119   358.99371292
 C     59  57  56     1.421477858463   115.84516899   180.53573079
 S     53  52  51     1.727684220510   132.55999102   174.99425146
 C     52  51  50     1.405683525051   119.33814551   179.50995401
 C     62  52  51     1.366351424122   129.20147838   161.76242609
 C     63  62  52     1.490952521980   118.98047382   159.77848718
 O     64  63  62     1.209735828807   126.55196070    11.41437096
 C     64  63  62     1.474647427489   105.17649166   193.51428531
 C     66  64  63     1.364799995347   129.10871152   174.42253897
 C     67  66  64     1.413354520671   119.17765293   181.34258598
 C     68  67  66     1.425444164743   119.34629398     0.42876943
 C     69  68  67     1.408070075032   119.03097651   179.52708370
 C     70  69  68     1.367384960938   119.40192887     0.25732178
 C     71  70  69     1.401349991151   122.43292240   359.90464371
 C     72  71  70     1.367328027541   118.92347474   359.94140913
 F     71  70  69     1.345305044107   119.50495560   179.87093781
 C     69  68  67     1.415075565367   120.24234231   359.15433456
 C     75  69  68     1.367593714741   119.29314291     0.16555342
 C     63  62  52     1.439416624435   132.81410777   343.11158214
 C     77  63  62     1.374168409839   126.38409021   333.33309927
 C     78  77  63     1.407812605214   123.49143867   357.81748562
 N     79  78  77     1.148479509264   177.70231465   221.93889140
 C     78  77  63     1.409862595326   123.95384209   184.51778693
 N     81  78  77     1.147502333592   176.88388396   180.97411869
 H      1   2   3     1.078748472537   120.44433518   359.86057540
 H      4   2   1     1.078449560063   119.13162767   179.97516976
 H      5   4   2     1.079593737940   120.29369726   179.94100937
 H      8   7   1     1.078569126667   118.78158032     0.95177076
 H     11  10   9     1.079670696972   120.54992710   179.53547521
 H     21  14  12     1.086036540361   114.85741260    16.81917874
 H     27  26  22     1.074021280609   125.91025880     1.75336672
 H     32  31  29     1.087967024362   106.89902650   146.90647076
 H     32  31  29     1.091596094258   110.05939236    26.37591451
 H     32  31  29     1.091634578923   109.43854675   266.13574968
 H     35  34  24     1.075206907344   122.54670588     1.13659901
 H     47  40  39     1.072392052423   124.48579390   178.08346821
 H     55  54  50     1.073352837794   126.09617950   358.67487669
 H     60  59  57     1.086611455351   105.98439400   178.77370269
 H     60  59  57     1.091748574993   110.26278436    58.88984296
 H     60  59  57     1.091975289281   110.30172897   298.71383048
 H     62  52  51     1.085879799471   115.85170392   337.70390865
 H     67  66  64     1.079732474366   120.57710332     1.34252033
 H     70  69  68     1.078762944951   120.15780676   179.98197019
 H     72  71  70     1.078461454295   119.13904862   179.96349760
 H     73  72  71     1.079643283404   120.27455648   180.03894238
 H     75  69  68     1.078396558971   118.78868561   179.51026413

---------------------------
INTERNAL COORDINATES (A.U.)
---------------------------
 C      0   0   0     0.000000000000     0.00000000     0.00000000
 C      1   0   0     2.583990841638     0.00000000     0.00000000
 F      2   1   0     2.541315620838   119.49657154     0.00000000
 C      2   1   3     2.648588980389   122.43369700   180.00537575
 C      4   2   1     2.583678916208   118.94060883     0.00000000
 C      5   4   2     2.664320515393   121.00637287     0.00000000
 C      1   2   3     2.660919593075   119.38786261   180.09894724
 C      7   1   2     2.673680406168   120.70833296   179.58448832
 C      8   7   1     2.585291950633   119.26739980   180.04811205
 C      9   8   7     2.693240512299   120.26033556   359.14811243
 C     10   9   8     2.579329558283   121.67376270     1.27569934
 C     10   9   8     2.786203030697   109.24387917   182.34986627
 O     12  10   9     2.285203923188   128.27669425   183.18530911
 C     12  10   9     2.817967311096   105.14902647     5.68975725
 C     14  12  10     2.728251672871   108.04113929   348.12864290
 C     15  14  12     2.593914309484   126.67476742   204.27463142
 C     16  15  14     2.664201449069   123.91274295   175.00581528
 N     17  16  15     2.168537258635   176.79111244   175.59359233
 C     16  15  14     2.659801698134   124.03516466   358.98606884
 N     19  16  15     2.170315189908   176.93415145   144.13258206
 C     14  12  10     2.580646709537   118.94968872   165.46540353
 C     21  14  12     2.658317780909   128.90555391   200.02938470
 S     22  21  14     3.297276891052   119.59489230   201.53617348
 C     23  22  21     3.290335750045    93.38010682   178.76846533
 C     24  23  22     2.618097745624   109.44297588     1.96594630
 C     22  21  14     2.643562422918   130.58795136    23.23385592
 C     26  22  21     2.670812859788   135.67062549     3.38075782
 C     27  26  22     2.578140713923   112.12802357   180.14010709
 C     28  27  26     2.772746993368   125.16123917   178.09938241
 O     29  28  27     2.278517058881   123.68137971     2.49195476
 O     29  28  27     2.524558226006   111.08489100   182.36410352
 C     31  29  28     2.685454399754   117.23494505   179.02198297
 S     25  24  23     3.272799152976   133.02444614   179.04789582
 C     24  23  22     2.668226951746   121.38357500   181.48010893
 C     34  24  23     2.621520455664   126.92272442     1.72789457
 C     35  34  24     2.627373524836   111.86486207   181.29878753
 C     36  35  34     2.663242271359   112.93265433     0.07947241
 S     37  36  35     3.228792948908   112.48490861   359.53966262
 C     37  36  35     2.673696308475   108.60669385   178.72682345
 C     39  37  36     2.662632015609   108.56434186     0.23417787
 C     40  39  37     2.747342116248   108.76950156     0.35730737
 C     41  40  39     2.576426741680   127.19088089   178.85724887
 C     42  41  40     2.667081763188   122.18877562   179.53126520
 N     43  42  41     2.166070597630   179.77941085   240.68973436
 C     42  41  40     2.666765613675   121.84508580   359.14859574
 N     45  42  41     2.166688795812   179.39131627   270.83443570
 C     40  39  37     2.627921284107   113.12151087   181.60489935
 C     47  40  39     2.621585403801   112.10074347   359.95158149
 S     39  37  36     3.223495610067   139.18331725   182.17082163
 C     48  47  40     2.669799788077   128.28670932   177.66881476
 S     50  48  47     3.279292295195   120.34947379   189.33510001
 C     51  50  48     3.306784644555    93.63847059   175.04039870
 C     52  51  50     2.624292425429   108.71837931     2.31546037
 C     50  48  47     2.644470580103   129.35114982     6.93628520
 C     54  50  48     2.674810601123   136.10673872     6.93363259
 C     55  54  50     2.573117164475   112.16136374   177.37490584
 C     56  55  54     2.772087590964   128.99047362   180.27479646
 O     57  56  55     2.279282370974   123.66249101   178.73229674
 O     57  56  55     2.525843209312   111.67835119   358.99371292
 C     59  57  56     2.686203857928   115.84516899   180.53573079
 S     53  52  51     3.264850022662   132.55999102   174.99425146
 C     52  51  50     2.656356893312   119.33814551   179.50995401
 C     62  52  51     2.582029994284   129.20147838   161.76242609
 C     63  62  52     2.817491945222   118.98047382   159.77848718
 O     64  63  62     2.286069410838   126.55196070    11.41437096
 C     64  63  62     2.786679782046   105.17649166   193.51428531
 C     66  64  63     2.579098218783   129.10871152   174.42253897
 C     67  66  64     2.670852974207   119.17765293   181.34258598
 C     68  67  66     2.693699090560   119.34629398     0.42876943
 C     69  68  67     2.660866819180   119.03097651   179.52708370
 C     70  69  68     2.583983095816   119.40192887     0.25732178
 C     71  70  69     2.648167701049   122.43292240   359.90464371
 C     72  71  70     2.583875507288   118.92347474   359.94140913
 F     71  70  69     2.542258099945   119.50495560   179.87093781
 C     69  68  67     2.674105277348   120.24234231   359.15433456
 C     75  69  68     2.584377583333   119.29314291     0.16555342
 C     63  62  52     2.720103212796   132.81410777   343.11158214
 C     77  63  62     2.596801956482   126.38409021   333.33309927
 C     78  77  63     2.660380271737   123.49143867   357.81748562
 N     79  78  77     2.170311742930   177.70231465   221.93889140
 C     78  77  63     2.664254191626   123.95384209   184.51778693
 N     81  78  77     2.168465148525   176.88388396   180.97411869
 H      1   2   3     2.038539180480   120.44433518   359.86057540
 H      4   2   1     2.037974317767   119.13162767   179.97516976
 H      5   4   2     2.040136500604   120.29369726   179.94100937
 H      8   7   1     2.038200265904   118.78158032     0.95177076
 H     11  10   9     2.040281932097   120.54992710   179.53547521
 H     21  14  12     2.052311632714   114.85741260    16.81917874
 H     27  26  22     2.029606082354   125.91025880     1.75336672
 H     32  31  29     2.055959718782   106.89902650   146.90647076
 H     32  31  29     2.062817667006   110.05939236    26.37591451
 H     32  31  29     2.062890392483   109.43854675   266.13574968
 H     35  34  24     2.031846592180   122.54670588     1.13659901
 H     47  40  39     2.026527287273   124.48579390   178.08346821
 H     55  54  50     2.028342908497   126.09617950   358.67487669
 H     60  59  57     2.053398064595   105.98439400   178.77370269
 H     60  59  57     2.063105813836   110.26278436    58.88984296
 H     60  59  57     2.063534241750   110.30172897   298.71383048
 H     62  52  51     2.052015435358   115.85170392   337.70390865
 H     67  66  64     2.040398674452   120.57710332     1.34252033
 H     70  69  68     2.038566529380   120.15780676   179.98197019
 H     72  71  70     2.037996794608   119.13904862   179.96349760
 H     73  72  71     2.040230127962   120.27455648   180.03894238
 H     75  69  68     2.037874160218   118.78868561   179.51026413

---------------------
BASIS SET INFORMATION
---------------------
There are 6 groups of distinct atoms

 Group   1 Type C   : 7s4p1d contracted to 3s2p1d pattern {511/31/1}
 Group   2 Type F   : 7s4p1d contracted to 3s2p1d pattern {511/31/1}
 Group   3 Type O   : 7s4p1d contracted to 3s2p1d pattern {511/31/1}
 Group   4 Type N   : 7s4p1d contracted to 3s2p1d pattern {511/31/1}
 Group   5 Type S   : 10s7p1d contracted to 4s3p1d pattern {5311/511/1}
 Group   6 Type H   : 4s1p contracted to 2s1p pattern {31/1}

Atom   0C    basis set group =>   1
Atom   1C    basis set group =>   1
Atom   2F    basis set group =>   2
Atom   3C    basis set group =>   1
Atom   4C    basis set group =>   1
Atom   5C    basis set group =>   1
Atom   6C    basis set group =>   1
Atom   7C    basis set group =>   1
Atom   8C    basis set group =>   1
Atom   9C    basis set group =>   1
Atom  10C    basis set group =>   1
Atom  11C    basis set group =>   1
Atom  12O    basis set group =>   3
Atom  13C    basis set group =>   1
Atom  14C    basis set group =>   1
Atom  15C    basis set group =>   1
Atom  16C    basis set group =>   1
Atom  17N    basis set group =>   4
Atom  18C    basis set group =>   1
Atom  19N    basis set group =>   4
Atom  20C    basis set group =>   1
Atom  21C    basis set group =>   1
Atom  22S    basis set group =>   5
Atom  23C    basis set group =>   1
Atom  24C    basis set group =>   1
Atom  25C    basis set group =>   1
Atom  26C    basis set group =>   1
Atom  27C    basis set group =>   1
Atom  28C    basis set group =>   1
Atom  29O    basis set group =>   3
Atom  30O    basis set group =>   3
Atom  31C    basis set group =>   1
Atom  32S    basis set group =>   5
Atom  33C    basis set group =>   1
Atom  34C    basis set group =>   1
Atom  35C    basis set group =>   1
Atom  36C    basis set group =>   1
Atom  37S    basis set group =>   5
Atom  38C    basis set group =>   1
Atom  39C    basis set group =>   1
Atom  40C    basis set group =>   1
Atom  41C    basis set group =>   1
Atom  42C    basis set group =>   1
Atom  43N    basis set group =>   4
Atom  44C    basis set group =>   1
Atom  45N    basis set group =>   4
Atom  46C    basis set group =>   1
Atom  47C    basis set group =>   1
Atom  48S    basis set group =>   5
Atom  49C    basis set group =>   1
Atom  50S    basis set group =>   5
Atom  51C    basis set group =>   1
Atom  52C    basis set group =>   1
Atom  53C    basis set group =>   1
Atom  54C    basis set group =>   1
Atom  55C    basis set group =>   1
Atom  56C    basis set group =>   1
Atom  57O    basis set group =>   3
Atom  58O    basis set group =>   3
Atom  59C    basis set group =>   1
Atom  60S    basis set group =>   5
Atom  61C    basis set group =>   1
Atom  62C    basis set group =>   1
Atom  63C    basis set group =>   1
Atom  64O    basis set group =>   3
Atom  65C    basis set group =>   1
Atom  66C    basis set group =>   1
Atom  67C    basis set group =>   1
Atom  68C    basis set group =>   1
Atom  69C    basis set group =>   1
Atom  70C    basis set group =>   1
Atom  71C    basis set group =>   1
Atom  72C    basis set group =>   1
Atom  73F    basis set group =>   2
Atom  74C    basis set group =>   1
Atom  75C    basis set group =>   1
Atom  76C    basis set group =>   1
Atom  77C    basis set group =>   1
Atom  78C    basis set group =>   1
Atom  79N    basis set group =>   4
Atom  80C    basis set group =>   1
Atom  81N    basis set group =>   4
Atom  82H    basis set group =>   6
Atom  83H    basis set group =>   6
Atom  84H    basis set group =>   6
Atom  85H    basis set group =>   6
Atom  86H    basis set group =>   6
Atom  87H    basis set group =>   6
Atom  88H    basis set group =>   6
Atom  89H    basis set group =>   6
Atom  90H    basis set group =>   6
Atom  91H    basis set group =>   6
Atom  92H    basis set group =>   6
Atom  93H    basis set group =>   6
Atom  94H    basis set group =>   6
Atom  95H    basis set group =>   6
Atom  96H    basis set group =>   6
Atom  97H    basis set group =>   6
Atom  98H    basis set group =>   6
Atom  99H    basis set group =>   6
Atom 100H    basis set group =>   6
Atom 101H    basis set group =>   6
Atom 102H    basis set group =>   6
Atom 103H    basis set group =>   6
---------------------------------
AUXILIARY/J BASIS SET INFORMATION
---------------------------------
There are 6 groups of distinct atoms

 Group   1 Type C   : 12s5p4d2f1g contracted to 6s4p3d1f1g pattern {711111/2111/211/2/1}
 Group   2 Type F   : 12s5p4d2f1g contracted to 6s4p3d1f1g pattern {711111/2111/211/2/1}
 Group   3 Type O   : 12s5p4d2f1g contracted to 6s4p3d1f1g pattern {711111/2111/211/2/1}
 Group   4 Type N   : 12s5p4d2f1g contracted to 6s4p3d1f1g pattern {711111/2111/211/2/1}
 Group   5 Type S   : 14s5p5d2f1g contracted to 8s4p3d1f1g pattern {71111111/2111/311/2/1}
 Group   6 Type H   : 5s2p1d contracted to 3s1p1d pattern {311/2/1}

Atom   0C    basis set group =>   1
Atom   1C    basis set group =>   1
Atom   2F    basis set group =>   2
Atom   3C    basis set group =>   1
Atom   4C    basis set group =>   1
Atom   5C    basis set group =>   1
Atom   6C    basis set group =>   1
Atom   7C    basis set group =>   1
Atom   8C    basis set group =>   1
Atom   9C    basis set group =>   1
Atom  10C    basis set group =>   1
Atom  11C    basis set group =>   1
Atom  12O    basis set group =>   3
Atom  13C    basis set group =>   1
Atom  14C    basis set group =>   1
Atom  15C    basis set group =>   1
Atom  16C    basis set group =>   1
Atom  17N    basis set group =>   4
Atom  18C    basis set group =>   1
Atom  19N    basis set group =>   4
Atom  20C    basis set group =>   1
Atom  21C    basis set group =>   1
Atom  22S    basis set group =>   5
Atom  23C    basis set group =>   1
Atom  24C    basis set group =>   1
Atom  25C    basis set group =>   1
Atom  26C    basis set group =>   1
Atom  27C    basis set group =>   1
Atom  28C    basis set group =>   1
Atom  29O    basis set group =>   3
Atom  30O    basis set group =>   3
Atom  31C    basis set group =>   1
Atom  32S    basis set group =>   5
Atom  33C    basis set group =>   1
Atom  34C    basis set group =>   1
Atom  35C    basis set group =>   1
Atom  36C    basis set group =>   1
Atom  37S    basis set group =>   5
Atom  38C    basis set group =>   1
Atom  39C    basis set group =>   1
Atom  40C    basis set group =>   1
Atom  41C    basis set group =>   1
Atom  42C    basis set group =>   1
Atom  43N    basis set group =>   4
Atom  44C    basis set group =>   1
Atom  45N    basis set group =>   4
Atom  46C    basis set group =>   1
Atom  47C    basis set group =>   1
Atom  48S    basis set group =>   5
Atom  49C    basis set group =>   1
Atom  50S    basis set group =>   5
Atom  51C    basis set group =>   1
Atom  52C    basis set group =>   1
Atom  53C    basis set group =>   1
Atom  54C    basis set group =>   1
Atom  55C    basis set group =>   1
Atom  56C    basis set group =>   1
Atom  57O    basis set group =>   3
Atom  58O    basis set group =>   3
Atom  59C    basis set group =>   1
Atom  60S    basis set group =>   5
Atom  61C    basis set group =>   1
Atom  62C    basis set group =>   1
Atom  63C    basis set group =>   1
Atom  64O    basis set group =>   3
Atom  65C    basis set group =>   1
Atom  66C    basis set group =>   1
Atom  67C    basis set group =>   1
Atom  68C    basis set group =>   1
Atom  69C    basis set group =>   1
Atom  70C    basis set group =>   1
Atom  71C    basis set group =>   1
Atom  72C    basis set group =>   1
Atom  73F    basis set group =>   2
Atom  74C    basis set group =>   1
Atom  75C    basis set group =>   1
Atom  76C    basis set group =>   1
Atom  77C    basis set group =>   1
Atom  78C    basis set group =>   1
Atom  79N    basis set group =>   4
Atom  80C    basis set group =>   1
Atom  81N    basis set group =>   4
Atom  82H    basis set group =>   6
Atom  83H    basis set group =>   6
Atom  84H    basis set group =>   6
Atom  85H    basis set group =>   6
Atom  86H    basis set group =>   6
Atom  87H    basis set group =>   6
Atom  88H    basis set group =>   6
Atom  89H    basis set group =>   6
Atom  90H    basis set group =>   6
Atom  91H    basis set group =>   6
Atom  92H    basis set group =>   6
Atom  93H    basis set group =>   6
Atom  94H    basis set group =>   6
Atom  95H    basis set group =>   6
Atom  96H    basis set group =>   6
Atom  97H    basis set group =>   6
Atom  98H    basis set group =>   6
Atom  99H    basis set group =>   6
Atom 100H    basis set group =>   6
Atom 101H    basis set group =>   6
Atom 102H    basis set group =>   6
Atom 103H    basis set group =>   6


           ************************************************************
           *        Program running with 6 parallel MPI-processes     *
           *              working on a common directory               *
           ************************************************************
------------------------------------------------------------------------------
                           ORCA GTO INTEGRAL CALCULATION
                           -- RI-GTO INTEGRALS CHOSEN --
------------------------------------------------------------------------------

                         BASIS SET STATISTICS AND STARTUP INFO

Gaussian basis set:
 # of primitive gaussian shells          ... 1130
 # of primitive gaussian functions       ... 2194
 # of contracted shells                  ...  570
 # of contracted basis functions         ... 1282
 Highest angular momentum                ...    2
 Maximum contraction depth               ...    5
Auxiliary gaussian basis set:
 # of primitive gaussian shells          ... 2162
 # of primitive gaussian functions       ... 6134
 # of contracted shells                  ... 1352
 # of contracted aux-basis functions     ... 4272
 Highest angular momentum                ...    4
 Maximum contraction depth               ...    7
Ratio of auxiliary to basis functions    ...  3.33
Integral package used                  ... LIBINT
 One Electron integrals                  ... done
 Ordering auxiliary basis shells         ... done
 Integral threshhold             Thresh  ...  2.500e-11
 Primitive cut-off               TCut    ...  2.500e-12
 Pre-screening matrix                    ... done
 Shell pair data                         ... 
 Ordering of the shell pairs             ... done (   0.010 sec) 47249 of 162735 pairs
 Determination of significant pairs      ... done (   0.000 sec)
 Creation of shell pair data             ... done (   0.006 sec)
 Storage of shell pair data              ... done (   0.093 sec)
 Shell pair data done in (   0.109 sec)
 Computing two index integrals           ... done
 Cholesky decomposition of the V-matrix  ... done


Timings:
 Total evaluation time                   ...   4.266 sec (  0.071 min)
 One electron matrix time                ...   1.231 sec (  0.021 min) = 28.9%
 Schwartz matrix evaluation time         ...   0.819 sec (  0.014 min) = 19.2%
 Two index repulsion integral time       ...   0.858 sec (  0.014 min) = 20.1%
 Cholesky decomposition of V             ...   1.229 sec (  0.020 min) = 28.8%
 Three index repulsion integral time     ...   0.000 sec (  0.000 min) =  0.0%



           ************************************************************
           *        Program running with 6 parallel MPI-processes     *
           *              working on a common directory               *
           ************************************************************
-------------------------------------------------------------------------------
                                 ORCA SCF
-------------------------------------------------------------------------------

------------
SCF SETTINGS
------------
Hamiltonian:
 Density Functional     Method          .... DFT(GTOs)
 Exchange Functional    Exchange        .... WB88
 Correlation Functional Correlation     .... LYP
 LDA part of GGA corr.  LDAOpt          .... VWN-5
 Gradients option       PostSCFGGA      .... off
 Hybrid DFT is turned on
   Fraction HF Exchange ScalHFX         ....  0.190000
   Scaling of DF-GGA-X  ScalDFX         ....  0.350000
   Scaling of DF-GGA-C  ScalDFC         ....  0.810000
   Scaling of DF-LDA-C  ScalLDAC        ....  1.000000
   Perturbative correction              ....  0.000000
   Density functional embedding theory  .... OFF
 Long-range corrected/Screened/Range-Separated Hybrid DFT is turned on
   Amount of maximum screened exact exchange              ....  0.460000
   Range separation parameter mu (erf(mu*r12)/r12)        ....  0.330000
 RI-approximation to the Coulomb term is turned on
   Number of auxiliary basis functions  .... 4272
   RIJ-COSX (HFX calculated with COS-X)).... on


General Settings:
 Integral files         IntName         .... xtbopt
 Hartree-Fock type      HFTyp           .... RHF
 Total Charge           Charge          ....    0
 Multiplicity           Mult            ....    1
 Number of Electrons    NEL             ....  598
 Basis Dimension        Dim             .... 1282
 Nuclear Repulsion      ENuc            ....  13020.6291435920 Eh

Convergence Acceleration:
 DIIS                   CNVDIIS         .... on
   Start iteration      DIISMaxIt       ....    12
   Startup error        DIISStart       ....  0.200000
   # of expansion vecs  DIISMaxEq       ....     5
   Bias factor          DIISBfac        ....   1.050
   Max. coefficient     DIISMaxC        ....  10.000
 Newton-Raphson         CNVNR           .... off
 SOSCF                  CNVSOSCF        .... on
   Start iteration      SOSCFMaxIt      ....   150
   Startup grad/error   SOSCFStart      ....  0.003300
 Level Shifting         CNVShift        .... on
   Level shift para.    LevelShift      ....    0.2500
   Turn off err/grad.   ShiftErr        ....    0.0010
 Zerner damping         CNVZerner       .... off
 Static damping         CNVDamp         .... on
   Fraction old density DampFac         ....    0.7000
   Max. Damping (<1)    DampMax         ....    0.9800
   Min. Damping (>=0)   DampMin         ....    0.0000
   Turn off err/grad.   DampErr         ....    0.1000
 Fernandez-Rico         CNVRico         .... off

SCF Procedure:
 Maximum # iterations   MaxIter         ....   125
 SCF integral mode      SCFMode         .... Direct
   Integral package                     .... LIBINT
 Reset frequency        DirectResetFreq ....    20
 Integral Threshold     Thresh          ....  2.500e-11 Eh
 Primitive CutOff       TCut            ....  2.500e-12 Eh

Convergence Tolerance:
 Convergence Check Mode ConvCheckMode   .... Total+1el-Energy
 Convergence forced     ConvForced      .... 1
 Energy Change          TolE            ....  1.000e-08 Eh
 1-El. energy change                    ....  1.000e-05 Eh
 Orbital Gradient       TolG            ....  1.000e-05
 Orbital Rotation angle TolX            ....  1.000e-05
 DIIS Error             TolErr          ....  5.000e-07


Diagonalization of the overlap matrix:
Smallest eigenvalue                        ... 1.980e-04
Time for diagonalization                   ...    0.248 sec
Threshold for overlap eigenvalues          ... 1.000e-08
Number of eigenvalues below threshold      ... 0
Time for construction of square roots      ...    0.181 sec
Total time needed                          ...    0.433 sec

-------------------
DFT GRID GENERATION
-------------------

General Integration Accuracy     IntAcc      ...  4.670
Radial Grid Type                 RadialGrid  ... Gauss-Chebyshev
Angular Grid (max. acc.)         AngularGrid ... Lebedev-302
Angular grid pruning method      GridPruning ... 3 (G Style)
Weight generation scheme         WeightScheme... Becke
Basis function cutoff            BFCut       ...    1.0000e-11
Integration weight cutoff        WCut        ...    1.0000e-14
Grids for H and He will be reduced by one unit

# of grid points (after initial pruning)     ... 587976 (   0.0 sec)
# of grid points (after weights+screening)   ... 505764 (   7.7 sec)
nearest neighbour list constructed           ...    0.0 sec
Grid point re-assignment to atoms done       ...    0.1 sec
Grid point division into batches done        ...    1.9 sec
Reduced shell lists constructed in    2.9 sec

Total number of grid points                  ...   505764
Total number of batches                      ...     7955
Average number of points per batch           ...       63
Average number of grid points per atom       ...     4863
Average number of shells per batch           ...    91.74 (16.10%)
Average number of basis functions per batch  ...   195.78 (15.27%)
Average number of large shells per batch     ...    58.52 (63.79%)
Average number of large basis fcns per batch ...   126.35 (64.54%)
Maximum spatial batch extension              ...  19.11, 22.88, 16.53 au
Average spatial batch extension              ...   0.33,  0.35,  0.31 au

Time for grid setup =   10.993 sec

------------------------------
INITIAL GUESS: MODEL POTENTIAL
------------------------------
Loading Hartree-Fock densities                     ... done
Calculating cut-offs                               ... done
Setting up the integral package                    ... done
Initializing the effective Hamiltonian             ... done
Starting the Coulomb interaction                   ... done (   1.5 sec)
Reading the grid                                   ... done
Mapping shells                                     ... done
Starting the XC term evaluation                    ... done (   1.5 sec)
  promolecular density results
     # of electrons  =    597.989640638
     EX              =   -581.332681065
     EC              =    -20.859089836
     EX+EC           =   -602.191770901
Transforming the Hamiltonian                       ... done (   0.1 sec)
Diagonalizing the Hamiltonian                      ... done (   0.2 sec)
Back transforming the eigenvectors                 ... done (   0.1 sec)
Now organizing SCF variables                       ... done
                      ------------------
                      INITIAL GUESS DONE (  14.6 sec)
                      ------------------
--------------------
COSX GRID GENERATION
--------------------

General Integration Accuracy     IntAcc      ...  3.340
Radial Grid Type                 RadialGrid  ... Gauss-Chebyshev
Angular Grid (max. acc.)         AngularGrid ... Lebedev-50
Angular grid pruning method      GridPruning ... 3 (G Style)
Weight generation scheme         WeightScheme... Becke
Basis function cutoff            BFCut       ...    1.0000e-11
Integration weight cutoff        WCut        ...    1.0000e-14
Grids for H and He will be reduced by one unit

# of grid points (after initial pruning)     ...  55272 (   0.0 sec)
# of grid points (after weights+screening)   ...  49770 (   0.7 sec)
nearest neighbour list constructed           ...    0.0 sec
Grid point re-assignment to atoms done       ...    0.0 sec
Grid point division into batches done        ...    0.0 sec
Reduced shell lists constructed in    0.1 sec

Total number of grid points                  ...    49770
Total number of batches                      ...      832
Average number of points per batch           ...       59
Average number of grid points per atom       ...      479
Average number of shells per batch           ...   108.36 (19.01%)
Average number of basis functions per batch  ...   233.59 (18.22%)
Average number of large shells per batch     ...    69.41 (64.06%)
Average number of large basis fcns per batch ...   152.13 (65.13%)
Maximum spatial batch extension              ...  19.07, 21.26, 13.39 au
Average spatial batch extension              ...   0.64,  0.79,  0.54 au

Overlap Fitting                  UseSFitting ... on
Constructing numerical overlap ... done (      0.1 sec)
Inverting numerical overlap    ... done (      0.1 sec)
Obtaining analytic overlap     ... done (      0.0 sec)
Final contraction and storage  ... done (      0.1 sec)


General Integration Accuracy     IntAcc      ...  3.670
Radial Grid Type                 RadialGrid  ... Gauss-Chebyshev
Angular Grid (max. acc.)         AngularGrid ... Lebedev-50
Angular grid pruning method      GridPruning ... 3 (G Style)
Weight generation scheme         WeightScheme... Becke
Basis function cutoff            BFCut       ...    1.0000e-11
Integration weight cutoff        WCut        ...    1.0000e-14
Grids for H and He will be reduced by one unit

# of grid points (after initial pruning)     ...  68612 (   0.0 sec)
# of grid points (after weights+screening)   ...  61519 (   0.9 sec)
nearest neighbour list constructed           ...    0.0 sec
Grid point re-assignment to atoms done       ...    0.0 sec
Grid point division into batches done        ...    0.0 sec
Reduced shell lists constructed in    0.2 sec

Total number of grid points                  ...    61519
Total number of batches                      ...     1015
Average number of points per batch           ...       60
Average number of grid points per atom       ...      592
Average number of shells per batch           ...   106.79 (18.73%)
Average number of basis functions per batch  ...   229.60 (17.91%)
Average number of large shells per batch     ...    67.98 (63.65%)
Average number of large basis fcns per batch ...   148.88 (64.84%)
Maximum spatial batch extension              ...  20.85, 19.51, 14.72 au
Average spatial batch extension              ...   0.61,  0.75,  0.53 au

Overlap Fitting                  UseSFitting ... on
Constructing numerical overlap ... done (      0.1 sec)
Inverting numerical overlap    ... done (      0.1 sec)
Obtaining analytic overlap     ... done (      0.0 sec)
Final contraction and storage  ... done (      0.1 sec)


General Integration Accuracy     IntAcc      ...  4.010
Radial Grid Type                 RadialGrid  ... Gauss-Chebyshev
Angular Grid (max. acc.)         AngularGrid ... Lebedev-110
Angular grid pruning method      GridPruning ... 3 (G Style)
Weight generation scheme         WeightScheme... Becke
Basis function cutoff            BFCut       ...    1.0000e-11
Integration weight cutoff        WCut        ...    1.0000e-14
Grids for H and He will be reduced by one unit

# of grid points (after initial pruning)     ... 135736 (   0.0 sec)
# of grid points (after weights+screening)   ... 120263 (   1.8 sec)
nearest neighbour list constructed           ...    0.0 sec
Grid point re-assignment to atoms done       ...    0.0 sec
Grid point division into batches done        ...    0.1 sec
Reduced shell lists constructed in    0.4 sec

Total number of grid points                  ...   120263
Total number of batches                      ...     1939
Average number of points per batch           ...       62
Average number of grid points per atom       ...     1156
Average number of shells per batch           ...   101.72 (17.85%)
Average number of basis functions per batch  ...   218.72 (17.06%)
Average number of large shells per batch     ...    65.82 (64.70%)
Average number of large basis fcns per batch ...   143.30 (65.52%)
Maximum spatial batch extension              ...  16.22, 24.01, 17.64 au
Average spatial batch extension              ...   0.51,  0.61,  0.46 au

Overlap Fitting                  UseSFitting ... on
Constructing numerical overlap ... done (      0.2 sec)
Inverting numerical overlap    ... done (      0.1 sec)
Obtaining analytic overlap     ... done (      0.0 sec)
Final contraction and storage  ... done (      0.1 sec)

Time for X-Grid setup             =    5.294 sec
--------------
SCF ITERATIONS
--------------
ITER       Energy         Delta-E        Max-DP      RMS-DP      [F,P]     Damp
               ***  Starting incremental Fock matrix formation  ***
  0  -5737.8998437400   0.000000000000 0.08092359  0.00103721  0.2415998 0.7000
  1  -5738.6365206033  -0.736676863273 0.05696093  0.00072609  0.1008373 0.7000
                               ***Turning on DIIS***
  2  -5738.9396503766  -0.303129773371 0.08112265  0.00127785  0.0336227 0.0000
  3  -5739.4374960021  -0.497845625503 0.05198750  0.00056969  0.0597271 0.0000
  4  -5739.5378205767  -0.100324574547 0.01734400  0.00019933  0.0204561 0.0000
  5  -5739.5463244361  -0.008503859459 0.00954767  0.00008751  0.0083003 0.0000
  6  -5739.5481425211  -0.001818084975 0.00436331  0.00004768  0.0020436 0.0000
  7  -5739.5489592404  -0.000816719326 0.00495112  0.00006312  0.0008416 0.0000
               *** Restarting incremental Fock matrix formation ***
                                   *** Resetting DIIS ***
                      *** Initiating the SOSCF procedure ***
                           *** Shutting down DIIS ***
                      *** Re-Reading the Fockian *** 
                      *** Removing any level shift *** 
ITER      Energy       Delta-E        Grad      Rot      Max-DP    RMS-DP
  8  -5739.54955042  -0.0005911834  0.000789  0.000789  0.002465  0.000021
               *** Restarting incremental Fock matrix formation ***
  9  -5739.54961010  -0.0000596731  0.000970  0.006311  0.002472  0.000025
 10  -5739.54958962   0.0000204772  0.000899  0.001742  0.001673  0.000015
 11  -5739.54970201  -0.0001123951  0.000119  0.001363  0.000866  0.000008
 12  -5739.54970399  -0.0000019742  0.000161  0.000648  0.000407  0.000004
 13  -5739.54970853  -0.0000045437  0.000049  0.000164  0.000248  0.000002
 14  -5739.54970853   0.0000000059  0.000035  0.000099  0.000103  0.000001
 15  -5739.54970880  -0.0000002719  0.000005  0.000022  0.000052  0.000000
 16  -5739.54970874   0.0000000539  0.000006  0.000017  0.000018  0.000000
                  ***Gradient check signals convergence***
              ***Rediagonalizing the Fockian in SOSCF/NRSCF***

               *****************************************************
               *                     SUCCESS                       *
               *           SCF CONVERGED AFTER  17 CYCLES          *
               *****************************************************

Setting up the final grid:

General Integration Accuracy     IntAcc      ...  5.010
Radial Grid Type                 RadialGrid  ... Gauss-Chebyshev
Angular Grid (max. acc.)         AngularGrid ... Lebedev-434
Angular grid pruning method      GridPruning ... 3 (G Style)
Weight generation scheme         WeightScheme... Becke
Basis function cutoff            BFCut       ...    1.0000e-11
Integration weight cutoff        WCut        ...    1.0000e-14
Grids for H and He will be reduced by one unit

# of grid points (after initial pruning)     ... 1031168 (   0.1 sec)
# of grid points (after weights+screening)   ... 884146 (  13.0 sec)
nearest neighbour list constructed           ...    0.0 sec
Grid point re-assignment to atoms done       ...    0.1 sec
Grid point division into batches done        ...    5.8 sec
Reduced shell lists constructed in    7.4 sec

Total number of grid points                  ...   884146
Total number of batches                      ...    13870
Average number of points per batch           ...       63
Average number of grid points per atom       ...     8501
Average number of shells per batch           ...    88.84 (15.59%)
Average number of basis functions per batch  ...   189.26 (14.76%)
Average number of large shells per batch     ...    56.53 (63.63%)
Average number of large basis fcns per batch ...   121.80 (64.36%)
Maximum spatial batch extension              ...  17.25, 22.20, 14.13 au
Average spatial batch extension              ...   0.26,  0.28,  0.25 au

Final grid set up in   21.1 sec
Final integration                            ... done (   2.9 sec)
Change in XC energy                          ...    -0.000036352
Integrated number of electrons               ...   597.999963783
Previous integrated no of electrons          ...   598.000028242
Old exchange energy                            =   -158.832925131 Eh
New exchange energy                            =   -158.830158131 Eh
Exchange energy change after final integration =      0.002767000 Eh
Total energy after final integration           =  -5739.546978115 Eh
Final COS-X integration done in                =    67.191 sec

----------------
TOTAL SCF ENERGY
----------------

Total Energy       :        -5739.54697811 Eh         -156181.01336 eV

Components:
Nuclear Repulsion  :        13020.62914359 Eh          354309.33174 eV
Electronic Energy  :       -18760.17612171 Eh         -510490.34510 eV
One Electron Energy:       -33802.66852679 Eh         -919817.37323 eV
Two Electron Energy:        15042.49240508 Eh          409327.02813 eV

Virial components:
Potential Energy   :       -11443.94415975 Eh         -311405.55214 eV
Kinetic Energy     :         5704.39718164 Eh          155224.53878 eV
Virial Ratio       :            2.00616188


DFT components:
N(Alpha)           :      298.999981891429 electrons
N(Beta)            :      298.999981891429 electrons
N(Total)           :      597.999963782859 electrons
E(XC)              :     -452.161037978251 Eh       
DFET-embed. en.    :        0.000000000000 Eh       

---------------
SCF CONVERGENCE
---------------

  Last Energy change         ...   -1.7877e-08  Tolerance :   1.0000e-08
  Last MAX-Density change    ...    5.3291e-15  Tolerance :   1.0000e-07
  Last RMS-Density change    ...    3.4932e-17  Tolerance :   5.0000e-09
  Last Orbital Gradient      ...    1.3825e-06  Tolerance :   1.0000e-05
  Last Orbital Rotation      ...    9.9204e-06  Tolerance :   1.0000e-05

             **** THE GBW FILE WAS UPDATED (xtbopt.gbw) ****
             **** DENSITY FILE WAS UPDATED (xtbopt.scfp) ****
             **** ENERGY FILE WAS UPDATED (xtbopt.en.tmp) ****
             **** THE GBW FILE WAS UPDATED (xtbopt.gbw) ****
             **** DENSITY FILE WAS UPDATED (xtbopt.scfp) ****
----------------
ORBITAL ENERGIES
----------------

  NO   OCC          E(Eh)            E(eV) 
   0   2.0000     -89.006317     -2421.9850 
   1   2.0000     -89.004542     -2421.9367 
   2   2.0000     -88.989569     -2421.5293 
   3   2.0000     -88.986604     -2421.4486 
   4   2.0000     -88.980975     -2421.2954 
   5   2.0000     -88.976211     -2421.1658 
   6   2.0000     -24.786047      -674.4626 
   7   2.0000     -24.781697      -674.3442 
   8   2.0000     -19.277967      -524.5801 
   9   2.0000     -19.265978      -524.2539 
  10   2.0000     -19.219291      -522.9835 
  11   2.0000     -19.215674      -522.8851 
  12   2.0000     -19.211470      -522.7707 
  13   2.0000     -19.210713      -522.7501 
  14   2.0000     -14.442665      -393.0049 
  15   2.0000     -14.440857      -392.9557 
  16   2.0000     -14.416709      -392.2986 
  17   2.0000     -14.415692      -392.2709 
  18   2.0000     -14.411473      -392.1561 
  19   2.0000     -14.410291      -392.1240 
  20   2.0000     -10.421246      -283.5765 
  21   2.0000     -10.410667      -283.2887 
  22   2.0000     -10.377811      -282.3946 
  23   2.0000     -10.369846      -282.1779 
  24   2.0000     -10.367008      -282.1006 
  25   2.0000     -10.365034      -282.0469 
  26   2.0000     -10.364437      -282.0307 
  27   2.0000     -10.362341      -281.9736 
  28   2.0000     -10.349196      -281.6159 
  29   2.0000     -10.349001      -281.6106 
  30   2.0000     -10.347269      -281.5635 
  31   2.0000     -10.346515      -281.5430 
  32   2.0000     -10.344874      -281.4983 
  33   2.0000     -10.344440      -281.4865 
  34   2.0000     -10.343332      -281.4564 
  35   2.0000     -10.342641      -281.4376 
  36   2.0000     -10.342040      -281.4212 
  37   2.0000     -10.340613      -281.3824 
  38   2.0000     -10.340154      -281.3699 
  39   2.0000     -10.333784      -281.1966 
  40   2.0000     -10.333049      -281.1766 
  41   2.0000     -10.332415      -281.1593 
  42   2.0000     -10.331835      -281.1435 
  43   2.0000     -10.329471      -281.0792 
  44   2.0000     -10.327821      -281.0343 
  45   2.0000     -10.327742      -281.0321 
  46   2.0000     -10.325726      -280.9773 
  47   2.0000     -10.324000      -280.9303 
  48   2.0000     -10.319994      -280.8213 
  49   2.0000     -10.319957      -280.8203 
  50   2.0000     -10.319292      -280.8022 
  51   2.0000     -10.318738      -280.7871 
  52   2.0000     -10.318473      -280.7799 
  53   2.0000     -10.318378      -280.7774 
  54   2.0000     -10.317468      -280.7526 
  55   2.0000     -10.317078      -280.7420 
  56   2.0000     -10.314691      -280.6770 
  57   2.0000     -10.313653      -280.6488 
  58   2.0000     -10.313063      -280.6327 
  59   2.0000     -10.309210      -280.5279 
  60   2.0000     -10.308245      -280.5016 
  61   2.0000     -10.306796      -280.4622 
  62   2.0000     -10.306493      -280.4539 
  63   2.0000     -10.306157      -280.4448 
  64   2.0000     -10.301928      -280.3297 
  65   2.0000     -10.301513      -280.3184 
  66   2.0000     -10.301215      -280.3103 
  67   2.0000     -10.300749      -280.2976 
  68   2.0000     -10.300601      -280.2936 
  69   2.0000     -10.298487      -280.2361 
  70   2.0000     -10.298019      -280.2233 
  71   2.0000     -10.296130      -280.1719 
  72   2.0000     -10.295969      -280.1676 
  73   2.0000     -10.295733      -280.1611 
  74   2.0000     -10.294747      -280.1343 
  75   2.0000     -10.293458      -280.0992 
  76   2.0000     -10.291965      -280.0586 
  77   2.0000     -10.290617      -280.0219 
  78   2.0000     -10.289888      -280.0021 
  79   2.0000     -10.289100      -279.9807 
  80   2.0000     -10.284999      -279.8691 
  81   2.0000     -10.284236      -279.8483 
  82   2.0000      -8.100656      -220.4300 
  83   2.0000      -8.099296      -220.3930 
  84   2.0000      -8.084459      -219.9893 
  85   2.0000      -8.081986      -219.9220 
  86   2.0000      -8.076041      -219.7603 
  87   2.0000      -8.070392      -219.6065 
  88   2.0000      -6.069963      -165.1721 
  89   2.0000      -6.068611      -165.1353 
  90   2.0000      -6.065753      -165.0575 
  91   2.0000      -6.064353      -165.0194 
  92   2.0000      -6.062920      -164.9804 
  93   2.0000      -6.061537      -164.9428 
  94   2.0000      -6.053823      -164.7329 
  95   2.0000      -6.051410      -164.6672 
  96   2.0000      -6.049618      -164.6185 
  97   2.0000      -6.047144      -164.5511 
  98   2.0000      -6.046506      -164.5338 
  99   2.0000      -6.045763      -164.5136 
 100   2.0000      -6.043933      -164.4638 
 101   2.0000      -6.041459      -164.3965 
 102   2.0000      -6.040028      -164.3575 
 103   2.0000      -6.037356      -164.2848 
 104   2.0000      -6.035631      -164.2379 
 105   2.0000      -6.032067      -164.1409 
 106   2.0000      -1.301174       -35.4067 
 107   2.0000      -1.296639       -35.2834 
 108   2.0000      -1.208417       -32.8827 
 109   2.0000      -1.197980       -32.5987 
 110   2.0000      -1.131106       -30.7789 
 111   2.0000      -1.126575       -30.6557 
 112   2.0000      -1.114323       -30.3223 
 113   2.0000      -1.104877       -30.0652 
 114   2.0000      -1.059655       -28.8347 
 115   2.0000      -1.038785       -28.2668 
 116   2.0000      -1.035602       -28.1802 
 117   2.0000      -1.031445       -28.0670 
 118   2.0000      -1.019469       -27.7412 
 119   2.0000      -1.018953       -27.7271 
 120   2.0000      -1.014177       -27.5971 
 121   2.0000      -1.008869       -27.4527 
 122   2.0000      -1.001421       -27.2501 
 123   2.0000      -0.995964       -27.1016 
 124   2.0000      -0.994485       -27.0613 
 125   2.0000      -0.989288       -26.9199 
 126   2.0000      -0.979579       -26.6557 
 127   2.0000      -0.977805       -26.6074 
 128   2.0000      -0.972699       -26.4685 
 129   2.0000      -0.970978       -26.4216 
 130   2.0000      -0.964784       -26.2531 
 131   2.0000      -0.935937       -25.4681 
 132   2.0000      -0.929426       -25.2910 
 133   2.0000      -0.923788       -25.1375 
 134   2.0000      -0.912464       -24.8294 
 135   2.0000      -0.904370       -24.6092 
 136   2.0000      -0.893446       -24.3119 
 137   2.0000      -0.890335       -24.2272 
 138   2.0000      -0.886373       -24.1194 
 139   2.0000      -0.882603       -24.0168 
 140   2.0000      -0.880155       -23.9502 
 141   2.0000      -0.873608       -23.7721 
 142   2.0000      -0.868547       -23.6344 
 143   2.0000      -0.862792       -23.4778 
 144   2.0000      -0.860083       -23.4040 
 145   2.0000      -0.851475       -23.1698 
 146   2.0000      -0.843411       -22.9504 
 147   2.0000      -0.835423       -22.7330 
 148   2.0000      -0.830470       -22.5982 
 149   2.0000      -0.825523       -22.4636 
 150   2.0000      -0.819634       -22.3034 
 151   2.0000      -0.810703       -22.0603 
 152   2.0000      -0.807815       -21.9818 
 153   2.0000      -0.796935       -21.6857 
 154   2.0000      -0.787833       -21.4380 
 155   2.0000      -0.770510       -20.9667 
 156   2.0000      -0.762617       -20.7519 
 157   2.0000      -0.756417       -20.5831 
 158   2.0000      -0.741303       -20.1719 
 159   2.0000      -0.734963       -19.9994 
 160   2.0000      -0.727198       -19.7881 
 161   2.0000      -0.725544       -19.7431 
 162   2.0000      -0.719984       -19.5918 
 163   2.0000      -0.717329       -19.5195 
 164   2.0000      -0.709772       -19.3139 
 165   2.0000      -0.704844       -19.1798 
 166   2.0000      -0.703949       -19.1554 
 167   2.0000      -0.697780       -18.9876 
 168   2.0000      -0.693424       -18.8690 
 169   2.0000      -0.683313       -18.5939 
 170   2.0000      -0.679069       -18.4784 
 171   2.0000      -0.674791       -18.3620 
 172   2.0000      -0.665098       -18.0982 
 173   2.0000      -0.658698       -17.9241 
 174   2.0000      -0.651236       -17.7210 
 175   2.0000      -0.648354       -17.6426 
 176   2.0000      -0.647355       -17.6154 
 177   2.0000      -0.643726       -17.5167 
 178   2.0000      -0.638641       -17.3783 
 179   2.0000      -0.635265       -17.2865 
 180   2.0000      -0.630454       -17.1555 
 181   2.0000      -0.629644       -17.1335 
 182   2.0000      -0.628703       -17.1079 
 183   2.0000      -0.624582       -16.9957 
 184   2.0000      -0.619172       -16.8485 
 185   2.0000      -0.607789       -16.5388 
 186   2.0000      -0.601595       -16.3702 
 187   2.0000      -0.597449       -16.2574 
 188   2.0000      -0.597108       -16.2481 
 189   2.0000      -0.593219       -16.1423 
 190   2.0000      -0.586796       -15.9675 
 191   2.0000      -0.585714       -15.9381 
 192   2.0000      -0.581571       -15.8254 
 193   2.0000      -0.576345       -15.6831 
 194   2.0000      -0.573826       -15.6146 
 195   2.0000      -0.567702       -15.4480 
 196   2.0000      -0.566998       -15.4288 
 197   2.0000      -0.564682       -15.3658 
 198   2.0000      -0.562033       -15.2937 
 199   2.0000      -0.561118       -15.2688 
 200   2.0000      -0.558598       -15.2002 
 201   2.0000      -0.557553       -15.1718 
 202   2.0000      -0.555142       -15.1062 
 203   2.0000      -0.554089       -15.0775 
 204   2.0000      -0.549199       -14.9445 
 205   2.0000      -0.547722       -14.9043 
 206   2.0000      -0.543635       -14.7931 
 207   2.0000      -0.541890       -14.7456 
 208   2.0000      -0.539708       -14.6862 
 209   2.0000      -0.536973       -14.6118 
 210   2.0000      -0.535293       -14.5661 
 211   2.0000      -0.533250       -14.5105 
 212   2.0000      -0.532019       -14.4770 
 213   2.0000      -0.523890       -14.2558 
 214   2.0000      -0.523184       -14.2366 
 215   2.0000      -0.523010       -14.2318 
 216   2.0000      -0.520445       -14.1620 
 217   2.0000      -0.519004       -14.1228 
 218   2.0000      -0.516335       -14.0502 
 219   2.0000      -0.515270       -14.0212 
 220   2.0000      -0.514207       -13.9923 
 221   2.0000      -0.513640       -13.9769 
 222   2.0000      -0.511451       -13.9173 
 223   2.0000      -0.507970       -13.8226 
 224   2.0000      -0.505740       -13.7619 
 225   2.0000      -0.503288       -13.6952 
 226   2.0000      -0.502491       -13.6735 
 227   2.0000      -0.498915       -13.5762 
 228   2.0000      -0.496916       -13.5218 
 229   2.0000      -0.493783       -13.4365 
 230   2.0000      -0.492145       -13.3920 
 231   2.0000      -0.491257       -13.3678 
 232   2.0000      -0.490799       -13.3553 
 233   2.0000      -0.486304       -13.2330 
[...]
  35   4.303     288.1   0.004074   0.003321  -4.682426  -3.812177     0.09 ( 104-> 118)    0.08 ( 110-> 114)    0.06 ( 100-> 118)
  36   4.331     286.3   0.073976   0.064757  -28.792211  -28.114781     0.18 ( 111-> 116)    0.14 ( 106-> 115)    0.10 ( 110-> 114)
  37   4.390     282.4   0.027641   0.025568  -22.961174  -19.730347     0.30 ( 111-> 116)    0.10 ( 106-> 115)    0.08 ( 112-> 117)
  38   4.409     281.2   0.028122   0.026570  -4.342914  -5.964639     0.72 ( 112-> 123)    0.06 ( 111-> 123)    0.04 ( 112-> 121)
  39   4.462     277.9   0.111018   0.096125  185.414325  170.055076     0.15 (  96-> 113)    0.10 ( 102-> 114)    0.10 (  98-> 113)
  40   4.476     277.0   0.099904   0.086890  -31.779037  -24.938822     0.24 ( 102-> 114)    0.10 ( 106-> 115)    0.08 ( 101-> 114)
  41   4.504     275.3   0.210700   0.187138  -19.777885  -14.258472     0.18 ( 111-> 117)    0.11 ( 110-> 117)    0.08 ( 108-> 117)
  42   4.534     273.5   0.039746   0.030087  -41.418707  -36.286659     0.15 ( 111-> 117)    0.10 (  98-> 113)    0.08 ( 104-> 113)
  43   4.583     270.5   0.075024   0.066262  -185.474251  -177.509671     0.17 ( 107-> 116)    0.15 ( 101-> 114)    0.06 ( 101-> 113)
  44   4.596     269.8   0.011577   0.009708  -2.533271  -8.964531     0.26 ( 112-> 121)    0.08 ( 100-> 113)    0.06 ( 111-> 117)
  45   4.630     267.8   0.095392   0.080941  24.434816  25.180182     0.16 ( 112-> 121)    0.09 ( 104-> 115)    0.08 ( 101-> 113)
  46   4.647     266.8   0.005344   0.004687  100.415354  94.650100     0.11 ( 101-> 113)    0.11 ( 101-> 114)    0.10 ( 107-> 116)
  47   4.667     265.6   0.065442   0.053602  -39.509414  -35.852448     0.64 ( 108-> 114)    0.09 ( 110-> 118)    0.03 ( 110-> 117)
  48   4.700     263.8   0.087356   0.075138  -138.127484  -131.319946     0.13 ( 108-> 117)    0.12 ( 108-> 118)    0.09 ( 100-> 113)
  49   4.733     262.0   0.010712   0.009262  182.459293  168.452511     0.42 ( 109-> 115)    0.07 ( 100-> 115)    0.06 ( 107-> 116)
  50   4.738     261.7   0.086049   0.070805  -54.928985  -48.425287     0.22 ( 109-> 115)    0.14 ( 100-> 115)    0.08 ( 102-> 115)
  51   4.742     261.5   0.003619   0.003509   7.606378   7.714069     0.47 (  97-> 113)    0.14 (  97-> 115)    0.09 (  96-> 113)
  52   4.747     261.2   0.019750   0.015587  -69.924609  -57.352954     0.16 ( 102-> 115)    0.12 ( 101-> 115)    0.09 ( 108-> 118)
  53   4.781     259.3   0.005739   0.004254   3.257653   3.373201     0.29 (  99-> 114)    0.28 (  99-> 113)    0.05 (  98-> 113)
  54   4.815     257.5   0.064628   0.055858  29.393001  33.179410     0.43 ( 111-> 118)    0.15 ( 112-> 118)    0.06 ( 106-> 118)
  55   4.853     255.5   0.028755   0.023520  -14.458007  -16.837989     0.59 ( 105-> 114)    0.06 ( 105-> 113)    0.05 ( 105-> 117)
  56   4.912     252.4   0.150119   0.114203  243.602412  219.578968     0.33 ( 109-> 119)    0.15 ( 112-> 122)    0.09 ( 111-> 119)
  57   4.937     251.2   0.050467   0.042519  -112.269356  -101.922551     0.43 ( 112-> 122)    0.11 ( 109-> 119)    0.09 ( 111-> 122)

-----------------------------------------------------------------------------
         ABSORPTION SPECTRUM VIA TRANSITION ELECTRIC DIPOLE MOMENTS
-----------------------------------------------------------------------------
State   Energy  Wavelength   fosc         T2         TX        TY        TZ  
        (cm-1)    (nm)                  (au**2)     (au)      (au)      (au) 
-----------------------------------------------------------------------------
   0   10762.3    929.2   0.562090786  17.19397   2.56191  -2.71565  -1.80440
   1   15953.0    626.8   1.463377684  30.19882  -3.10391   3.86032   2.37959
   2   18736.5    533.7   0.288812317   5.07462   1.09351  -1.96734  -0.09193
   3   19300.8    518.1   0.108242826   1.84629   0.77480  -1.07061  -0.31587
   4   24395.6    409.9   0.003521113   0.04752  -0.07276   0.19765  -0.05619
   5   24695.8    404.9   0.064462299   0.85933  -0.77874  -0.36337   0.34763
   6   24992.0    400.1   0.016094289   0.21201  -0.17783   0.30888   0.29150
   7   25852.0    386.8   0.199545091   2.54111  -1.49152   0.19730   0.52684
   8   26089.9    383.3   0.026097043   0.32930   0.29744  -0.46464  -0.15792
   9   26352.1    379.5   0.053591446   0.66951  -0.81536  -0.02355  -0.06438
  10   27185.9    367.8   0.056561144   0.68494   0.76179  -0.13254  -0.29503
  11   27371.1    365.3   0.021756846   0.26169  -0.31141   0.06951  -0.39985
  12   27978.1    357.4   0.034902900   0.41069   0.13783  -0.60823   0.14749
  13   28189.3    354.7   0.056504085   0.65989  -0.30576   0.64401  -0.38942
  14   28282.5    353.6   0.068384320   0.79600   0.74034  -0.47362  -0.15354
  15   29119.0    343.4   0.051965588   0.58751   0.70592  -0.13687  -0.26543
  16   29321.6    341.0   0.044498064   0.49961   0.00415   0.39748  -0.58447
  17   29506.7    338.9   0.008243998   0.09198   0.26791   0.04712  -0.13410
  18   30069.5    332.6   0.066006012   0.72266   0.65652  -0.51184   0.17221
  19   30447.6    328.4   0.111563292   1.20627   0.71026  -0.76713   0.33662
  20   30835.9    324.3   0.071541263   0.76379  -0.00326  -0.49270   0.72182
  21   31066.4    321.9   0.024817665   0.26299  -0.33482   0.07156   0.38180
  22   31374.8    318.7   0.243699414   2.55711   0.01671   0.86792  -1.34296
  23   31794.0    314.5   0.236460710   2.44844  -0.45191   0.73263  -1.30670
  24   31943.1    313.1   0.192459844   1.98353  -1.03991   0.45595   0.83320
  25   32198.8    310.6   0.108621716   1.11059  -0.15546  -0.39415   0.96492
  26   32745.6    305.4   0.158704006   1.59555   0.85823  -0.39878  -0.83664
  27   32788.0    305.0   0.115430916   1.15900  -0.39411   0.47354   0.88286
  28   32950.7    303.5   0.036238204   0.36206  -0.50235   0.18140   0.27711
  29   33487.1    298.6   0.347005741   3.41142  -1.35776   0.98497  -0.77313
  30   33620.2    297.4   0.347092833   3.39876  -0.97964   0.94602   1.24262
  31   33868.1    295.3   0.484540619   4.70994  -1.72056   0.79236   1.05915
  32   34360.5    291.0   0.059450554   0.56960   0.10798  -0.02003  -0.74669
  33   34512.9    289.7   0.062430668   0.59551   0.60603  -0.26405  -0.39814
  34   34627.1    288.8   0.008717503   0.08288   0.28720  -0.01479  -0.01343
  35   34705.1    288.1   0.004073868   0.03864   0.09737  -0.16550  -0.04210
  36   34927.8    286.3   0.073975834   0.69726  -0.67491   0.47003   0.14434
  37   35405.6    282.4   0.027640647   0.25701   0.29682  -0.36231   0.19402
  38   35562.6    281.2   0.028121893   0.26033  -0.08092   0.35248  -0.35992
  39   35987.1    277.9   0.111017659   1.01560  -0.22687   0.72643  -0.66062
  40   36101.4    277.0   0.099903634   0.91103   0.59228  -0.13836  -0.73559
  41   36324.1    275.3   0.210699976   1.90961  -1.25307   0.58237   0.01608
  42   36567.2    273.5   0.039745785   0.35783   0.43600  -0.12971  -0.38847
  43   36965.1    270.5   0.075023764   0.66816   0.76678  -0.25656   0.11997
  44   37070.0    269.8   0.011577322   0.10282   0.31480   0.05810  -0.01856
  45   37346.4    267.8   0.095392154   0.84089   0.81384  -0.38233  -0.17994
  46   37482.1    266.8   0.005343916   0.04694  -0.11692  -0.17038   0.06509
  47   37643.6    265.6   0.065441941   0.57232   0.55355  -0.37840   0.35030
  48   37907.7    263.8   0.087355732   0.75865  -0.45012   0.15793  -0.72876
  49   38173.2    262.0   0.010712433   0.09239  -0.17388  -0.21527   0.12574
  50   38213.2    261.7   0.086049266   0.74133  -0.75953   0.35273  -0.20005
  51   38247.9    261.5   0.003618866   0.03115  -0.04943   0.09497   0.14031
  52   38287.1    261.2   0.019750290   0.16982   0.34066  -0.15450   0.17293
  53   38561.3    259.3   0.005739352   0.04900   0.17672  -0.03140   0.12955
  54   38834.1    257.5   0.064628206   0.54788   0.24997  -0.50401   0.48101
  55   39141.6    255.5   0.028755226   0.24185   0.05019   0.20519  -0.44411
  56   39614.2    252.4   0.150119358   1.24756  -1.09821   0.17704  -0.10071
  57   39816.3    251.2   0.050466674   0.41727  -0.04999   0.25901  -0.58965

-----------------------------------------------------------------------------
         ABSORPTION SPECTRUM VIA TRANSITION VELOCITY DIPOLE MOMENTS
-----------------------------------------------------------------------------
State   Energy  Wavelength   fosc         P2         PX        PY        PZ  
        (cm-1)    (nm)                  (au**2)     (au)      (au)      (au) 
-----------------------------------------------------------------------------
   0   10762.3    929.2   0.876515564   0.06447   0.15692  -0.16761  -0.10842
   1   15953.0    626.8   1.782948861   0.19440  -0.24869   0.31127   0.18885
   2   18736.5    533.7   0.331394148   0.04244   0.09835  -0.18081  -0.00838
   3   19300.8    518.1   0.120018856   0.01583   0.07114  -0.09892  -0.03142
   4   24395.6    409.9   0.003840187   0.00064  -0.00742   0.02306  -0.00733
   5   24695.8    404.9   0.064520149   0.01089  -0.08649  -0.04405   0.03833
   6   24992.0    400.1   0.016113404   0.00275  -0.02097   0.03597   0.03191
   7   25852.0    386.8   0.199802882   0.03530  -0.17681   0.02302   0.05924
   8   26089.9    383.3   0.025649390   0.00457   0.03488  -0.05508  -0.01796
   9   26352.1    379.5   0.049103982   0.00884  -0.09357  -0.00512  -0.00790
  10   27185.9    367.8   0.050985226   0.00947   0.09057  -0.01505  -0.03231
  11   27371.1    365.3   0.019285138   0.00361  -0.03649   0.00621  -0.04731
  12   27978.1    357.4   0.042518714   0.00813   0.02629  -0.08495   0.01494
  13   28189.3    354.7   0.058374160   0.01125  -0.03990   0.08463  -0.04991
  14   28282.5    353.6   0.060860397   0.01176   0.08937  -0.05832  -0.01941
  15   29119.0    343.4   0.049818500   0.00991   0.09202  -0.02053  -0.03202
  16   29321.6    341.0   0.039701936   0.00796   0.00035   0.04893  -0.07458
  17   29506.7    338.9   0.008577500   0.00173   0.03486   0.00739  -0.02144
  18   30069.5    332.6   0.058587342   0.01204   0.08541  -0.06477   0.02343
  19   30447.6    328.4   0.105571936   0.02197   0.09785  -0.10249   0.04348
  20   30835.9    324.3   0.064293657   0.01355   0.00108  -0.06643   0.09558
  21   31066.4    321.9   0.026511064   0.00563  -0.05009   0.01184   0.05459
  22   31374.8    318.7   0.214346004   0.04596   0.00758   0.11533  -0.18056
  23   31794.0    314.5   0.216835811   0.04712  -0.06346   0.09971  -0.18207
  24   31943.1    313.1   0.174312575   0.03806  -0.14229   0.06348   0.11738
  25   32198.8    310.6   0.096456542   0.02123  -0.02136  -0.05182   0.13448
  26   32745.6    305.4   0.152431555   0.03411   0.12642  -0.06146  -0.11982
  27   32788.0    305.0   0.104506445   0.02342  -0.05472   0.06717   0.12615
  28   32950.7    303.5   0.038319411   0.00863  -0.07567   0.02685   0.04671
  29   33487.1    298.6   0.310586310   0.07108  -0.19697   0.14224  -0.10979
  30   33620.2    297.4   0.298411214   0.06857  -0.13952   0.13481   0.17586
  31   33868.1    295.3   0.417717480   0.09669  -0.24765   0.11340   0.15000
  32   34360.5    291.0   0.054761721   0.01286   0.01574  -0.00080  -0.11230
  33   34512.9    289.7   0.055242168   0.01303   0.08947  -0.03858  -0.05947
  34   34627.1    288.8   0.008382655   0.00198   0.04441  -0.00329  -0.00102
  35   34705.1    288.1   0.003321493   0.00079   0.01369  -0.02353  -0.00685
  36   34927.8    286.3   0.064756982   0.01546  -0.10099   0.06855   0.02367
  37   35405.6    282.4   0.025567710   0.00619   0.04663  -0.05650   0.02864
  38   35562.6    281.2   0.026569791   0.00646  -0.01288   0.05514  -0.05702
  39   35987.1    277.9   0.096124935   0.02364  -0.03464   0.11050  -0.10116
  40   36101.4    277.0   0.086890458   0.02144   0.08947  -0.01926  -0.11429
  41   36324.1    275.3   0.187137776   0.04646  -0.19547   0.09080  -0.00220
  42   36567.2    273.5   0.030087012   0.00752   0.06318  -0.01901  -0.05627
  43   36965.1    270.5   0.066262448   0.01674   0.12157  -0.03939   0.02025
  44   37070.0    269.8   0.009707993   0.00246   0.04788   0.01117  -0.00651
  45   37346.4    267.8   0.080940916   0.02066   0.12670  -0.05896  -0.03363
  46   37482.1    266.8   0.004686982   0.00120  -0.01982  -0.02679   0.00949
  47   37643.6    265.6   0.053601966   0.01379   0.08551  -0.05853   0.05526
  48   37907.7    263.8   0.075137995   0.01947  -0.06876   0.02230  -0.11934
  49   38173.2    262.0   0.009262406   0.00242  -0.02850  -0.03413   0.02095
  50   38213.2    261.7   0.070804664   0.01849  -0.12049   0.05541  -0.03007
  51   38247.9    261.5   0.003509334   0.00092  -0.00799   0.01602   0.02443
  52   38287.1    261.2   0.015586975   0.00408   0.05151  -0.02365   0.02944
  53   38561.3    259.3   0.004253650   0.00112   0.02585  -0.00454   0.02079
  54   38834.1    257.5   0.055858355   0.01483   0.04068  -0.08380   0.07842
  55   39141.6    255.5   0.023520406   0.00629   0.00869   0.03169  -0.07220
  56   39614.2    252.4   0.114202773   0.03092  -0.17335   0.02741  -0.01085
  57   39816.3    251.2   0.042518991   0.01157  -0.00854   0.04390  -0.09783

-------------------------------------------------------------------
                             CD SPECTRUM
-------------------------------------------------------------------
State   Energy Wavelength       R         MX        MY        MZ   
        (cm-1)   (nm)       (1e40*cgs)   (au)      (au)      (au)  
-------------------------------------------------------------------
   0   10762.3    929.2      3.99959  -0.56540  -2.19061   2.50354
   1   15953.0    626.8    210.63538  -0.08643   2.73019  -4.91735
   2   18736.5    533.7    -207.32857   0.75304  -0.26361   5.03135
   3   19300.8    518.1     -0.93680   0.22983  -0.52915   2.34471
   4   24395.6    409.9    -11.44311  -0.06364  -0.00829  -0.81066
   5   24695.8    404.9     31.35807   0.26659   0.76219   1.01122
   6   24992.0    400.1      7.87090   0.26382   0.66596  -0.65926
   7   25852.0    386.8    -254.51434  -0.14872   0.11969   1.58359
   8   26089.9    383.3     10.50529   0.41241  -0.13642   1.46041
   9   26352.1    379.5     50.86878   0.19915  -0.05342   0.84929
  10   27185.9    367.8    115.83363  -0.69841  -1.39960   0.49104
  11   27371.1    365.3      4.93792  -1.16454  -1.98110   0.61495
  12   27978.1    357.4    -64.19389   0.02221   0.02904   1.94544
  13   28189.3    354.7      7.90512  -0.62937  -1.30124  -1.57167
  14   28282.5    353.6    -40.56648   0.14840  -0.55482   1.30617
  15   29119.0    343.4    -42.82192  -0.01291  -0.21556  -0.60760
  16   29321.6    341.0     52.93298  -0.17947  -1.35474  -0.53837
  17   29506.7    338.9      3.99441  -0.63689  -0.59017  -1.35343
  18   30069.5    332.6     55.92785   0.51441   1.17937   0.16648
  19   30447.6    328.4    -105.37294   0.80737   1.06628   2.05444
  20   30835.9    324.3     12.69524   1.26151   2.51961   1.65092
  21   31066.4    321.9    -66.26886  -0.14526   0.69798   0.47813
  22   31374.8    318.7    380.84324  -1.84009  -4.74723  -1.88784
  23   31794.0    314.5    -173.61704  -1.13916  -3.41133  -2.08232
  24   31943.1    313.1    -15.07913  -0.13241   1.65824  -0.99593
  25   32198.8    310.6    -66.25433   0.81965   2.52087   1.45308
  26   32745.6    305.4    126.02373  -1.49235  -2.93662   0.50788
  27   32788.0    305.0     53.87484   0.31738   2.02346  -1.20252
  28   32950.7    303.5    -89.65872  -1.36839   0.01979  -1.12100
  29   33487.1    298.6    275.84720  -1.78459  -3.80259  -0.19683
  30   33620.2    297.4    -243.61913  -0.32165   1.65779  -0.68395
  31   33868.1    295.3      5.40336   0.12074   2.98595  -2.05931
  32   34360.5    291.0    145.29714  -0.56473  -2.47422   0.81020
  33   34512.9    289.7    -34.41685   0.12224  -0.97985   0.46920
  34   34627.1    288.8     -8.03972   0.09664   0.26583  -0.76603
  35   34705.1    288.1     -4.68243  -0.55602  -0.55031   0.40553
  36   34927.8    286.3    -28.79221  -0.74535  -0.72321  -0.28386
  37   35405.6    282.4    -22.96117   0.61032   0.86046   1.17516
  38   35562.6    281.2     -4.34291  -0.99353  -1.61779  -1.41216
  39   35987.1    277.9    185.41432  -1.58782  -3.15233  -1.73041
  40   36101.4    277.0    -31.77904  -0.55783  -2.22224  -0.21444
  41   36324.1    275.3    -19.77788  -0.68293  -1.34375   0.66630
  42   36567.2    273.5    -41.41871   0.03887  -0.90022  -0.10810
  43   36965.1    270.5    -185.47425   0.58606  -0.35263   2.05881
  44   37070.0    269.8     -2.53327  -0.06073   0.12442  -1.21958
  45   37346.4    267.8     24.43482  -0.49228  -0.90509   0.27269
  46   37482.1    266.8    100.41535   1.17929   1.63728  -0.14054
  47   37643.6    265.6    -39.50941   1.77364   2.46808   0.34181
  48   37907.7    263.8    -138.12748  -3.18039  -4.49250   0.18676
  49   38173.2    262.0    182.45929   1.28494   2.34876  -0.35786
  50   38213.2    261.7    -54.92899  -0.23271  -0.30627  -0.82130
  51   38247.9    261.5      7.60638   0.79602   1.11478  -0.70417
  52   38287.1    261.2    -69.92461   2.39019   2.80853  -0.48389
  53   38561.3    259.3      3.25765   0.25862   0.70625  -0.28827
  54   38834.1    257.5     29.39300   1.84910   2.72353   1.63359
  55   39141.6    255.5    -14.45801  -1.46823  -2.13136  -1.28878
  56   39614.2    252.4    243.60241   1.36457   2.19613  -0.75821
  57   39816.3    251.2    -112.26936   0.29557  -0.54342  -1.07150

sTD-DFT done

Total run time:        4.265 sec

           *** ORCA-CIS/TD-DFT FINISHED WITHOUT ERROR ***

-------------------------   --------------------
FINAL SINGLE POINT ENERGY     -5739.546978114883
-------------------------   --------------------


                            ***************************************
                            *     ORCA property calculations      *
                            ***************************************

                                    ---------------------
                                    Active property flags
                                    ---------------------
   (+) Dipole Moment


------------------------------------------------------------------------------
                       ORCA ELECTRIC PROPERTIES CALCULATION
------------------------------------------------------------------------------

Dipole Moment Calculation                       ... on
Quadrupole Moment Calculation                   ... off
Polarizability Calculation                      ... off
GBWName                                         ... xtbopt.gbw
Electron density file                           ... xtbopt.scfp
The origin for moment calculation is the CENTER OF MASS  = (22.955024, -9.053790 -2.455744)

-------------
DIPOLE MOMENT
-------------
                                X             Y             Z
Electronic contribution:     -0.01215      -0.66722      -2.51160
Nuclear contribution   :     -0.37461       0.57823       4.49155
                        -----------------------------------------
Total Dipole Moment    :     -0.38676      -0.08899       1.97995
                        -----------------------------------------
Magnitude (a.u.)       :      2.01934
Magnitude (Debye)      :      5.13274



--------------------
Rotational spectrum 
--------------------
 
Rotational constants in cm-1:     0.001946     0.000170     0.000159 
Rotational constants in MHz :    58.332614     5.086633     4.779782 

 Dipole components along the rotational axes: 
x,y,z [a.u.] :    -1.116820     1.674347     0.164287 
x,y,z [Debye]:    -2.838731     4.255853     0.417583 

 

Timings for individual modules:

Sum of individual times         ...      717.719 sec (=  11.962 min)
GTO integral calculation        ...        5.025 sec (=   0.084 min)   0.7 %
SCF iterations                  ...      707.689 sec (=  11.795 min)  98.6 %
CIS module                      ...        5.005 sec (=   0.083 min)   0.7 %
                             ****ORCA TERMINATED NORMALLY****
TOTAL RUN TIME: 0 days 0 hours 11 minutes 58 seconds 772 msec
