
                                 *****************
                                 * O   R   C   A *
                                 *****************

           --- An Ab Initio, DFT and Semiempirical electronic structure package ---

                  #######################################################
                  #                        -***-                        #
                  #          Department of theory and spectroscopy      #
                  #               Directorship: Frank Neese             #
                  #        Max Planck Institute fuer Kohlenforschung    #
                  #                Kaiser Wilhelm Platz 1               #
                  #                 D-45470 Muelheim/Ruhr               #
                  #                      Germany                        #
                  #                                                     #
                  #                  All rights reserved                #
                  #                        -***-                        #
                  #######################################################


                         Program Version 4.2.0 -  RELEASE  -


 With contributions from (in alphabetic order):
   Daniel Aravena         : Magnetic Suceptibility
   Michael Atanasov       : Ab Initio Ligand Field Theory (pilot matlab implementation)
   Alexander A. Auer      : GIAO ZORA, VPT2
   Ute Becker             : Parallelization
   Giovanni Bistoni       : ED, misc. LED, open-shell LED, HFLED
   Martin Brehm           : Molecular dynamics
   Dmytro Bykov           : SCF Hessian
   Vijay G. Chilkuri      : MRCI spin determinant printing, contributions to CSF-ICE
   Dipayan Datta          : RHF DLPNO-CCSD density
   Achintya Kumar Dutta   : EOM-CC, STEOM-CC
   Dmitry Ganyushin       : Spin-Orbit,Spin-Spin,Magnetic field MRCI
   Miquel Garcia          : C-PCM Hessian, Gaussian charge scheme
   Yang Guo               : DLPNO-NEVPT2, CIM, IAO-localization
   Andreas Hansen         : Spin unrestricted coupled pair/coupled cluster methods
   Benjamin Helmich-Paris : CASSCF linear response (MC-RPA)
   Lee Huntington         : MR-EOM, pCC
   Robert Izsak           : Overlap fitted RIJCOSX, COSX-SCS-MP3, EOM
   Christian Kollmar      : KDIIS, OOCD, Brueckner-CCSD(T), CCSD density
   Simone Kossmann        : Meta GGA functionals, TD-DFT gradient, OOMP2, MP2 Hessian
   Martin Krupicka        : AUTO-CI
   Lucas Lang             : DCDCAS
   Dagmar Lenk            : GEPOL surface, SMD
   Dimitrios Liakos       : Extrapolation schemes; Compound Job, initial MDCI parallelization
   Dimitrios Manganas     : Further ROCIS development; embedding schemes
   Dimitrios Pantazis     : SARC Basis sets
   Taras Petrenko         : DFT Hessian,TD-DFT gradient, ASA, ECA, R-Raman, ABS, FL, XAS/XES, NRVS
   Peter Pinski           : DLPNO-MP2, DLPNO-MP2 Gradient
   Christoph Reimann      : Effective Core Potentials
   Marius Retegan         : Local ZFS, SOC
   Christoph Riplinger    : Optimizer, TS searches, QM/MM, DLPNO-CCSD(T), (RO)-DLPNO pert. Triples
   Tobias Risthaus        : Range-separated hybrids, TD-DFT gradient, RPA, STAB
   Michael Roemelt        : Original ROCIS implementation
   Masaaki Saitow         : Open-shell DLPNO-CCSD energy and density
   Barbara Sandhoefer     : DKH picture change effects
   Avijit Sen             : IP-ROCIS
   Kantharuban Sivalingam : CASSCF convergence, NEVPT2, FIC-MRCI
   Bernardo de Souza      : ESD, SOC TD-DFT
   Georgi Stoychev        : AutoAux, RI-MP2 NMR
   Willem Van den Heuvel  : Paramagnetic NMR
   Boris Wezisla          : Elementary symmetry handling
   Frank Wennmohs         : Technical directorship


 We gratefully acknowledge several colleagues who have allowed us to
 interface, adapt or use parts of their codes:
   Stefan Grimme, W. Hujo, H. Kruse,             : VdW corrections, initial TS optimization,
                  C. Bannwarth                     DFT functionals, gCP, sTDA/sTD-DF
   Ed Valeev, F. Pavosevic, A. Kumar             : LibInt (2-el integral package), F12 methods
   Garnet Chan, S. Sharma, J. Yang, R. Olivares  : DMRG
   Ulf Ekstrom                                   : XCFun DFT Library
   Mihaly Kallay                                 : mrcc  (arbitrary order and MRCC methods)
   Andreas Klamt, Michael Diedenhofen            : otool_cosmo (COSMO solvation model)
   Jiri Pittner, Ondrej Demel                    : Mk-CCSD
   Frank Weinhold                                : gennbo (NPA and NBO analysis)
   Christopher J. Cramer and Donald G. Truhlar   : smd solvation model
   Lars Goerigk                                  : TD-DFT with DH, B97 family of functionals
   V. Asgeirsson, H. Jonsson                     : NEB implementation
   FAccTs GmbH                                   : IRC, NEB, NEB-TS, Multilevel, MM, QM/MM, CI optimization
   S Lehtola, MJT Oliveira, MAL Marques          : LibXC Library


 Your calculation uses the libint2 library for the computation of 2-el integrals
 For citations please refer to: http://libint.valeyev.net

 Your ORCA version has been built with support for libXC version: 4.2.3
 For citations please refer to: https://tddft.org/programs/libxc/

 This ORCA versions uses:
   CBLAS   interface :  Fast vector & matrix operations
   LAPACKE interface :  Fast linear algebra routines
   SCALAPACK package :  Parallel linear algebra routines


XCFun DFT library Copyright 2009-2010 Ulf Ekstrom and contributors.
See http://admol.org/xcfun for more information. This is free soft-
ware; see the source code for copying conditions. There is ABSOLUTELY
NO WARRANTY; not even for MERCHANTABILITY or FITNESS FOR A PARTICULAR
PURPOSE. For details see the documentation. Scientific users of this 
library should cite U. Ekstrom, L. Visscher, R. Bast, A. J. Thorvald-
sen and K. Ruud; J.Chem.Theor.Comp. 2010, DOI: 10.1021/ct100117s
XCFun Version 0.99 
----- Orbital basis set information -----
Your calculation utilizes the basis: def2-SVP
   F. Weigend and R. Ahlrichs, Phys. Chem. Chem. Phys. 7, 3297 (2005).

----- AuxJ basis set information -----
Your calculation utilizes the auxiliary basis: def2/J
   F. Weigend, Phys. Chem. Chem. Phys. 8, 1057 (2006).

================================================================================
                                        WARNINGS
                       Please study these warnings very carefully!
================================================================================

INFO   : Checking CIS options ...

WARNING: CIS/ROCIS methods need fully converged wavefunctions
  ===> : Setting SCFConvForced true
         You can overwrite this default with %scf ConvForced false 


INFO   : the flag for use of LIBINT has been found!

================================================================================
                                       INPUT FILE
================================================================================
NAME = xtbopt.inp
|  1> # ORCA input file
|  2> # SCF done       -188.206472316513          0.000907976591
|  3> ! CAM-B3LYP def2-SVP def2/J RIJCOSX Grid4 TightSCF
|  4> %maxcore 5000
|  5> %tddft
|  6>     Mode sTDDFT
|  7>     Ethresh 5.0
|  8>     maxcore 5000
|  9> end
| 10> 
| 11> %pal
| 12>   nprocs 6
| 13>   end
| 14> * xyz 0 1
| 15>    C       -0.43840         2.12568         2.96753
| 16>    C       -0.28403         3.31059         3.63067
| 17>    C       -0.48863         3.46444         5.02006
| 18>    N       -0.64359         3.64562         6.14198
| 19>    C        0.17362         4.49900         3.03184
| 20>    N        0.58725         5.48566         2.61307
| 21>    C       -0.70081         0.82905         3.56842
| 22>    C       -0.38159        -0.19421         2.62432
| 23>    C       -0.50540        -1.51908         2.93427
| 24>    C       -0.96575        -1.88647         4.21800
| 25>    C       -1.30550        -0.86881         5.15804
| 26>    C       -1.16671         0.49374         4.81257
| 27>    C       -1.77387        -1.25019         6.43222
| 28>    C       -1.89677        -2.57150         6.76585
| 29>    C       -1.55901        -3.57194         5.84155
| 30>    C       -1.10383        -3.23702         4.59497
| 31>    C        0.04053         0.41994         1.35993
| 32>    O        0.45124        -0.10292         0.35226
| 33>    C       -0.19773         1.88789         1.55122
| 34>    C       -0.32602         2.68684         0.47707
| 35>    C       -0.84632         4.02921         0.42051
| 36>    C       -2.07922         4.46972         0.83374
| 37>    N       -3.11916         3.72104         1.43121
| 38>    O       -4.22760         4.21595         1.43076
| 39>    O       -2.84990         2.63287         1.91585
| 40>    C       -2.25528         5.86316         0.46127
| 41>    C       -1.11493         6.29886        -0.10412
| 42>    C       -0.15637         5.20917        -0.14015
| 43>    C        1.15868         5.26552        -0.51106
| 44>    C        2.03283         4.16213        -0.83339
| 45>    C        3.14878         4.64353        -1.42366
| 46>    C        3.09235         6.09156        -1.41167
| 47>    N        4.16380         6.89935        -1.83892
| 48>    O        4.12018         8.09663        -1.59636
| 49>    O        5.08095         6.35315        -2.42051
| 50>    C        1.91790         6.50223        -0.82399
| 51>    C        1.59598         7.84510        -0.45487
| 52>    C        1.03178         8.18715         0.71306
| 53>    C        0.90831         9.59834         1.14157
| 54>    O       -0.19910         9.86685         2.00184
| 55>    C        0.62607        10.47473         2.99740
| 56>    C        1.89810        10.03082         2.26259
| 57>    C        2.95600        11.02098         1.89847
| 58>    C        3.16199        12.16731         2.64659
| 59>    C        4.15382        13.07341         2.28984
| 60>    N        4.27069        14.27073         3.07949
| 61>    O        3.75130        14.27177         4.17467
| 62>    O        4.87384        15.21285         2.60545
| 63>    C        4.98008        12.85593         1.17940
| 64>    C        4.76112        11.69152         0.44104
| 65>    C        3.77478        10.79247         0.79023
| 66>    C        6.05836        13.76216         0.81527
| 67>    C        6.28990        14.13783        -0.44625
| 68>    C        7.32156        15.08826        -0.81626
| 69>    C        8.65104        15.01678        -0.35971
| 70>    C        9.22630        13.88583         0.40400
| 71>    O        8.71018        12.86216         0.73335
| 72>    S       10.95885        14.23546         0.75742
| 73>    C       10.94234        15.78874        -0.13284
| 74>    O       11.88834        16.50487        -0.24517
| 75>    C        9.58523        15.99890        -0.68596
| 76>    C        9.26913        17.08672        -1.48607
| 77>    C        7.97493        17.14147        -1.97956
| 78>    C        7.02600        16.17238        -1.66327
| 79>    C        5.70030        16.41319        -2.27053
| 80>    O        4.70787        15.75719        -2.17379
| 81>    S        5.77129        17.91759        -3.25649
| 82>    C        7.49402        18.22492        -2.86624
| 83>    O        8.11409        19.15680        -3.27502
| 84>    H       -0.25654        -2.27835         2.20780
| 85>    H       -1.44603         1.24385         5.53564
| 86>    H       -2.03047        -0.47668         7.14076
| 87>    H       -2.25499        -2.85366         7.74434
| 88>    H       -1.66256        -4.60931         6.12195
| 89>    H       -0.84379        -4.00320         3.87955
| 90>    H       -0.08018         2.23284        -0.47966
| 91>    H       -3.16589         6.40431         0.63050
| 92>    H       -0.93531         7.27756        -0.49873
| 93>    H        1.80090         3.12740        -0.68762
| 94>    H        3.97566         4.08952        -1.82630
| 95>    H        1.97357         8.61908        -1.11289
| 96>    H        0.73245         7.44324         1.43849
| 97>    H        0.91956        10.28469         0.28422
| 98>    H        0.45804        10.04607         3.98674
| 99>    H        0.46647        11.55646         3.02647
|100>    H        2.35597         9.15669         2.73196
|101>    H        2.56189        12.38466         3.51730
|102>    H        5.39963        11.48140        -0.40202
|103>    H        3.64851         9.89792         0.19944
|104>    H        6.65935        14.15957         1.62094
|105>    H        5.61387        13.83746        -1.23439
|106>    H        9.99931        17.84425        -1.72349
|107> *
|108> 
|109>                          ****END OF INPUT****
================================================================================

                       ****************************
                       * Single Point Calculation *
                       ****************************

---------------------------------
CARTESIAN COORDINATES (ANGSTROEM)
---------------------------------
  C     -0.438400    2.125680    2.967530
  C     -0.284030    3.310590    3.630670
  C     -0.488630    3.464440    5.020060
  N     -0.643590    3.645620    6.141980
  C      0.173620    4.499000    3.031840
  N      0.587250    5.485660    2.613070
  C     -0.700810    0.829050    3.568420
  C     -0.381590   -0.194210    2.624320
  C     -0.505400   -1.519080    2.934270
  C     -0.965750   -1.886470    4.218000
  C     -1.305500   -0.868810    5.158040
  C     -1.166710    0.493740    4.812570
  C     -1.773870   -1.250190    6.432220
  C     -1.896770   -2.571500    6.765850
  C     -1.559010   -3.571940    5.841550
  C     -1.103830   -3.237020    4.594970
  C      0.040530    0.419940    1.359930
  O      0.451240   -0.102920    0.352260
  C     -0.197730    1.887890    1.551220
  C     -0.326020    2.686840    0.477070
  C     -0.846320    4.029210    0.420510
  C     -2.079220    4.469720    0.833740
  N     -3.119160    3.721040    1.431210
  O     -4.227600    4.215950    1.430760
  O     -2.849900    2.632870    1.915850
  C     -2.255280    5.863160    0.461270
  C     -1.114930    6.298860   -0.104120
  C     -0.156370    5.209170   -0.140150
  C      1.158680    5.265520   -0.511060
  C      2.032830    4.162130   -0.833390
  C      3.148780    4.643530   -1.423660
  C      3.092350    6.091560   -1.411670
  N      4.163800    6.899350   -1.838920
  O      4.120180    8.096630   -1.596360
  O      5.080950    6.353150   -2.420510
  C      1.917900    6.502230   -0.823990
  C      1.595980    7.845100   -0.454870
  C      1.031780    8.187150    0.713060
  C      0.908310    9.598340    1.141570
  O     -0.199100    9.866850    2.001840
  C      0.626070   10.474730    2.997400
  C      1.898100   10.030820    2.262590
  C      2.956000   11.020980    1.898470
  C      3.161990   12.167310    2.646590
  C      4.153820   13.073410    2.289840
  N      4.270690   14.270730    3.079490
  O      3.751300   14.271770    4.174670
  O      4.873840   15.212850    2.605450
  C      4.980080   12.855930    1.179400
  C      4.761120   11.691520    0.441040
  C      3.774780   10.792470    0.790230
  C      6.058360   13.762160    0.815270
  C      6.289900   14.137830   -0.446250
  C      7.321560   15.088260   -0.816260
  C      8.651040   15.016780   -0.359710
  C      9.226300   13.885830    0.404000
  O      8.710180   12.862160    0.733350
  S     10.958850   14.235460    0.757420
  C     10.942340   15.788740   -0.132840
  O     11.888340   16.504870   -0.245170
  C      9.585230   15.998900   -0.685960
  C      9.269130   17.086720   -1.486070
  C      7.974930   17.141470   -1.979560
  C      7.026000   16.172380   -1.663270
  C      5.700300   16.413190   -2.270530
  O      4.707870   15.757190   -2.173790
  S      5.771290   17.917590   -3.256490
  C      7.494020   18.224920   -2.866240
  O      8.114090   19.156800   -3.275020
  H     -0.256540   -2.278350    2.207800
  H     -1.446030    1.243850    5.535640
  H     -2.030470   -0.476680    7.140760
  H     -2.254990   -2.853660    7.744340
  H     -1.662560   -4.609310    6.121950
  H     -0.843790   -4.003200    3.879550
  H     -0.080180    2.232840   -0.479660
  H     -3.165890    6.404310    0.630500
  H     -0.935310    7.277560   -0.498730
  H      1.800900    3.127400   -0.687620
  H      3.975660    4.089520   -1.826300
  H      1.973570    8.619080   -1.112890
  H      0.732450    7.443240    1.438490
  H      0.919560   10.284690    0.284220
  H      0.458040   10.046070    3.986740
  H      0.466470   11.556460    3.026470
  H      2.355970    9.156690    2.731960
  H      2.561890   12.384660    3.517300
  H      5.399630   11.481400   -0.402020
  H      3.648510    9.897920    0.199440
  H      6.659350   14.159570    1.620940
  H      5.613870   13.837460   -1.234390
  H      9.999310   17.844250   -1.723490

----------------------------
CARTESIAN COORDINATES (A.U.)
----------------------------
  NO LB      ZA    FRAG     MASS         X           Y           Z
   0 C     6.0000    0    12.011   -0.828456    4.016953    5.607819
   1 C     6.0000    0    12.011   -0.536739    6.256108    6.860972
   2 C     6.0000    0    12.011   -0.923377    6.546843    9.486539
   3 N     7.0000    0    14.007   -1.216209    6.889223   11.606660
   4 C     6.0000    0    12.011    0.328094    8.501878    5.729347
   5 N     7.0000    0    14.007    1.109742   10.366395    4.937987
   6 C     6.0000    0    12.011   -1.324339    1.566677    6.743337
   7 C     6.0000    0    12.011   -0.721101   -0.367004    4.959246
   8 C     6.0000    0    12.011   -0.955068   -2.870645    5.544967
   9 C     6.0000    0    12.011   -1.825003   -3.564912    7.970865
  10 C     6.0000    0    12.011   -2.467037   -1.641813    9.747283
  11 C     6.0000    0    12.011   -2.204762    0.933033    9.094439
  12 C     6.0000    0    12.011   -3.352128   -2.362517   12.155134
  13 C     6.0000    0    12.011   -3.584376   -4.859431   12.785604
  14 C     6.0000    0    12.011   -2.946102   -6.749988   11.038930
  15 C     6.0000    0    12.011   -2.085936   -6.117081    8.683235
  16 C     6.0000    0    12.011    0.076591    0.793572    2.569895
  17 O     8.0000    0    15.999    0.852720   -0.194491    0.665675
  18 C     6.0000    0    12.011   -0.373656    3.567595    2.931381
  19 C     6.0000    0    12.011   -0.616089    5.077392    0.901532
  20 C     6.0000    0    12.011   -1.599313    7.614103    0.794649
  21 C     6.0000    0    12.011   -3.929156    8.446547    1.575540
  22 N     7.0000    0    14.007   -5.894358    7.031747    2.704595
  23 O     8.0000    0    15.999   -7.989006    7.966991    2.703745
  24 O     8.0000    0    15.999   -5.385531    4.975403    3.620432
  25 C     6.0000    0    12.011   -4.261862   11.079767    0.871674
  26 C     6.0000    0    12.011   -2.106912   11.903120   -0.196758
  27 C     6.0000    0    12.011   -0.295496    9.843905   -0.264845
  28 C     6.0000    0    12.011    2.189588    9.950391   -0.965763
  29 C     6.0000    0    12.011    3.841492    7.865286   -1.574879
  30 C     6.0000    0    12.011    5.950332    8.775000   -2.690328
  31 C     6.0000    0    12.011    5.843695   11.511380   -2.667670
  32 N     7.0000    0    14.007    7.868442   13.037882   -3.475055
  33 O     8.0000    0    15.999    7.786012   15.300413   -3.016683
  34 O     8.0000    0    15.999    9.601604   12.005714   -4.574101
  35 C     6.0000    0    12.011    3.624306   12.287434   -1.557115
  36 C     6.0000    0    12.011    3.015965   14.825090   -0.859580
  37 C     6.0000    0    12.011    1.949782   15.471471    1.347488
  38 C     6.0000    0    12.011    1.716457   18.138234    2.157255
  39 O     8.0000    0    15.999   -0.376244   18.645644    3.782929
  40 C     6.0000    0    12.011    1.183101   19.794371    5.664265
  41 C     6.0000    0    12.011    3.586889   18.955503    4.275675
  42 C     6.0000    0    12.011    5.586030   20.826634    3.587588
  43 C     6.0000    0    12.011    5.975295   22.992884    5.001330
  44 C     6.0000    0    12.011    7.849582   24.705165    4.327170
  45 N     7.0000    0    14.007    8.070435   26.967771    5.819393
  46 O     8.0000    0    15.999    7.088930   26.969737    7.888983
  47 O     8.0000    0    15.999    9.210223   28.748120    4.923587
  48 C     6.0000    0    12.011    9.410987   24.294187    2.228743
  49 C     6.0000    0    12.011    8.997213   22.093771    0.833445
  50 C     6.0000    0    12.011    7.133300   20.394813    1.493318
  51 C     6.0000    0    12.011   11.448641   26.006713    1.540637
  52 C     6.0000    0    12.011   11.886188   26.716627   -0.843290
  53 C     6.0000    0    12.011   13.835743   28.512679   -1.542508
  54 C     6.0000    0    12.011   16.348096   28.377602   -0.679753
  55 C     6.0000    0    12.011   17.435180   26.240416    0.763449
  56 O     8.0000    0    15.999   16.459855   24.305960    1.385831
  57 S    16.0000    0    32.060   20.709225   26.901121    1.431316
  58 C     6.0000    0    12.011   20.678026   29.836395   -0.251031
  59 O     8.0000    0    15.999   22.465707   31.189684   -0.463304
  60 C     6.0000    0    12.011   18.113460   30.233539   -1.296277
  61 C     6.0000    0    12.011   17.516117   32.289221   -2.808265
  62 C     6.0000    0    12.011   15.070434   32.392684   -3.740826
  63 C     6.0000    0    12.011   13.277216   30.561369   -3.143125
  64 C     6.0000    0    12.011   10.772006   31.016434   -4.290680
  65 O     8.0000    0    15.999    8.896585   29.776774   -4.107868
  66 S    16.0000    0    32.060   10.906158   33.859338   -6.153874
  67 C     6.0000    0    12.011   14.161645   34.440108   -5.416409
  68 O     8.0000    0    15.999   15.333408   36.201106   -6.188891
  69 H     1.0000    0     1.008   -0.484790   -4.305458    4.172137
  70 H     1.0000    0     1.008   -2.732601    2.350536   10.460844
  71 H     1.0000    0     1.008   -3.837032   -0.900795   13.494081
  72 H     1.0000    0     1.008   -4.261314   -5.392636   14.634682
  73 H     1.0000    0     1.008   -3.141783   -8.710334   11.568809
  74 H     1.0000    0     1.008   -1.594532   -7.564952    7.331287
  75 H     1.0000    0     1.008   -0.151518    4.219456   -0.906426
  76 H     1.0000    0     1.008   -5.982665   12.102392    1.191472
  77 H     1.0000    0     1.008   -1.767480   13.752595   -0.942463
  78 H     1.0000    0     1.008    3.403208    5.909930   -1.299413
  79 H     1.0000    0     1.008    7.512909    7.728073   -3.451207
  80 H     1.0000    0     1.008    3.729507   16.287701   -2.103057
  81 H     1.0000    0     1.008    1.384130   14.065685    2.718352
  82 H     1.0000    0     1.008    1.737717   19.435247    0.537098
  83 H     1.0000    0     1.008    0.865570   18.984321    7.533847
  84 H     1.0000    0     1.008    0.881501   21.838544    5.719199
  85 H     1.0000    0     1.008    4.452138   17.303636    5.162656
  86 H     1.0000    0     1.008    4.841270   23.403616    6.646734
  87 H     1.0000    0     1.008   10.203822   21.696702   -0.759708
  88 H     1.0000    0     1.008    6.894685   18.704358    0.376887
  89 H     1.0000    0     1.008   12.584348   26.757709    3.063133
  90 H     1.0000    0     1.008   10.608677   26.149010   -2.332659
  91 H     1.0000    0     1.008   18.895957   33.720746   -3.256924

--------------------------------
INTERNAL COORDINATES (ANGSTROEM)
--------------------------------
 C      0   0   0     0.000000000000     0.00000000     0.00000000
 C      1   0   0     1.366600330967     0.00000000     0.00000000
 C      2   1   0     1.412775833103   123.72983615     0.00000000
 N      3   2   1     1.146971351168   177.11791351   182.54240661
 C      2   1   3     1.407252365249   124.22618011   175.97287298
 N      5   2   1     1.148893400364   175.89067374   216.87730287
 C      1   2   3     1.452989042319   126.40353229   353.61767046
 C      7   1   2     1.428386238382   109.00084893   198.08867388
 C      8   7   1     1.366264409073   121.63287780   178.54602038
 C      9   8   7     1.412395216467   119.20702950     0.27030695
 C     10   9   8     1.426442126306   119.40847261     0.68753641
 C      7   1   2     1.370184231627   130.94296561    17.77855818
 C     11  10   9     1.410090718252   118.79311530   179.49909881
 C     13  11  10     1.368310455635   120.75270435     0.23729389
 C     14  13  11     1.403314826117   120.41160512   359.92335654
 C     15  14  13     1.368693513976   120.36352168   359.93924650
 C      8   7   1     1.467667397267   109.50676381   357.44729017
 O     17   8   7     1.207254783631   129.47100935   175.82580888
 C      1   2   3     1.456159383138   126.50462735   182.37640335
 C     19   1   2     1.344833688268   131.61212976   328.38901370
 C     20  19   1     1.440787402950   128.26586352   355.15575866
 C     21  20  19     1.372898577099   127.69263781   303.48592784
 N     22  21  20     1.413848417229   128.15716468     1.18310885
 O     23  22  21     1.213909116944   117.10258057   197.04279858
 O     23  22  21     1.221266075063   118.51252917    17.39180589
 C     22  21  20     1.453067809189   109.83723286   186.34277131
 C     26  22  21     1.345324668844   108.39680989   356.45703982
 C     27  26  22     1.451743686261   109.08784981     0.71370580
 C     28  27  26     1.367518209422   127.64378194   186.99117975
 C     29  28  27     1.444127537131   127.67226655   194.97277122
 C     30  29  28     1.351113997929   108.97997279   166.78526524
 C     31  30  29     1.449178728073   108.67742461     4.54213500
 N     32  31  30     1.408216016490   122.75408034   173.83095098
 O     33  32  31     1.222381878302   118.32629584   191.66729729
 O     33  32  31     1.215625555260   117.48110693    11.17422613
 C     32  31  30     1.375990709925   109.57174691   359.12279319
 C     36  32  31     1.429399138694   125.65508862   170.17280909
 C     37  36  32     1.341409828278   123.99496027   224.43261799
 C     38  37  36     1.479973944737   122.02743157   170.29904040
 O     39  38  37     1.427767138262   114.73902660   151.52780090
 C     40  39  38     1.428832858280    92.97478065   126.34326812
 C     41  40  39     1.534621173156    91.26086403   351.31066475
 C     42  41  40     1.494039025595   120.79109743   126.41308184
 C     43  42  41     1.384264383490   121.49865743    28.70640734
 C     44  43  42     1.389969251962   120.48472378   179.89833900
 N     45  44  43     1.439020813540   117.35516191   177.32317573
 O     46  45  44     1.212099948890   117.49829462    18.00055817
 O     46  45  44     1.214946064029   118.12593849   198.39563955
 C     45  44  43     1.401099615159   121.53596048   359.41884361
 C     49  45  44     1.396055020155   117.13854132     0.28185725
 C     50  49  45     1.379525698999   121.45559853   359.92412426
 C     49  45  44     1.454830309074   122.59957474   182.43601453
 C     52  49  45     1.336477246682   122.66676305   223.33545941
 C     53  52  49     1.450705669872   123.23740125   177.05121464
 C     54  53  52     1.407502882164   123.76022636    48.42941847
 C     55  54  53     1.480954062150   124.95702720     8.43101179
 O     56  55  54     1.192791493011   129.02792985     1.82969100
 S     56  55  54     1.802463962414   109.04773301   179.60692839
 C     58  56  55     1.790394986058    93.55019954   357.80113346
 O     59  58  56     1.191795370775   124.11466098   180.29420149
 C     55  54  53     1.394169901052   121.41571332   183.65491294
 C     61  55  54     1.386884124395   122.33191099   359.18303854
 C     62  61  55     1.386175884439   116.69002075   358.57102974
 C     63  62  61     1.392710643709   121.85768311     1.56064331
 C     64  63  62     1.477915644988   113.85899917   179.24483468
 O     65  64  63     1.193571083974   128.53456258   180.05715235
 S     65  64  63     1.800104458552   109.01719434     0.54815585
 C     63  62  61     1.480317450076   123.05634125   181.15532428
 O     68  63  62     1.191632589224   127.50215969     0.55144018
 H      9   8   7     1.079898556995   120.55037959   180.16880146
 H     12   7   1     1.078663478292   121.77262249     2.32871256
 H     13  11  10     1.079902871419   118.55958215   180.03106947
 H     14  13  11     1.079526986277   120.21233411   179.91604441
 H     15  14  13     1.079575508892   119.39853217   180.01723146
 H     16  15  14     1.080036281983   120.64952657   180.08044642
 H     20  19   1     1.087145619731   115.67333405   180.54550957
 H     26  22  21     1.072703448069   123.10587576   176.31866741
 H     27  26  22     1.070436400026   126.38934680   178.85910132
 H     30  29  28     1.070376845181   125.24340715   350.62164683
 H     31  30  29     1.073674338009   128.03054846   183.12066744
 H     37  36  32     1.083794062034   115.82726249    35.22107167
 H     38  37  36     1.081318279648   121.67619260   356.60233478
 H     39  38  37     1.098295000216   111.65425617    23.91513565
 H     41  40  39     1.091227342079   112.06503377   231.80083260
 H     41  40  39     1.093826776871   110.79257686   108.53270203
 H     42  41  40     1.092728873372   111.90328359   258.00761994
 H     44  43  42     1.079581834138   121.32479708   359.82336768
 H     50  49  45     1.078237264288   118.89412450   181.78159837
 H     51  50  49     1.079442744892   119.02433700   180.83090221
 H     52  49  45     1.080845889616   117.03826673    41.17044205
 H     53  52  49     1.080927082370   120.11772907     5.37038082
 H     62  61  55     1.078602238872   121.57211902   179.43804651

---------------------------
INTERNAL COORDINATES (A.U.)
---------------------------
 C      0   0   0     0.000000000000     0.00000000     0.00000000
 C      1   0   0     2.582500360054     0.00000000     0.00000000
 C      2   1   0     2.669759413187   123.72983615     0.00000000
 N      3   2   1     2.167461737161   177.11791351   182.54240661
 C      2   1   3     2.659321571634   124.22618011   175.97287298
 N      5   2   1     2.171093883758   175.89067374   216.87730287
 C      1   2   3     2.745751365572   126.40353229   353.61767046
 C      7   1   2     2.699258804005   109.00084893   198.08867388
 C      8   7   1     2.581865559672   121.63287780   178.54602038
 C      9   8   7     2.669040151984   119.20702950     0.27030695
 C     10   9   8     2.695584964606   119.40847261     0.68753641
 C      7   1   2     2.589272950793   130.94296561    17.77855818
 C     11  10   9     2.664685281480   118.79311530   179.49909881
 C     13  11  10     2.585732027331   120.75270435     0.23729389
 C     14  13  11     2.651880701033   120.41160512   359.92335654
 C     15  14  13     2.586455902689   120.36352168   359.93924650
 C      8   7   1     2.773489436519   109.50676381   357.44729017
 O     17   8   7     2.281380914929   129.47100935   175.82580888
 C      1   2   3     2.751742441470   126.50462735   182.37640335
 C     19   1   2     2.541367366497   131.61212976   328.38901370
 C     20  19   1     2.722693608780   128.26586352   355.15575866
 C     21  20  19     2.594402320367   127.69263781   303.48592784
 N     22  21  20     2.671786303440   128.15716468     1.18310885
 O     23  22  21     2.293955782495   117.10258057   197.04279858
 O     23  22  21     2.307858418518   118.51252917    17.39180589
 C     22  21  20     2.745900213383   109.83723286   186.34277131
 C     26  22  21     2.542295185323   108.39680989   356.45703982
 C     27  26  22     2.743397983683   109.08784981     0.71370580
 C     28  27  26     2.584234898957   127.64378194   186.99117975
 C     29  28  27     2.729005547632   127.67226655   194.97277122
 C     30  29  28     2.553235431793   108.97997279   166.78526524
 C     31  30  29     2.738550915163   108.67742461     4.54213500
 N     32  31  30     2.661142608568   122.75408034   173.83095098
 O     33  32  31     2.309966981058   118.32629584   191.66729729
 O     33  32  31     2.297199380836   117.48110693    11.17422613
 C     32  31  30     2.600245604578   109.57174691   359.12279319
 C     36  32  31     2.701172908195   125.65508862   170.17280909
 C     37  36  32     2.534897208795   123.99496027   224.43261799
 C     38  37  36     2.796745440892   122.02743157   170.29904040
 O     39  38  37     2.698088874327   114.73902660   151.52780090
 C     40  39  38     2.700102793297    92.97478065   126.34326812
 C     41  40  39     2.900013736583    91.26086403   351.31066475
 C     42  41  40     2.823324591765   120.79109743   126.41308184
 C     43  42  41     2.615880581738   121.49865743    28.70640734
 C     44  43  42     2.626661220780   120.48472378   179.89833900
 N     45  44  43     2.719355238602   117.35516191   177.32317573
 O     46  45  44     2.290536950343   117.49829462    18.00055817
 O     46  45  44     2.295915328501   118.12593849   198.39563955
 C     45  44  43     2.647694558994   121.53596048   359.41884361
 C     49  45  44     2.638161655979   117.13854132     0.28185725
 C     50  49  45     2.606925765815   121.45559853   359.92412426
 C     49  45  44     2.749230855478   122.59957474   182.43601453
 C     52  49  45     2.525575980447   122.66676305   223.33545941
 C     53  52  49     2.741436416986   123.23740125   177.05121464
 C     54  53  52     2.659794979995   123.76022636    48.42941847
 C     55  54  53     2.798597594383   124.95702720     8.43101179
 O     56  55  54     2.254049256662   129.02792985     1.82969100
 S     56  55  54     3.406163255224   109.04773301   179.60692839
 C     58  56  55     3.383356195195    93.55019954   357.80113346
 O     59  58  56     2.252166858439   124.11466098   180.29420149
 C     55  54  53     2.634599297145   121.41571332   183.65491294
 C     61  55  54     2.620831174590   122.33191099   359.18303854
 C     62  61  55     2.619492795036   116.69002075   358.57102974
 C     63  62  61     2.631841700407   121.85768311     1.56064331
 C     64  63  62     2.792855818065   113.85899917   179.24483468
 O     65  64  63     2.255522470079   128.53456258   180.05715235
 S     65  64  63     3.401704439115   109.01719434     0.54815585
 C     63  62  61     2.797394571909   123.05634125   181.15532428
 O     68  63  62     2.251859245888   127.50215969     0.55144018
 H      9   8   7     2.040712525137   120.55037959   180.16880146
 H     12   7   1     2.038378564634   121.77262249     2.32871256
 H     13  11  10     2.040720678218   118.55958215   180.03106947
 H     14  13  11     2.040010358241   120.21233411   179.91604441
 H     15  14  13     2.040102052695   119.39853217   180.01723146
 H     16  15  14     2.040972787647   120.64952657   180.08044642
 H     20  19   1     2.054407488983   115.67333405   180.54550957
 H     26  22  21     2.027115739764   123.10587576   176.31866741
 H     27  26  22     2.022831639829   126.38934680   178.85910132
 H     30  29  28     2.022719097483   125.24340715   350.62164683
 H     31  30  29     2.028950455857   128.03054846   183.12066744
 H     37  36  32     2.048073962814   115.82726249    35.22107167
 H     38  37  36     2.043395412137   121.67619260   356.60233478
 H     39  38  37     2.075476764664   111.65425617    23.91513565
 H     41  40  39     2.062120826375   112.06503377   231.80083260
 H     41  40  39     2.067033046236   110.79257686   108.53270203
 H     42  41  40     2.064958309301   111.90328359   258.00761994
 H     44  43  42     2.040114005677   121.32479708   359.82336768
 H     50  49  45     2.037573136893   118.89412450   181.78159837
 H     51  50  49     2.039851165094   119.02433700   180.83090221
 H     52  49  45     2.042502724349   117.03826673    41.17044205
 H     53  52  49     2.042656156417   120.11772907     5.37038082
 H     62  61  55     2.038262838903   121.57211902   179.43804651

---------------------
BASIS SET INFORMATION
---------------------
There are 5 groups of distinct atoms

 Group   1 Type C   : 7s4p1d contracted to 3s2p1d pattern {511/31/1}
 Group   2 Type N   : 7s4p1d contracted to 3s2p1d pattern {511/31/1}
 Group   3 Type O   : 7s4p1d contracted to 3s2p1d pattern {511/31/1}
 Group   4 Type S   : 10s7p1d contracted to 4s3p1d pattern {5311/511/1}
 Group   5 Type H   : 4s1p contracted to 2s1p pattern {31/1}

Atom   0C    basis set group =>   1
Atom   1C    basis set group =>   1
Atom   2C    basis set group =>   1
Atom   3N    basis set group =>   2
Atom   4C    basis set group =>   1
Atom   5N    basis set group =>   2
Atom   6C    basis set group =>   1
Atom   7C    basis set group =>   1
Atom   8C    basis set group =>   1
Atom   9C    basis set group =>   1
Atom  10C    basis set group =>   1
Atom  11C    basis set group =>   1
Atom  12C    basis set group =>   1
Atom  13C    basis set group =>   1
Atom  14C    basis set group =>   1
Atom  15C    basis set group =>   1
Atom  16C    basis set group =>   1
Atom  17O    basis set group =>   3
Atom  18C    basis set group =>   1
Atom  19C    basis set group =>   1
Atom  20C    basis set group =>   1
Atom  21C    basis set group =>   1
Atom  22N    basis set group =>   2
Atom  23O    basis set group =>   3
Atom  24O    basis set group =>   3
Atom  25C    basis set group =>   1
Atom  26C    basis set group =>   1
Atom  27C    basis set group =>   1
Atom  28C    basis set group =>   1
Atom  29C    basis set group =>   1
Atom  30C    basis set group =>   1
Atom  31C    basis set group =>   1
Atom  32N    basis set group =>   2
Atom  33O    basis set group =>   3
Atom  34O    basis set group =>   3
Atom  35C    basis set group =>   1
Atom  36C    basis set group =>   1
Atom  37C    basis set group =>   1
Atom  38C    basis set group =>   1
Atom  39O    basis set group =>   3
Atom  40C    basis set group =>   1
Atom  41C    basis set group =>   1
Atom  42C    basis set group =>   1
Atom  43C    basis set group =>   1
Atom  44C    basis set group =>   1
Atom  45N    basis set group =>   2
Atom  46O    basis set group =>   3
Atom  47O    basis set group =>   3
Atom  48C    basis set group =>   1
Atom  49C    basis set group =>   1
Atom  50C    basis set group =>   1
Atom  51C    basis set group =>   1
Atom  52C    basis set group =>   1
Atom  53C    basis set group =>   1
Atom  54C    basis set group =>   1
Atom  55C    basis set group =>   1
Atom  56O    basis set group =>   3
Atom  57S    basis set group =>   4
Atom  58C    basis set group =>   1
Atom  59O    basis set group =>   3
Atom  60C    basis set group =>   1
Atom  61C    basis set group =>   1
Atom  62C    basis set group =>   1
Atom  63C    basis set group =>   1
Atom  64C    basis set group =>   1
Atom  65O    basis set group =>   3
Atom  66S    basis set group =>   4
Atom  67C    basis set group =>   1
Atom  68O    basis set group =>   3
Atom  69H    basis set group =>   5
Atom  70H    basis set group =>   5
Atom  71H    basis set group =>   5
Atom  72H    basis set group =>   5
Atom  73H    basis set group =>   5
Atom  74H    basis set group =>   5
Atom  75H    basis set group =>   5
Atom  76H    basis set group =>   5
Atom  77H    basis set group =>   5
Atom  78H    basis set group =>   5
Atom  79H    basis set group =>   5
Atom  80H    basis set group =>   5
Atom  81H    basis set group =>   5
Atom  82H    basis set group =>   5
Atom  83H    basis set group =>   5
Atom  84H    basis set group =>   5
Atom  85H    basis set group =>   5
Atom  86H    basis set group =>   5
Atom  87H    basis set group =>   5
Atom  88H    basis set group =>   5
Atom  89H    basis set group =>   5
Atom  90H    basis set group =>   5
Atom  91H    basis set group =>   5
---------------------------------
AUXILIARY/J BASIS SET INFORMATION
---------------------------------
There are 5 groups of distinct atoms

 Group   1 Type C   : 12s5p4d2f1g contracted to 6s4p3d1f1g pattern {711111/2111/211/2/1}
 Group   2 Type N   : 12s5p4d2f1g contracted to 6s4p3d1f1g pattern {711111/2111/211/2/1}
 Group   3 Type O   : 12s5p4d2f1g contracted to 6s4p3d1f1g pattern {711111/2111/211/2/1}
 Group   4 Type S   : 14s5p5d2f1g contracted to 8s4p3d1f1g pattern {71111111/2111/311/2/1}
 Group   5 Type H   : 5s2p1d contracted to 3s1p1d pattern {311/2/1}

Atom   0C    basis set group =>   1
Atom   1C    basis set group =>   1
Atom   2C    basis set group =>   1
Atom   3N    basis set group =>   2
Atom   4C    basis set group =>   1
Atom   5N    basis set group =>   2
Atom   6C    basis set group =>   1
Atom   7C    basis set group =>   1
Atom   8C    basis set group =>   1
Atom   9C    basis set group =>   1
Atom  10C    basis set group =>   1
Atom  11C    basis set group =>   1
Atom  12C    basis set group =>   1
Atom  13C    basis set group =>   1
Atom  14C    basis set group =>   1
Atom  15C    basis set group =>   1
Atom  16C    basis set group =>   1
Atom  17O    basis set group =>   3
Atom  18C    basis set group =>   1
Atom  19C    basis set group =>   1
Atom  20C    basis set group =>   1
Atom  21C    basis set group =>   1
Atom  22N    basis set group =>   2
Atom  23O    basis set group =>   3
Atom  24O    basis set group =>   3
Atom  25C    basis set group =>   1
Atom  26C    basis set group =>   1
Atom  27C    basis set group =>   1
Atom  28C    basis set group =>   1
Atom  29C    basis set group =>   1
Atom  30C    basis set group =>   1
Atom  31C    basis set group =>   1
Atom  32N    basis set group =>   2
Atom  33O    basis set group =>   3
Atom  34O    basis set group =>   3
Atom  35C    basis set group =>   1
Atom  36C    basis set group =>   1
Atom  37C    basis set group =>   1
Atom  38C    basis set group =>   1
Atom  39O    basis set group =>   3
Atom  40C    basis set group =>   1
Atom  41C    basis set group =>   1
Atom  42C    basis set group =>   1
Atom  43C    basis set group =>   1
Atom  44C    basis set group =>   1
Atom  45N    basis set group =>   2
Atom  46O    basis set group =>   3
Atom  47O    basis set group =>   3
Atom  48C    basis set group =>   1
Atom  49C    basis set group =>   1
Atom  50C    basis set group =>   1
Atom  51C    basis set group =>   1
Atom  52C    basis set group =>   1
Atom  53C    basis set group =>   1
Atom  54C    basis set group =>   1
Atom  55C    basis set group =>   1
Atom  56O    basis set group =>   3
Atom  57S    basis set group =>   4
Atom  58C    basis set group =>   1
Atom  59O    basis set group =>   3
Atom  60C    basis set group =>   1
Atom  61C    basis set group =>   1
Atom  62C    basis set group =>   1
Atom  63C    basis set group =>   1
Atom  64C    basis set group =>   1
Atom  65O    basis set group =>   3
Atom  66S    basis set group =>   4
Atom  67C    basis set group =>   1
Atom  68O    basis set group =>   3
Atom  69H    basis set group =>   5
Atom  70H    basis set group =>   5
Atom  71H    basis set group =>   5
Atom  72H    basis set group =>   5
Atom  73H    basis set group =>   5
Atom  74H    basis set group =>   5
Atom  75H    basis set group =>   5
Atom  76H    basis set group =>   5
Atom  77H    basis set group =>   5
Atom  78H    basis set group =>   5
Atom  79H    basis set group =>   5
Atom  80H    basis set group =>   5
Atom  81H    basis set group =>   5
Atom  82H    basis set group =>   5
Atom  83H    basis set group =>   5
Atom  84H    basis set group =>   5
Atom  85H    basis set group =>   5
Atom  86H    basis set group =>   5
Atom  87H    basis set group =>   5
Atom  88H    basis set group =>   5
Atom  89H    basis set group =>   5
Atom  90H    basis set group =>   5
Atom  91H    basis set group =>   5


           ************************************************************
           *        Program running with 6 parallel MPI-processes     *
           *              working on a common directory               *
           ************************************************************
------------------------------------------------------------------------------
                           ORCA GTO INTEGRAL CALCULATION
                           -- RI-GTO INTEGRALS CHOSEN --
------------------------------------------------------------------------------

                         BASIS SET STATISTICS AND STARTUP INFO

Gaussian basis set:
 # of primitive gaussian shells          ...  955
 # of primitive gaussian functions       ... 1841
 # of contracted shells                  ...  487
 # of contracted basis functions         ... 1089
 Highest angular momentum                ...    2
 Maximum contraction depth               ...    5
Auxiliary gaussian basis set:
 # of primitive gaussian shells          ... 1846
 # of primitive gaussian functions       ... 5212
 # of contracted shells                  ... 1154
 # of contracted aux-basis functions     ... 3638
 Highest angular momentum                ...    4
 Maximum contraction depth               ...    7
Ratio of auxiliary to basis functions    ...  3.34
Integral package used                  ... LIBINT
 One Electron integrals                  ... done
 Ordering auxiliary basis shells         ... done
 Integral threshhold             Thresh  ...  2.500e-11
 Primitive cut-off               TCut    ...  2.500e-12
 Pre-screening matrix                    ... done
 Shell pair data                         ... 
 Ordering of the shell pairs             ... done (   0.009 sec) 42927 of 118828 pairs
 Determination of significant pairs      ... done (   0.000 sec)
 Creation of shell pair data             ... done (   0.006 sec)
 Storage of shell pair data              ... done (   0.009 sec)
 Shell pair data done in (   0.024 sec)
 Computing two index integrals           ... done
 Cholesky decomposition of the V-matrix  ... done


Timings:
 Total evaluation time                   ...   1.941 sec (  0.032 min)
 One electron matrix time                ...   0.492 sec (  0.008 min) = 25.4%
 Schwartz matrix evaluation time         ...   0.603 sec (  0.010 min) = 31.1%
 Two index repulsion integral time       ...   0.306 sec (  0.005 min) = 15.8%
 Cholesky decomposition of V             ...   0.499 sec (  0.008 min) = 25.7%
 Three index repulsion integral time     ...   0.000 sec (  0.000 min) =  0.0%



           ************************************************************
           *        Program running with 6 parallel MPI-processes     *
           *              working on a common directory               *
           ************************************************************
-------------------------------------------------------------------------------
                                 ORCA SCF
-------------------------------------------------------------------------------

------------
SCF SETTINGS
------------
Hamiltonian:
 Density Functional     Method          .... DFT(GTOs)
 Exchange Functional    Exchange        .... WB88
 Correlation Functional Correlation     .... LYP
 LDA part of GGA corr.  LDAOpt          .... VWN-5
 Gradients option       PostSCFGGA      .... off
 Hybrid DFT is turned on
   Fraction HF Exchange ScalHFX         ....  0.190000
   Scaling of DF-GGA-X  ScalDFX         ....  0.350000
   Scaling of DF-GGA-C  ScalDFC         ....  0.810000
   Scaling of DF-LDA-C  ScalLDAC        ....  1.000000
   Perturbative correction              ....  0.000000
   Density functional embedding theory  .... OFF
 Long-range corrected/Screened/Range-Separated Hybrid DFT is turned on
   Amount of maximum screened exact exchange              ....  0.460000
   Range separation parameter mu (erf(mu*r12)/r12)        ....  0.330000
 RI-approximation to the Coulomb term is turned on
   Number of auxiliary basis functions  .... 3638
   RIJ-COSX (HFX calculated with COS-X)).... on


General Settings:
 Integral files         IntName         .... xtbopt
 Hartree-Fock type      HFTyp           .... RHF
 Total Charge           Charge          ....    0
 Multiplicity           Mult            ....    1
 Number of Electrons    NEL             ....  486
 Basis Dimension        Dim             .... 1089
 Nuclear Repulsion      ENuc            ....   9664.2873701801 Eh

Convergence Acceleration:
 DIIS                   CNVDIIS         .... on
   Start iteration      DIISMaxIt       ....    12
   Startup error        DIISStart       ....  0.200000
   # of expansion vecs  DIISMaxEq       ....     5
   Bias factor          DIISBfac        ....   1.050
   Max. coefficient     DIISMaxC        ....  10.000
 Newton-Raphson         CNVNR           .... off
 SOSCF                  CNVSOSCF        .... on
   Start iteration      SOSCFMaxIt      ....   150
   Startup grad/error   SOSCFStart      ....  0.003300
 Level Shifting         CNVShift        .... on
   Level shift para.    LevelShift      ....    0.2500
   Turn off err/grad.   ShiftErr        ....    0.0010
 Zerner damping         CNVZerner       .... off
 Static damping         CNVDamp         .... on
   Fraction old density DampFac         ....    0.7000
   Max. Damping (<1)    DampMax         ....    0.9800
   Min. Damping (>=0)   DampMin         ....    0.0000
   Turn off err/grad.   DampErr         ....    0.1000
 Fernandez-Rico         CNVRico         .... off

SCF Procedure:
 Maximum # iterations   MaxIter         ....   125
 SCF integral mode      SCFMode         .... Direct
   Integral package                     .... LIBINT
 Reset frequency        DirectResetFreq ....    20
 Integral Threshold     Thresh          ....  2.500e-11 Eh
 Primitive CutOff       TCut            ....  2.500e-12 Eh

Convergence Tolerance:
 Convergence Check Mode ConvCheckMode   .... Total+1el-Energy
 Convergence forced     ConvForced      .... 1
 Energy Change          TolE            ....  1.000e-08 Eh
 1-El. energy change                    ....  1.000e-05 Eh
 Orbital Gradient       TolG            ....  1.000e-05
 Orbital Rotation angle TolX            ....  1.000e-05
 DIIS Error             TolErr          ....  5.000e-07


Diagonalization of the overlap matrix:
Smallest eigenvalue                        ... 1.949e-04
Time for diagonalization                   ...    0.187 sec
Threshold for overlap eigenvalues          ... 1.000e-08
Number of eigenvalues below threshold      ... 0
Time for construction of square roots      ...    0.140 sec
Total time needed                          ...    0.330 sec

-------------------
DFT GRID GENERATION
-------------------

General Integration Accuracy     IntAcc      ...  4.670
Radial Grid Type                 RadialGrid  ... Gauss-Chebyshev
Angular Grid (max. acc.)         AngularGrid ... Lebedev-302
Angular grid pruning method      GridPruning ... 3 (G Style)
Weight generation scheme         WeightScheme... Becke
Basis function cutoff            BFCut       ...    1.0000e-11
Integration weight cutoff        WCut        ...    1.0000e-14
Grids for H and He will be reduced by one unit

# of grid points (after initial pruning)     ... 507958 (   0.0 sec)
# of grid points (after weights+screening)   ... 433416 (   5.0 sec)
nearest neighbour list constructed           ...    0.0 sec
Grid point re-assignment to atoms done       ...    0.1 sec
Grid point division into batches done        ...    1.6 sec
Reduced shell lists constructed in    2.5 sec

Total number of grid points                  ...   433416
Total number of batches                      ...     6817
Average number of points per batch           ...       63
Average number of grid points per atom       ...     4711
Average number of shells per batch           ...   103.35 (21.22%)
Average number of basis functions per batch  ...   217.09 (19.93%)
Average number of large shells per batch     ...    63.52 (61.46%)
Average number of large basis fcns per batch ...   135.58 (62.45%)
Maximum spatial batch extension              ...  21.44, 16.68, 17.69 au
Average spatial batch extension              ...   0.33,  0.28,  0.29 au

Time for grid setup =    7.796 sec

------------------------------
INITIAL GUESS: MODEL POTENTIAL
------------------------------
Loading Hartree-Fock densities                     ... done
Calculating cut-offs                               ... done
Setting up the integral package                    ... done
Initializing the effective Hamiltonian             ... done
Starting the Coulomb interaction                   ... done (   1.2 sec)
Reading the grid                                   ... done
Mapping shells                                     ... done
Starting the XC term evaluation                    ... done (   1.2 sec)
  promolecular density results
     # of electrons  =    485.987541707
     EX              =   -443.023415233
     EC              =    -16.746317072
     EX+EC           =   -459.769732305
Transforming the Hamiltonian                       ... done (   0.1 sec)
Diagonalizing the Hamiltonian                      ... done (   0.2 sec)
Back transforming the eigenvectors                 ... done (   0.0 sec)
Now organizing SCF variables                       ... done
                      ------------------
                      INITIAL GUESS DONE (  10.6 sec)
                      ------------------
--------------------
COSX GRID GENERATION
--------------------

General Integration Accuracy     IntAcc      ...  3.340
Radial Grid Type                 RadialGrid  ... Gauss-Chebyshev
Angular Grid (max. acc.)         AngularGrid ... Lebedev-50
Angular grid pruning method      GridPruning ... 3 (G Style)
Weight generation scheme         WeightScheme... Becke
Basis function cutoff            BFCut       ...    1.0000e-11
Integration weight cutoff        WCut        ...    1.0000e-14
Grids for H and He will be reduced by one unit

# of grid points (after initial pruning)     ...  47562 (   0.0 sec)
# of grid points (after weights+screening)   ...  42588 (   0.5 sec)
nearest neighbour list constructed           ...    0.0 sec
Grid point re-assignment to atoms done       ...    0.0 sec
Grid point division into batches done        ...    0.0 sec
Reduced shell lists constructed in    0.1 sec

Total number of grid points                  ...    42588
Total number of batches                      ...      710
Average number of points per batch           ...       59
Average number of grid points per atom       ...      463
Average number of shells per batch           ...   121.90 (25.03%)
Average number of basis functions per batch  ...   258.43 (23.73%)
Average number of large shells per batch     ...    74.71 (61.29%)
Average number of large basis fcns per batch ...   161.57 (62.52%)
Maximum spatial batch extension              ...  17.92, 13.80, 15.26 au
Average spatial batch extension              ...   0.80,  0.52,  0.60 au

Overlap Fitting                  UseSFitting ... on
Constructing numerical overlap ... done (      0.1 sec)
Inverting numerical overlap    ... done (      0.1 sec)
Obtaining analytic overlap     ... done (      0.0 sec)
Final contraction and storage  ... done (      0.1 sec)


General Integration Accuracy     IntAcc      ...  3.670
Radial Grid Type                 RadialGrid  ... Gauss-Chebyshev
Angular Grid (max. acc.)         AngularGrid ... Lebedev-50
Angular grid pruning method      GridPruning ... 3 (G Style)
Weight generation scheme         WeightScheme... Becke
Basis function cutoff            BFCut       ...    1.0000e-11
Integration weight cutoff        WCut        ...    1.0000e-14
Grids for H and He will be reduced by one unit

# of grid points (after initial pruning)     ...  59358 (   0.0 sec)
# of grid points (after weights+screening)   ...  52919 (   0.6 sec)
nearest neighbour list constructed           ...    0.0 sec
Grid point re-assignment to atoms done       ...    0.0 sec
Grid point division into batches done        ...    0.0 sec
Reduced shell lists constructed in    0.2 sec

Total number of grid points                  ...    52919
Total number of batches                      ...      869
Average number of points per batch           ...       60
Average number of grid points per atom       ...      575
Average number of shells per batch           ...   120.33 (24.71%)
Average number of basis functions per batch  ...   255.40 (23.45%)
Average number of large shells per batch     ...    73.67 (61.22%)
Average number of large basis fcns per batch ...   159.23 (62.35%)
Maximum spatial batch extension              ...  18.03, 14.41, 16.39 au
Average spatial batch extension              ...   0.70,  0.47,  0.53 au

Overlap Fitting                  UseSFitting ... on
Constructing numerical overlap ... done (      0.1 sec)
Inverting numerical overlap    ... done (      0.1 sec)
Obtaining analytic overlap     ... done (      0.0 sec)
Final contraction and storage  ... done (      0.0 sec)


General Integration Accuracy     IntAcc      ...  4.010
Radial Grid Type                 RadialGrid  ... Gauss-Chebyshev
Angular Grid (max. acc.)         AngularGrid ... Lebedev-110
Angular grid pruning method      GridPruning ... 3 (G Style)
Weight generation scheme         WeightScheme... Becke
Basis function cutoff            BFCut       ...    1.0000e-11
Integration weight cutoff        WCut        ...    1.0000e-14
Grids for H and He will be reduced by one unit

# of grid points (after initial pruning)     ... 116432 (   0.0 sec)
# of grid points (after weights+screening)   ... 102481 (   1.2 sec)
nearest neighbour list constructed           ...    0.0 sec
Grid point re-assignment to atoms done       ...    0.0 sec
Grid point division into batches done        ...    0.1 sec
Reduced shell lists constructed in    0.3 sec

Total number of grid points                  ...   102481
Total number of batches                      ...     1646
Average number of points per batch           ...       62
Average number of grid points per atom       ...     1114
Average number of shells per batch           ...   114.64 (23.54%)
Average number of basis functions per batch  ...   242.26 (22.25%)
Average number of large shells per batch     ...    70.60 (61.59%)
Average number of large basis fcns per batch ...   151.70 (62.62%)
Maximum spatial batch extension              ...  20.23, 14.45, 15.82 au
Average spatial batch extension              ...   0.58,  0.43,  0.48 au

Overlap Fitting                  UseSFitting ... on
Constructing numerical overlap ... done (      0.2 sec)
Inverting numerical overlap    ... done (      0.1 sec)
Obtaining analytic overlap     ... done (      0.0 sec)
Final contraction and storage  ... done (      0.1 sec)

Time for X-Grid setup             =    3.786 sec
--------------
SCF ITERATIONS
--------------
ITER       Energy         Delta-E        Max-DP      RMS-DP      [F,P]     Damp
               ***  Starting incremental Fock matrix formation  ***
  0  -3886.2377348143   0.000000000000 0.11351531  0.00116098  0.2344789 0.7000
  1  -3886.8331617607  -0.595426946336 0.06937246  0.00076216  0.0954413 0.7000
                               ***Turning on DIIS***
  2  -3887.0614608742  -0.228299113500 0.06646529  0.00124696  0.0309549 0.0000
  3  -3887.4823308175  -0.420869943382 0.05185053  0.00052534  0.0512430 0.0000
  4  -3887.5383179099  -0.055987092413 0.01540309  0.00014306  0.0233118 0.0000
  5  -3887.5441420780  -0.005824168085 0.00557329  0.00004958  0.0036750 0.0000
                      *** Initiating the SOSCF procedure ***
                           *** Shutting down DIIS ***
                      *** Re-Reading the Fockian *** 
                      *** Removing any level shift *** 
ITER      Energy       Delta-E        Grad      Rot      Max-DP    RMS-DP
  6  -3887.54460268  -0.0004606035  0.001165  0.001165  0.001989  0.000026
               *** Restarting incremental Fock matrix formation ***
  7  -3887.54469250  -0.0000898177  0.000654  0.002672  0.002579  0.000025
  8  -3887.54474998  -0.0000574805  0.000900  0.002424  0.002138  0.000024
  9  -3887.54478502  -0.0000350425  0.000448  0.000771  0.001174  0.000010
 10  -3887.54479397  -0.0000089508  0.000178  0.000396  0.000477  0.000005
 11  -3887.54479564  -0.0000016704  0.000112  0.000321  0.000248  0.000003
 12  -3887.54479672  -0.0000010794  0.000033  0.000117  0.000133  0.000001
 13  -3887.54479676  -0.0000000385  0.000035  0.000053  0.000097  0.000001
 14  -3887.54479686  -0.0000000981  0.000010  0.000048  0.000040  0.000000
 15  -3887.54479688  -0.0000000165  0.000009  0.000020  0.000019  0.000000
 16  -3887.54479688  -0.0000000079  0.000003  0.000020  0.000008  0.000000
                  ***Gradient check signals convergence***
              ***Rediagonalizing the Fockian in SOSCF/NRSCF***

               *****************************************************
               *                     SUCCESS                       *
               *           SCF CONVERGED AFTER  17 CYCLES          *
               *****************************************************

Setting up the final grid:

General Integration Accuracy     IntAcc      ...  5.010
Radial Grid Type                 RadialGrid  ... Gauss-Chebyshev
Angular Grid (max. acc.)         AngularGrid ... Lebedev-434
Angular grid pruning method      GridPruning ... 3 (G Style)
Weight generation scheme         WeightScheme... Becke
Basis function cutoff            BFCut       ...    1.0000e-11
Integration weight cutoff        WCut        ...    1.0000e-14
Grids for H and He will be reduced by one unit

# of grid points (after initial pruning)     ... 895350 (   0.0 sec)
# of grid points (after weights+screening)   ... 761416 (   8.6 sec)
nearest neighbour list constructed           ...    0.0 sec
Grid point re-assignment to atoms done       ...    0.1 sec
Grid point division into batches done        ...    5.0 sec
Reduced shell lists constructed in    6.6 sec

Total number of grid points                  ...   761416
Total number of batches                      ...    11944
Average number of points per batch           ...       63
Average number of grid points per atom       ...     8276
Average number of shells per batch           ...   100.03 (20.54%)
Average number of basis functions per batch  ...   209.57 (19.24%)
Average number of large shells per batch     ...    61.56 (61.54%)
Average number of large basis fcns per batch ...   131.24 (62.63%)
Maximum spatial batch extension              ...  22.42, 16.20, 14.86 au
Average spatial batch extension              ...   0.26,  0.23,  0.24 au

Final grid set up in   15.7 sec
Final integration                            ... done (   2.9 sec)
Change in XC energy                          ...    -0.000085127
Integrated number of electrons               ...   486.000041972
Previous integrated no of electrons          ...   485.999508713
Old exchange energy                            =   -123.482356985 Eh
New exchange energy                            =   -123.481693796 Eh
Exchange energy change after final integration =      0.000663188 Eh
Total energy after final integration           =  -3887.544218781 Eh
Final COS-X integration done in                =    52.981 sec

----------------
TOTAL SCF ENERGY
----------------

Total Energy       :        -3887.54421878 Eh         -105785.45622 eV

Components:
Nuclear Repulsion  :         9664.28737018 Eh          262978.62892 eV
Electronic Energy  :       -13551.83158896 Eh         -368764.08514 eV
One Electron Energy:       -24556.39962806 Eh         -668213.60520 eV
Two Electron Energy:        11004.56803910 Eh          299449.52006 eV

Virial components:
Potential Energy   :        -7747.37003017 Eh         -210816.65623 eV
Kinetic Energy     :         3859.82581139 Eh          105031.20001 eV
Virial Ratio       :            2.00718126


DFT components:
N(Alpha)           :      243.000020986172 electrons
N(Beta)            :      243.000020986172 electrons
N(Total)           :      486.000041972344 electrons
E(XC)              :     -343.757327514748 Eh       
DFET-embed. en.    :        0.000000000000 Eh       

---------------
SCF CONVERGENCE
---------------

  Last Energy change         ...    4.1457e-08  Tolerance :   1.0000e-08
  Last MAX-Density change    ...    6.6613e-15  Tolerance :   1.0000e-07
  Last RMS-Density change    ...    3.5374e-17  Tolerance :   5.0000e-09
  Last Orbital Gradient      ...    1.5660e-06  Tolerance :   1.0000e-05
  Last Orbital Rotation      ...    8.7253e-06  Tolerance :   1.0000e-05

             **** THE GBW FILE WAS UPDATED (xtbopt.gbw) ****
             **** DENSITY FILE WAS UPDATED (xtbopt.scfp) ****
             **** ENERGY FILE WAS UPDATED (xtbopt.en.tmp) ****
             **** THE GBW FILE WAS UPDATED (xtbopt.gbw) ****
             **** DENSITY FILE WAS UPDATED (xtbopt.scfp) ****
----------------
ORBITAL ENERGIES
----------------

  NO   OCC          E(Eh)            E(eV) 
   0   2.0000     -88.953617     -2420.5510 
   1   2.0000     -88.953357     -2420.5439 
   2   2.0000     -19.258141      -524.0407 
   3   2.0000     -19.256230      -523.9886 
   4   2.0000     -19.248646      -523.7823 
   5   2.0000     -19.247058      -523.7391 
   6   2.0000     -19.246885      -523.7344 
   7   2.0000     -19.246545      -523.7251 
   8   2.0000     -19.246061      -523.7119 
   9   2.0000     -19.245539      -523.6977 
  10   2.0000     -19.244937      -523.6814 
  11   2.0000     -19.243966      -523.6549 
  12   2.0000     -19.231256      -523.3091 
  13   2.0000     -19.215987      -522.8936 
  14   2.0000     -14.664892      -399.0520 
  15   2.0000     -14.656533      -398.8245 
  16   2.0000     -14.650413      -398.6580 
  17   2.0000     -14.435972      -392.8228 
  18   2.0000     -14.428169      -392.6104 
  19   2.0000     -10.409715      -283.2628 
  20   2.0000     -10.409282      -283.2510 
  21   2.0000     -10.407727      -283.2086 
  22   2.0000     -10.407159      -283.1932 
  23   2.0000     -10.381029      -282.4822 
  24   2.0000     -10.358246      -281.8622 
  25   2.0000     -10.357122      -281.8316 
  26   2.0000     -10.351421      -281.6765 
  27   2.0000     -10.340416      -281.3770 
  28   2.0000     -10.339550      -281.3535 
  29   2.0000     -10.338765      -281.3321 
  30   2.0000     -10.338584      -281.3272 
  31   2.0000     -10.337854      -281.3073 
  32   2.0000     -10.335337      -281.2388 
  33   2.0000     -10.334003      -281.2025 
  34   2.0000     -10.333438      -281.1871 
  35   2.0000     -10.332215      -281.1539 
  36   2.0000     -10.331670      -281.1390 
  37   2.0000     -10.330158      -281.0979 
  38   2.0000     -10.329813      -281.0885 
  39   2.0000     -10.329559      -281.0816 
  40   2.0000     -10.329415      -281.0777 
  41   2.0000     -10.327908      -281.0367 
  42   2.0000     -10.323123      -280.9065 
  43   2.0000     -10.323010      -280.9034 
  44   2.0000     -10.319501      -280.8079 
  45   2.0000     -10.315010      -280.6857 
  46   2.0000     -10.309516      -280.5362 
  47   2.0000     -10.309352      -280.5317 
  48   2.0000     -10.308496      -280.5084 
  49   2.0000     -10.308305      -280.5032 
  50   2.0000     -10.308065      -280.4967 
  51   2.0000     -10.307906      -280.4924 
  52   2.0000     -10.302133      -280.3353 
  53   2.0000     -10.301887      -280.3286 
  54   2.0000     -10.299800      -280.2718 
  55   2.0000     -10.296950      -280.1943 
  56   2.0000     -10.296473      -280.1813 
  57   2.0000     -10.295765      -280.1620 
  58   2.0000     -10.295575      -280.1568 
  59   2.0000     -10.295401      -280.1521 
  60   2.0000     -10.295019      -280.1417 
  61   2.0000     -10.294859      -280.1373 
  62   2.0000     -10.294786      -280.1354 
  63   2.0000     -10.294771      -280.1350 
  64   2.0000     -10.294212      -280.1198 
  65   2.0000     -10.293990      -280.1137 
  66   2.0000     -10.291380      -280.0427 
  67   2.0000     -10.290800      -280.0269 
  68   2.0000     -10.284800      -279.8636 
  69   2.0000      -8.052865      -219.1296 
  70   2.0000      -8.052670      -219.1243 
  71   2.0000      -6.021715      -163.8592 
  72   2.0000      -6.021499      -163.8533 
  73   2.0000      -6.018456      -163.7705 
  74   2.0000      -6.018253      -163.7650 
  75   2.0000      -6.013923      -163.6472 
  76   2.0000      -6.013742      -163.6422 
  77   2.0000      -1.336690       -36.3732 
  78   2.0000      -1.326941       -36.1079 
  79   2.0000      -1.325974       -36.0816 
  80   2.0000      -1.172128       -31.8952 
  81   2.0000      -1.171241       -31.8711 
  82   2.0000      -1.168027       -31.7836 
  83   2.0000      -1.167356       -31.7654 
  84   2.0000      -1.154632       -31.4191 
  85   2.0000      -1.146485       -31.1975 
  86   2.0000      -1.144472       -31.1427 
  87   2.0000      -1.144411       -31.1410 
  88   2.0000      -1.142635       -31.0927 
  89   2.0000      -1.037330       -28.2272 
  90   2.0000      -1.026026       -27.9196 
  91   2.0000      -1.020907       -27.7803 
  92   2.0000      -1.014088       -27.5947 
  93   2.0000      -1.009642       -27.4738 
  94   2.0000      -1.006269       -27.3820 
  95   2.0000      -0.991000       -26.9665 
  96   2.0000      -0.982861       -26.7450 
  97   2.0000      -0.968067       -26.3424 
  98   2.0000      -0.937120       -25.5003 
  99   2.0000      -0.933416       -25.3995 
 100   2.0000      -0.922626       -25.1059 
 101   2.0000      -0.920863       -25.0580 
 102   2.0000      -0.917864       -24.9763 
 103   2.0000      -0.911494       -24.8030 
 104   2.0000      -0.908843       -24.7309 
 105   2.0000      -0.893244       -24.3064 
 106   2.0000      -0.892143       -24.2764 
 107   2.0000      -0.891350       -24.2549 
 108   2.0000      -0.886582       -24.1251 
 109   2.0000      -0.857002       -23.3202 
 110   2.0000      -0.853522       -23.2255 
 111   2.0000      -0.847643       -23.0655 
 112   2.0000      -0.839333       -22.8394 
 113   2.0000      -0.837634       -22.7932 
 114   2.0000      -0.817028       -22.2325 
 115   2.0000      -0.810746       -22.0615 
 116   2.0000      -0.796961       -21.6864 
 117   2.0000      -0.791072       -21.5262 
 118   2.0000      -0.788571       -21.4581 
 119   2.0000      -0.773056       -21.0359 
 120   2.0000      -0.771433       -20.9918 
 121   2.0000      -0.756970       -20.5982 
 122   2.0000      -0.737131       -20.0583 
 123   2.0000      -0.733829       -19.9685 
 124   2.0000      -0.726862       -19.7789 
 125   2.0000      -0.718596       -19.5540 
 126   2.0000      -0.713994       -19.4288 
 127   2.0000      -0.706577       -19.2269 
 128   2.0000      -0.702734       -19.1224 
 129   2.0000      -0.696590       -18.9552 
 130   2.0000      -0.690898       -18.8003 
 131   2.0000      -0.681988       -18.5578 
 132   2.0000      -0.677296       -18.4302 
 133   2.0000      -0.664790       -18.0899 
 134   2.0000      -0.661754       -18.0072 
 135   2.0000      -0.657484       -17.8911 
 136   2.0000      -0.654302       -17.8045 
 137   2.0000      -0.651740       -17.7347 
 138   2.0000      -0.647221       -17.6118 
 139   2.0000      -0.645940       -17.5769 
 140   2.0000      -0.642386       -17.4802 
 141   2.0000      -0.637598       -17.3499 
 142   2.0000      -0.635071       -17.2812 
 143   2.0000      -0.632368       -17.2076 
 144   2.0000      -0.631998       -17.1975 
 145   2.0000      -0.629487       -17.1292 
 146   2.0000      -0.618748       -16.8370 
 147   2.0000      -0.618284       -16.8244 
 148   2.0000      -0.613402       -16.6915 
 149   2.0000      -0.612240       -16.6599 
 150   2.0000      -0.607932       -16.5427 
 151   2.0000      -0.604773       -16.4567 
 152   2.0000      -0.598137       -16.2761 
 153   2.0000      -0.593306       -16.1447 
 154   2.0000      -0.588937       -16.0258 
 155   2.0000      -0.588373       -16.0105 
 156   2.0000      -0.586634       -15.9631 
 157   2.0000      -0.577296       -15.7090 
 158   2.0000      -0.571297       -15.5458 
 159   2.0000      -0.569917       -15.5082 
 160   2.0000      -0.567414       -15.4401 
 161   2.0000      -0.562095       -15.2954 
 162   2.0000      -0.559910       -15.2359 
 163   2.0000      -0.556996       -15.1566 
 164   2.0000      -0.554141       -15.0789 
 165   2.0000      -0.550095       -14.9689 
 166   2.0000      -0.549219       -14.9450 
 167   2.0000      -0.548161       -14.9162 
 168   2.0000      -0.546373       -14.8676 
 169   2.0000      -0.543766       -14.7966 
 170   2.0000      -0.543341       -14.7851 
 171   2.0000      -0.541175       -14.7261 
 172   2.0000      -0.539822       -14.6893 
 173   2.0000      -0.534306       -14.5392 
 174   2.0000      -0.531353       -14.4589 
 175   2.0000      -0.529097       -14.3975 
 176   2.0000      -0.528648       -14.3852 
 177   2.0000      -0.524519       -14.2729 
 178   2.0000      -0.523701       -14.2506 
 179   2.0000      -0.519815       -14.1449 
 180   2.0000      -0.514383       -13.9971 
 181   2.0000      -0.513446       -13.9716 
 182   2.0000      -0.510891       -13.9020 
 183   2.0000      -0.510365       -13.8877 
 184   2.0000      -0.508855       -13.8466 
 185   2.0000      -0.506531       -13.7834 
 186   2.0000      -0.504966       -13.7408 
 187   2.0000      -0.501894       -13.6572 
 188   2.0000      -0.495522       -13.4838 
 189   2.0000      -0.493250       -13.4220 
 190   2.0000      -0.492770       -13.4090 
 191   2.0000      -0.485432       -13.2093 
 192   2.0000      -0.482785       -13.1373 
 193   2.0000      -0.480334       -13.0705 
 194   2.0000      -0.478902       -13.0316 
 195   2.0000      -0.475900       -12.9499 
 196   2.0000      -0.474075       -12.9002 
 197   2.0000      -0.471565       -12.8319 
 198   2.0000      -0.464296       -12.6341 
 199   2.0000      -0.461403       -12.5554 
 200   2.0000      -0.457306       -12.4439 
 201   2.0000      -0.455154       -12.3854 
 202   2.0000      -0.450756       -12.2657 
 203   2.0000      -0.448044       -12.1919 
 204   2.0000      -0.447155       -12.1677 
 205   2.0000      -0.443151       -12.0588 
 206   2.0000      -0.442595       -12.0436 
 207   2.0000      -0.439079       -11.9480 
 208   2.0000      -0.433432       -11.7943 
 209   2.0000      -0.426768       -11.6130 
 210   2.0000      -0.423964       -11.5366 
 211   2.0000      -0.417207       -11.3528 
 212   2.0000      -0.408492       -11.1156 
 213   2.0000      -0.401083       -10.9140 
 214   2.0000      -0.399075       -10.8594 
 215   2.0000      -0.397825       -10.8254 
 216   2.0000      -0.396121       -10.7790 
 217   2.0000      -0.388297       -10.5661 
 218   2.0000      -0.387572       -10.5464 
 219   2.0000      -0.386325       -10.5124 
 220   2.0000      -0.383363       -10.4318 
 221   2.0000      -0.379176       -10.3179 
 222   2.0000      -0.378251       -10.2927 
 223   2.0000      -0.377202       -10.2642 
 224   2.0000      -0.376146       -10.2354 
 225   2.0000      -0.373097       -10.1525 
 226   2.0000      -0.367425        -9.9981 
 227   2.0000      -0.365168        -9.9367 
 228   2.0000      -0.362898        -9.8750 
 229   2.0000      -0.355783        -9.6813 
 230   2.0000      -0.354378        -9.6431 
 231   2.0000      -0.350677        -9.5424 
 232   2.0000      -0.349300        -9.5049 
 233   2.0000      -0.346934        -9.4406 
 234   2.0000      -0.346494        -9.4286 
 235   2.0000      -0.345610        -9.4045 
 236   2.0000      -0.340442        -9.2639 
 237   2.0000      -0.338758        -9.2181 
 238   2.0000      -0.327558        -8.9133 
 239   2.0000      -0.319955        -8.7064 
 240   2.0000      -0.304246        -8.2790 
 241   2.0000      -0.303082        -8.2473 
 242   2.0000      -0.298693        -8.1279 
 243   0.0000      -0.135677        -3.6920 
 244   0.0000      -0.098749        -2.6871 
 245   0.0000      -0.096964        -2.6385 
 246   0.0000      -0.066587        -1.8119 
 247   0.0000      -0.065616        -1.7855 
 248   0.0000      -0.053869        -1.4658 
 249   0.0000      -0.047755        -1.2995 
 250   0.0000      -0.036913        -1.0044 
 251   0.0000      -0.030386        -0.8268 
 252   0.0000      -0.016637        -0.4527 
 253   0.0000       0.002487         0.0677 
 254   0.0000       0.006484         0.1764 
 255   0.0000       0.024286         0.6608 
 256   0.0000       0.027796         0.7564 
 257   0.0000       0.033702         0.9171 
 258   0.0000       0.040021         1.0890 
 259   0.0000       0.050376         1.3708 
 260   0.0000       0.055238         1.5031 
 261   0.0000       0.057585         1.5670 
 262   0.0000       0.060298         1.6408 
 263   0.0000       0.070076         1.9069 
 264   0.0000       0.074395         2.0244 
 265   0.0000       0.085310         2.3214 
 266   0.0000       0.088965         2.4208 
 267   0.0000       0.090882         2.4730 
 268   0.0000       0.093394         2.5414 
 269   0.0000       0.094762         2.5786 
 270   0.0000       0.097135         2.6432 
 271   0.0000       0.102492         2.7890 
 272   0.0000       0.103989         2.8297 
 273   0.0000       0.108032         2.9397 
 274   0.0000       0.112474         3.0606 
 275   0.0000       0.116262         3.1637 
 276   0.0000       0.121056         3.2941 
 277   0.0000       0.121973         3.3191 
 278   0.0000       0.128107         3.4860 
 279   0.0000       0.129349         3.5198 
 280   0.0000       0.130791         3.5590 
 281   0.0000       0.134455         3.6587 
 282   0.0000       0.140395         3.8203 
 283   0.0000       0.145231         3.9519 
 284   0.0000       0.148145         4.0312 
 285   0.0000       0.151118         4.1121 
 286   0.0000       0.154310         4.1990 
 287   0.0000       0.158013         4.2998 
 288   0.0000       0.159107         4.3295 
 289   0.0000       0.163941         4.4611 
 290   0.0000       0.164578         4.4784 
 291   0.0000       0.171438         4.6651 
 292   0.0000       0.171706         4.6723 
 293   0.0000       0.172176         4.6851 
 294   0.0000       0.180095         4.9006 
 295   0.0000       0.184375         5.0171 
 296   0.0000       0.185278         5.0417 
 297   0.0000       0.191470         5.2102 
 298   0.0000       0.196682         5.3520 
 299   0.0000       0.201373         5.4797 
 300   0.0000       0.203205         5.5295 
 301   0.0000       0.205702         5.5974 
 302   0.0000       0.211227         5.7478 
 303   0.0000       0.212544         5.7836 
 304   0.0000       0.214423         5.8348 
 305   0.0000       0.217389         5.9154 
 306   0.0000       0.224270         6.1027 
 307   0.0000       0.225939         6.1481 
 308   0.0000       0.229831         6.2540 
 309   0.0000       0.231757         6.3064 
 310   0.0000       0.233005         6.3404 
 311   0.0000       0.235175         6.3995 
 312   0.0000       0.237330         6.4581 
 313   0.0000       0.242090         6.5876 
 314   0.0000       0.249285         6.7834 
 315   0.0000       0.252871         6.8810 
 316   0.0000       0.258205         7.0261 
 317   0.0000       0.263368         7.1666 
 318   0.0000       0.269783         7.3412 
 319   0.0000       0.273411         7.4399 
 320   0.0000       0.278994         7.5918 
 321   0.0000       0.282143         7.6775 
 322   0.0000       0.283072         7.7028 
 323   0.0000       0.285159         7.7596 
 324   0.0000       0.287722         7.8293 
 325   0.0000       0.289731         7.8840 
 326   0.0000       0.294679         8.0186 
 327   0.0000       0.300402         8.1744 
 328   0.0000       0.304605         8.2887 
 329   0.0000       0.308260         8.3882 
 330   0.0000       0.312296         8.4980 
 331   0.0000       0.313527         8.5315 
 332   0.0000       0.314218         8.5503 
 333   0.0000       0.315499         8.5852 
 334   0.0000       0.319730         8.7003 
 335   0.0000       0.320924         8.7328 
 336   0.0000       0.324611         8.8331 
 337   0.0000       0.327180         8.9030 
 338   0.0000       0.327802         8.9199 
 339   0.0000       0.332805         9.0561 
 340   0.0000       0.337527         9.1846 
[...]
  32   4.344     285.4   0.579698   0.524132  97.831539  94.291473     0.24 (  92->  99)    0.22 (  90->  97)    0.17 (  85->  97)
  33   4.376     283.3   0.030745   0.028385  33.498955  32.777044     0.35 (  93->  97)    0.16 (  75->  96)    0.09 (  94->  97)
  34   4.381     283.0   0.025102   0.022572  -74.931579  -71.915388     0.28 (  93->  97)    0.19 (  75->  96)    0.07 (  94->  97)
  35   4.459     278.1   0.080487   0.074529  -63.806726  -59.612539     0.23 (  94->  99)    0.20 (  91->  99)    0.08 (  85->  99)
  36   4.483     276.6   0.057827   0.053303  33.551530  31.897390     0.18 (  77-> 101)    0.13 (  77->  98)    0.11 (  88->  98)
  37   4.510     274.9   0.003584   0.003125   6.109870   5.660227     0.36 (  70->  95)    0.25 (  69->  95)    0.12 (  71->  95)
  38   4.542     272.9   0.048823   0.043218  -6.029350  -5.167054     0.14 (  91-> 100)    0.09 (  83->  97)    0.09 (  94-> 102)
  39   4.590     270.1   0.009814   0.008706  -35.385117  -33.991360     0.39 (  88->  96)    0.12 (  83->  96)    0.08 (  84->  96)
  40   4.599     269.6   0.240297   0.211164  50.638343  44.365726     0.17 (  83->  97)    0.13 (  84->  97)    0.12 (  67->  95)
  41   4.667     265.7   0.032244   0.027278  -9.253750  -7.867986     0.26 (  91->  99)    0.20 (  67->  95)    0.15 (  94->  99)
  42   4.686     264.6   0.137849   0.116165  94.165594  86.391968     0.14 (  83->  95)    0.10 (  84->  95)    0.10 (  80->  97)
  43   4.693     264.2   0.082619   0.069762  30.244763  27.994350     0.29 (  84->  95)    0.14 (  83->  95)    0.07 (  87->  95)
  44   4.713     263.0   0.000996   0.000857   1.638436   1.576838     0.86 (  87->  95)    0.07 (  84->  95)    0.04 (  83->  95)
  45   4.733     262.0   0.035660   0.029904  61.310398  56.251240     0.60 (  89->  97)    0.06 (  83->  97)    0.05 (  84->  97)
  46   4.764     260.2   0.187055   0.153731  -88.314426  -73.498387     0.11 (  94-> 102)    0.10 (  80->  97)    0.07 (  91-> 100)
  47   4.775     259.7   0.078835   0.066018  -9.968122  -10.061446     0.43 (  94->  98)    0.13 (  93->  98)    0.06 (  94-> 101)
  48   4.807     257.9   0.004517   0.003810   0.888505  -1.261801     0.71 (  86->  96)    0.08 (  88->  96)    0.02 (  71->  96)
  49   4.843     256.0   0.000083   0.000069   0.129223   0.098720     0.88 (  92->  96)    0.06 (  93->  96)    0.05 (  91->  96)
  50   4.883     253.9   0.000863   0.000913  -3.328876  -3.343730     0.65 (  82->  95)    0.20 (  81->  95)    0.02 (  83->  95)
  51   4.907     252.7   0.135961   0.112022  130.834154  119.898406     0.29 (  92-> 100)    0.11 (  92-> 102)    0.07 (  90->  99)
  52   4.909     252.6   0.017353   0.015566  -90.621563  -88.860033     0.16 (  78-> 100)    0.09 (  78-> 102)    0.06 (  76-> 100)
  53   4.914     252.3   0.050533   0.041328  58.867153  47.552757     0.26 (  88->  98)    0.12 (  84->  98)    0.09 (  93-> 103)
  54   4.939     251.0   0.105217   0.086204  -23.248199  -19.440363     0.17 (  80->  97)    0.15 (  69->  95)    0.12 (  70->  95)
  55   4.958     250.1   0.070583   0.062338  -10.459036  -8.293555     0.16 (  76->  97)    0.16 (  90->  99)    0.10 (  73->  97)
  56   4.964     249.8   0.006726   0.005913   0.873166   0.865043     0.65 (  81->  95)    0.21 (  82->  95)    0.01 (  76->  97)

-----------------------------------------------------------------------------
         ABSORPTION SPECTRUM VIA TRANSITION ELECTRIC DIPOLE MOMENTS
-----------------------------------------------------------------------------
State   Energy  Wavelength   fosc         T2         TX        TY        TZ  
        (cm-1)    (nm)                  (au**2)     (au)      (au)      (au) 
-----------------------------------------------------------------------------
   0   15557.6    642.8   0.058854256   1.24540   0.30469   1.07064  -0.07939
   1   18867.8    530.0   0.017020111   0.29697  -0.19967   0.16267  -0.48025
   2   21590.5    463.2   0.032484389   0.49532   0.20799   0.63694  -0.21534
   3   23481.2    425.9   0.024026736   0.33686   0.49202  -0.18887   0.24312
   4   24588.1    406.7   0.003782917   0.05065  -0.01434  -0.20011  -0.10198
   5   24776.6    403.6   0.001734412   0.02305   0.03990   0.05588   0.13539
   6   26197.2    381.7   0.024934195   0.31334  -0.25718   0.40257   0.29178
   7   26273.3    380.6   0.035158406   0.44054  -0.20940  -0.27770   0.56531
   8   26432.0    378.3   0.019763584   0.24616  -0.28085   0.11895  -0.39132
   9   28127.2    355.5   0.058635745   0.68630  -0.78568   0.00251   0.26267
  10   28451.7    351.5   0.003847040   0.04451   0.01886  -0.02294  -0.20888
  11   28611.4    349.5   0.057984566   0.66719   0.62648   0.48468  -0.19948
  12   28965.2    345.2   0.030457006   0.34617   0.50173   0.23931  -0.19278
  13   29239.3    342.0   0.270211660   3.04237  -0.61517  -1.38503   0.86349
  14   29350.7    340.7   0.020486553   0.22979  -0.07490  -0.46131   0.10664
  15   29576.9    338.1   0.028502519   0.31725   0.21793  -0.35828   0.37602
  16   30363.5    329.3   0.086969149   0.94295   0.86562  -0.02455  -0.43937
  17   31040.4    322.2   0.429696982   4.55733   1.37200   1.21367  -1.09634
  18   31174.1    320.8   0.051920132   0.54830  -0.62385   0.22898  -0.32662
  19   31372.0    318.8   0.079924368   0.83871  -0.60292  -0.68890  -0.02481
  20   32120.9    311.3   0.016213116   0.16617  -0.29109  -0.28241   0.04105
  21   32499.5    307.7   0.003162600   0.03204   0.13077   0.10518  -0.06223
  22   32702.8    305.8   0.012500421   0.12584   0.33822  -0.07191   0.07920
  23   32908.5    303.9   0.004836209   0.04838  -0.02243   0.05730   0.21117
  24   33281.6    300.5   0.028662512   0.28352  -0.19488   0.45050  -0.20637
  25   33610.3    297.5   0.053560967   0.52463   0.52866   0.38030  -0.31704
  26   33689.5    296.8   0.022493832   0.21981   0.23454  -0.24513  -0.32359
  27   33902.1    295.0   0.310607035   3.01620  -1.12811  -0.89890   0.96724
  28   34257.1    291.9   0.276496109   2.65714  -0.51176  -1.54737  -0.02983
  29   34429.8    290.4   0.009534481   0.09117   0.00148  -0.24327   0.17884
  30   34848.2    287.0   0.003957277   0.03738  -0.07411   0.14893   0.09855
  31   34917.5    286.4   0.013171398   0.12418   0.04719  -0.31552   0.14967
  32   35040.3    285.4   0.579698430   5.44641  -0.11330  -2.28071   0.48160
  33   35292.2    283.3   0.030744894   0.28679  -0.13239  -0.45733   0.24518
  34   35338.2    283.0   0.025102032   0.23385  -0.32638   0.24265   0.26163
  35   35961.9    278.1   0.080487482   0.73682   0.83419   0.02197  -0.20117
  36   36158.4    276.6   0.057827497   0.52650  -0.26246   0.51991   0.43279
  37   36375.0    274.9   0.003584026   0.03244   0.08922   0.15612   0.01029
  38   36637.4    272.9   0.048823469   0.43871   0.44158   0.44873  -0.20582
  39   37018.1    270.1   0.009813966   0.08728  -0.17179   0.12324  -0.20635
  40   37092.7    269.6   0.240297355   2.13273   1.31903  -0.20677  -0.59173
  41   37642.3    265.7   0.032244292   0.28200  -0.35117   0.37582  -0.13206
  42   37792.0    264.6   0.137848953   1.20082  -1.01824  -0.04670   0.40228
  43   37851.0    264.2   0.082619164   0.71859   0.79816  -0.00696  -0.28544
  44   38015.9    263.0   0.000996118   0.00863   0.08977  -0.02336  -0.00469
  45   38170.3    262.0   0.035659679   0.30756   0.54051  -0.12284  -0.01785
  46   38426.2    260.2   0.187054715   1.60257  -0.89034  -0.62844   0.64415
  47   38511.7    259.7   0.078835321   0.67391   0.59382   0.54144  -0.16773
  48   38769.5    257.9   0.004517232   0.03836  -0.18790  -0.00846   0.05459
  49   39063.8    256.0   0.000083061   0.00070   0.02242   0.00204  -0.01390
  50   39382.7    253.9   0.000862662   0.00721   0.06630  -0.05113  -0.01418
  51   39576.0    252.7   0.135960701   1.13099  -0.66542  -0.42237   0.71401
  52   39593.2    252.6   0.017353047   0.14429  -0.35682  -0.10602   0.07568
  53   39630.2    252.3   0.050532558   0.41978   0.29947   0.51657  -0.25149
  54   39839.1    251.0   0.105216588   0.86946   0.08074  -0.68453   0.62798
  55   39991.7    250.1   0.070582947   0.58104  -0.22719   0.38774   0.61569
  56   40039.5    249.8   0.006725762   0.05530   0.09274  -0.14696  -0.15844

-----------------------------------------------------------------------------
         ABSORPTION SPECTRUM VIA TRANSITION VELOCITY DIPOLE MOMENTS
-----------------------------------------------------------------------------
State   Energy  Wavelength   fosc         P2         PX        PY        PZ  
        (cm-1)    (nm)                  (au**2)     (au)      (au)      (au) 
-----------------------------------------------------------------------------
   0   15557.6    642.8   0.060031730   0.00638   0.02209   0.07669  -0.00365
   1   18867.8    530.0   0.016740937   0.00216  -0.01771   0.01355  -0.04076
   2   21590.5    463.2   0.032265869   0.00476   0.01983   0.06315  -0.01948
   3   23481.2    425.9   0.024353121   0.00391   0.05094  -0.02245   0.02844
   4   24588.1    406.7   0.004245298   0.00071  -0.00113  -0.02378  -0.01210
   5   24776.6    403.6   0.001766688   0.00030   0.00371   0.00397   0.01642
   6   26197.2    381.7   0.026338605   0.00472  -0.03188   0.04969   0.03508
   7   26273.3    380.6   0.034255722   0.00615  -0.02515  -0.03510   0.06547
   8   26432.0    378.3   0.017812880   0.00322  -0.02932   0.01588  -0.04589
   9   28127.2    355.5   0.058114723   0.01117  -0.09922   0.00435   0.03616
  10   28451.7    351.5   0.003704369   0.00072   0.00343  -0.00458  -0.02622
  11   28611.4    349.5   0.058903902   0.01152   0.08088   0.06522  -0.02688
  12   28965.2    345.2   0.028503879   0.00564   0.06383   0.03168  -0.02376
  13   29239.3    342.0   0.248577553   0.04967  -0.07803  -0.17802   0.10906
  14   29350.7    340.7   0.019840423   0.00398  -0.00987  -0.06079   0.01369
  15   29576.9    338.1   0.025591760   0.00517   0.02976  -0.04679   0.04581
  16   30363.5    329.3   0.084479468   0.01753   0.11623  -0.00443  -0.06326
  17   31040.4    322.2   0.395137439   0.08383   0.18725   0.16697  -0.14452
  18   31174.1    320.8   0.047215834   0.01006  -0.08471   0.03280  -0.04252
  19   31372.0    318.8   0.074055496   0.01588  -0.08287  -0.09485  -0.00387
  20   32120.9    311.3   0.010277527   0.00226  -0.03393  -0.03313   0.00278
  21   32499.5    307.7   0.002933889   0.00065   0.01961   0.01405  -0.00836
  22   32702.8    305.8   0.010747744   0.00240   0.04720  -0.01008   0.00852
  23   32908.5    303.9   0.004322956   0.00097  -0.00435   0.00641   0.03020
  24   33281.6    300.5   0.027413297   0.00624  -0.03010   0.06481  -0.03361
  25   33610.3    297.5   0.048255680   0.01108   0.07951   0.05268  -0.04458
  26   33689.5    296.8   0.019256513   0.00443   0.03390  -0.03581  -0.04474
  27   33902.1    295.0   0.281577261   0.06524  -0.16491  -0.13271   0.14295
  28   34257.1    291.9   0.255536072   0.05983  -0.07527  -0.23270  -0.00364
  29   34429.8    290.4   0.008428795   0.00198  -0.00003  -0.03584   0.02644
  30   34848.2    287.0   0.003962711   0.00094  -0.01372   0.02513   0.01113
  31   34917.5    286.4   0.013755005   0.00328   0.01021  -0.05093   0.02417
  32   35040.3    285.4   0.524132007   0.12552  -0.01693  -0.34600   0.07428
  33   35292.2    283.3   0.028385440   0.00685  -0.02018  -0.07036   0.03858
  34   35338.2    283.0   0.022572266   0.00545  -0.04951   0.03814   0.03931
  35   35961.9    278.1   0.074528773   0.01832   0.13128   0.00244  -0.03281
  36   36158.4    276.6   0.053303359   0.01317  -0.04130   0.08266   0.06808
  37   36375.0    274.9   0.003125392   0.00078   0.01505   0.02346   0.00030
  38   36637.4    272.9   0.043217937   0.01082   0.06825   0.07168  -0.03203
  39   37018.1    270.1   0.008706483   0.00220  -0.02703   0.01963  -0.03296
  40   37092.7    269.6   0.211164460   0.05353   0.20899  -0.03573  -0.09262
  41   37642.3    265.7   0.027277822   0.00702  -0.05668   0.05828  -0.02021
  42   37792.0    264.6   0.116165145   0.03000  -0.16097  -0.00685   0.06360
  43   37851.0    264.2   0.069761975   0.01805   0.12643  -0.00146  -0.04538
  44   38015.9    263.0   0.000857240   0.00022   0.01439  -0.00385  -0.00087
  45   38170.3    262.0   0.029904341   0.00780   0.08620  -0.01902  -0.00291
  46   38426.2    260.2   0.153731424   0.04037  -0.13873  -0.10238   0.10319
  47   38511.7    259.7   0.066017993   0.01738   0.09449   0.08818  -0.02593
  48   38769.5    257.9   0.003809868   0.00101  -0.03096  -0.00124   0.00704
  49   39063.8    256.0   0.000069298   0.00002   0.00375   0.00017  -0.00211
  50   39382.7    253.9   0.000912705   0.00025   0.01242  -0.00904  -0.00312
  51   39576.0    252.7   0.112022017   0.03030  -0.10786  -0.07010   0.11727
  52   39593.2    252.6   0.015566413   0.00421  -0.06215  -0.01416   0.01220
  53   39630.2    252.3   0.041327729   0.01119   0.05110   0.08424  -0.03855
  54   39839.1    251.0   0.086203957   0.02347   0.01563  -0.11042   0.10505
  55   39991.7    250.1   0.062337947   0.01704  -0.04024   0.06878   0.10338
  56   40039.5    249.8   0.005912902   0.00162   0.01607  -0.02588  -0.02627

-------------------------------------------------------------------
                             CD SPECTRUM
-------------------------------------------------------------------
State   Energy Wavelength       R         MX        MY        MZ   
        (cm-1)   (nm)       (1e40*cgs)   (au)      (au)      (au)  
-------------------------------------------------------------------
   0   15557.6    642.8    -15.25031  -0.30603   0.13867  -0.11944
   1   18867.8    530.0     74.50333   0.40667   0.18895   0.55305
   2   21590.5    463.2     -0.18457   0.45274  -0.05258   0.27813
   3   23481.2    425.9     -3.38423  -0.81737   0.50979   2.10928
   4   24588.1    406.7      1.33913   0.04813   0.06131  -0.07137
   5   24776.6    403.6     -9.24528   0.21379  -0.04068   0.24347
   6   26197.2    381.7     19.53391  -0.30231   0.01942  -0.57726
   7   26273.3    380.6     64.56620  -0.26977   0.08544  -0.54248
   8   26432.0    378.3     -4.33465   0.48360  -0.12382  -0.43171
   9   28127.2    355.5    -20.05976  -0.47289   0.02916  -1.09080
  10   28451.7    351.5      1.40726   0.44055   0.24171   0.04182
  11   28611.4    349.5    -70.75112   0.76319  -0.05684   0.75412
  12   28965.2    345.2    125.14974  -0.06198  -0.71539   1.70463
  13   29239.3    342.0     87.46239  -0.55945   0.21514  -0.48319
  14   29350.7    340.7     12.23438  -0.28798   0.23033   0.30737
  15   29576.9    338.1      9.34413  -0.98608   1.12936   1.54216
  16   30363.5    329.3    -23.16187   0.57290   0.04064   0.90280
  17   31040.4    322.2    -174.04373   3.95416  -1.36435   2.76456
  18   31174.1    320.8     -7.19933   0.16258  -0.13626  -0.49956
  19   31372.0    318.8    -19.94922   0.66135  -0.68363  -0.50058
  20   32120.9    311.3      3.76846  -0.04194   0.02473  -0.51668
  21   32499.5    307.7     -0.86382   0.02427   0.08204   0.13077
  22   32702.8    305.8     29.32528  -0.56779   0.45149   1.26394
  23   32908.5    303.9    -20.79133  -0.02465   0.08703   0.39144
  24   33281.6    300.5     68.89991   0.79760  -0.41795  -0.24921
  25   33610.3    297.5    -25.54892   0.63407   0.17954   0.93079
  26   33689.5    296.8    -34.82055   0.57131  -0.36665   0.23533
  27   33902.1    295.0    -46.10031  -1.75744   0.08643  -1.76720
  28   34257.1    291.9    -56.55978  -1.26648   0.26769  -0.20209
  29   34429.8    290.4      3.17263  -0.65377   0.26117   0.28540
  30   34848.2    287.0    -24.18101  -0.55680   0.41321  -0.00223
  31   34917.5    286.4     23.33192  -1.09099   1.08297   1.96571
  32   35040.3    285.4     97.83154  -1.96855   0.21021  -0.32940
  33   35292.2    283.3     33.49895  -1.17463   0.48421  -0.31071
  34   35338.2    283.0    -74.93158  -0.94559   0.54491  -0.46997
  35   35961.9    278.1    -63.80673   0.57812  -0.03961   1.04742
  36   36158.4    276.6     33.55153  -1.36455   0.08738  -1.26135
  37   36375.0    274.9      6.10987  -0.09576  -0.10745  -0.05846
  38   36637.4    272.9     -6.02935   0.45176  -0.06018   0.71378
  39   37018.1    270.1    -35.38512   0.76040  -0.49847  -1.65822
  40   37092.7    269.6     50.63834   0.91166   0.14400   2.34492
  41   37642.3    265.7     -9.25375   0.08877  -0.03211  -0.62473
  42   37792.0    264.6     94.16559  -0.15202   0.09529  -1.36673
  43   37851.0    264.2     30.24476   0.23578  -0.06900   1.11049
  44   38015.9    263.0      1.63844  -0.04352   0.06838   0.30844
  45   38170.3    262.0     61.31040  -0.45798   0.02407   0.53760
  46   38426.2    260.2    -88.31443  -1.43998  -0.10924  -1.51529
  47   38511.7    259.7     -9.96812   0.21279   0.08444   0.77382
  48   38769.5    257.9      0.88850  -0.21473   0.07591  -0.79642
  49   39063.8    256.0      0.12922   0.01955  -0.01259   0.06915
  50   39382.7    253.9     -3.32888   0.26894   0.00898   0.22904
  51   39576.0    252.7    130.83415  -0.24582   0.28778  -0.83621
  52   39593.2    252.6    -90.62156  -1.31738  -0.02243  -1.16292
  53   39630.2    252.3     58.86715   1.00927  -0.67038   0.81782
  54   39839.1    251.0    -23.24820  -0.51700  -0.10567   0.10834
  55   39991.7    250.1    -10.45904   0.55272   0.03245   0.25558
  56   40039.5    249.8      0.87317  -0.12650  -0.02175  -0.03048

sTD-DFT done

Total run time:        2.746 sec

           *** ORCA-CIS/TD-DFT FINISHED WITHOUT ERROR ***

-------------------------   --------------------
FINAL SINGLE POINT ENERGY     -3887.544218781483
-------------------------   --------------------


                            ***************************************
                            *     ORCA property calculations      *
                            ***************************************

                                    ---------------------
                                    Active property flags
                                    ---------------------
   (+) Dipole Moment


------------------------------------------------------------------------------
                       ORCA ELECTRIC PROPERTIES CALCULATION
------------------------------------------------------------------------------

Dipole Moment Calculation                       ... on
Quadrupole Moment Calculation                   ... off
Polarizability Calculation                      ... off
GBWName                                         ... xtbopt.gbw
Electron density file                           ... xtbopt.scfp
The origin for moment calculation is the CENTER OF MASS  = ( 5.500907, 15.955016  1.929033)

-------------
DIPOLE MOMENT
-------------
                                X             Y             Z
Electronic contribution:     29.96963      40.58200     -17.27108
Nuclear contribution   :    -31.24511     -44.53756      17.50820
                        -----------------------------------------
Total Dipole Moment    :     -1.27549      -3.95556       0.23712
                        -----------------------------------------
Magnitude (a.u.)       :      4.16287
Magnitude (Debye)      :     10.58119



--------------------
Rotational spectrum 
--------------------
 
Rotational constants in cm-1:     0.002369     0.000298     0.000296 
Rotational constants in MHz :    71.020694     8.936857     8.887867 

 Dipole components along the rotational axes: 
x,y,z [a.u.] :    -4.010291    -0.764904    -0.813642 
x,y,z [Debye]:   -10.193349    -1.944233    -2.068113 

 

Timings for individual modules:

Sum of individual times         ...      532.230 sec (=   8.871 min)
GTO integral calculation        ...        2.578 sec (=   0.043 min)   0.5 %
SCF iterations                  ...      526.182 sec (=   8.770 min)  98.9 %
CIS module                      ...        3.471 sec (=   0.058 min)   0.7 %
                             ****ORCA TERMINATED NORMALLY****
TOTAL RUN TIME: 0 days 0 hours 8 minutes 53 seconds 220 msec
