
                                 *****************
                                 * O   R   C   A *
                                 *****************

           --- An Ab Initio, DFT and Semiempirical electronic structure package ---

                  #######################################################
                  #                        -***-                        #
                  #          Department of theory and spectroscopy      #
                  #               Directorship: Frank Neese             #
                  #        Max Planck Institute fuer Kohlenforschung    #
                  #                Kaiser Wilhelm Platz 1               #
                  #                 D-45470 Muelheim/Ruhr               #
                  #                      Germany                        #
                  #                                                     #
                  #                  All rights reserved                #
                  #                        -***-                        #
                  #######################################################


                         Program Version 4.2.0 -  RELEASE  -


 With contributions from (in alphabetic order):
   Daniel Aravena         : Magnetic Suceptibility
   Michael Atanasov       : Ab Initio Ligand Field Theory (pilot matlab implementation)
   Alexander A. Auer      : GIAO ZORA, VPT2
   Ute Becker             : Parallelization
   Giovanni Bistoni       : ED, misc. LED, open-shell LED, HFLED
   Martin Brehm           : Molecular dynamics
   Dmytro Bykov           : SCF Hessian
   Vijay G. Chilkuri      : MRCI spin determinant printing, contributions to CSF-ICE
   Dipayan Datta          : RHF DLPNO-CCSD density
   Achintya Kumar Dutta   : EOM-CC, STEOM-CC
   Dmitry Ganyushin       : Spin-Orbit,Spin-Spin,Magnetic field MRCI
   Miquel Garcia          : C-PCM Hessian, Gaussian charge scheme
   Yang Guo               : DLPNO-NEVPT2, CIM, IAO-localization
   Andreas Hansen         : Spin unrestricted coupled pair/coupled cluster methods
   Benjamin Helmich-Paris : CASSCF linear response (MC-RPA)
   Lee Huntington         : MR-EOM, pCC
   Robert Izsak           : Overlap fitted RIJCOSX, COSX-SCS-MP3, EOM
   Christian Kollmar      : KDIIS, OOCD, Brueckner-CCSD(T), CCSD density
   Simone Kossmann        : Meta GGA functionals, TD-DFT gradient, OOMP2, MP2 Hessian
   Martin Krupicka        : AUTO-CI
   Lucas Lang             : DCDCAS
   Dagmar Lenk            : GEPOL surface, SMD
   Dimitrios Liakos       : Extrapolation schemes; Compound Job, initial MDCI parallelization
   Dimitrios Manganas     : Further ROCIS development; embedding schemes
   Dimitrios Pantazis     : SARC Basis sets
   Taras Petrenko         : DFT Hessian,TD-DFT gradient, ASA, ECA, R-Raman, ABS, FL, XAS/XES, NRVS
   Peter Pinski           : DLPNO-MP2, DLPNO-MP2 Gradient
   Christoph Reimann      : Effective Core Potentials
   Marius Retegan         : Local ZFS, SOC
   Christoph Riplinger    : Optimizer, TS searches, QM/MM, DLPNO-CCSD(T), (RO)-DLPNO pert. Triples
   Tobias Risthaus        : Range-separated hybrids, TD-DFT gradient, RPA, STAB
   Michael Roemelt        : Original ROCIS implementation
   Masaaki Saitow         : Open-shell DLPNO-CCSD energy and density
   Barbara Sandhoefer     : DKH picture change effects
   Avijit Sen             : IP-ROCIS
   Kantharuban Sivalingam : CASSCF convergence, NEVPT2, FIC-MRCI
   Bernardo de Souza      : ESD, SOC TD-DFT
   Georgi Stoychev        : AutoAux, RI-MP2 NMR
   Willem Van den Heuvel  : Paramagnetic NMR
   Boris Wezisla          : Elementary symmetry handling
   Frank Wennmohs         : Technical directorship


 We gratefully acknowledge several colleagues who have allowed us to
 interface, adapt or use parts of their codes:
   Stefan Grimme, W. Hujo, H. Kruse,             : VdW corrections, initial TS optimization,
                  C. Bannwarth                     DFT functionals, gCP, sTDA/sTD-DF
   Ed Valeev, F. Pavosevic, A. Kumar             : LibInt (2-el integral package), F12 methods
   Garnet Chan, S. Sharma, J. Yang, R. Olivares  : DMRG
   Ulf Ekstrom                                   : XCFun DFT Library
   Mihaly Kallay                                 : mrcc  (arbitrary order and MRCC methods)
   Andreas Klamt, Michael Diedenhofen            : otool_cosmo (COSMO solvation model)
   Jiri Pittner, Ondrej Demel                    : Mk-CCSD
   Frank Weinhold                                : gennbo (NPA and NBO analysis)
   Christopher J. Cramer and Donald G. Truhlar   : smd solvation model
   Lars Goerigk                                  : TD-DFT with DH, B97 family of functionals
   V. Asgeirsson, H. Jonsson                     : NEB implementation
   FAccTs GmbH                                   : IRC, NEB, NEB-TS, Multilevel, MM, QM/MM, CI optimization
   S Lehtola, MJT Oliveira, MAL Marques          : LibXC Library


 Your calculation uses the libint2 library for the computation of 2-el integrals
 For citations please refer to: http://libint.valeyev.net

 Your ORCA version has been built with support for libXC version: 4.2.3
 For citations please refer to: https://tddft.org/programs/libxc/

 This ORCA versions uses:
   CBLAS   interface :  Fast vector & matrix operations
   LAPACKE interface :  Fast linear algebra routines
   SCALAPACK package :  Parallel linear algebra routines


XCFun DFT library Copyright 2009-2010 Ulf Ekstrom and contributors.
See http://admol.org/xcfun for more information. This is free soft-
ware; see the source code for copying conditions. There is ABSOLUTELY
NO WARRANTY; not even for MERCHANTABILITY or FITNESS FOR A PARTICULAR
PURPOSE. For details see the documentation. Scientific users of this 
library should cite U. Ekstrom, L. Visscher, R. Bast, A. J. Thorvald-
sen and K. Ruud; J.Chem.Theor.Comp. 2010, DOI: 10.1021/ct100117s
XCFun Version 0.99 
----- Orbital basis set information -----
Your calculation utilizes the basis: def2-SVP
   F. Weigend and R. Ahlrichs, Phys. Chem. Chem. Phys. 7, 3297 (2005).

----- AuxJ basis set information -----
Your calculation utilizes the auxiliary basis: def2/J
   F. Weigend, Phys. Chem. Chem. Phys. 8, 1057 (2006).

================================================================================
                                        WARNINGS
                       Please study these warnings very carefully!
================================================================================

INFO   : Checking CIS options ...

WARNING: CIS/ROCIS methods need fully converged wavefunctions
  ===> : Setting SCFConvForced true
         You can overwrite this default with %scf ConvForced false 


INFO   : the flag for use of LIBINT has been found!

================================================================================
                                       INPUT FILE
================================================================================
NAME = xtbopt.inp
|  1> # ORCA input file
|  2> # SCF done       -203.624425541231          0.000806133209
|  3> ! CAM-B3LYP def2-SVP def2/J RIJCOSX Grid4 TightSCF
|  4> %maxcore 5000
|  5> %tddft
|  6>     Mode sTDDFT
|  7>     Ethresh 5.0
|  8>     maxcore 5000
|  9> end
| 10> 
| 11> %pal
| 12>   nprocs 6
| 13>   end
| 14> * xyz 0 1
| 15>    C       -4.69250        -8.37379         7.83608
| 16>    C       -3.42253        -8.39635         7.27794
| 17>    C       -3.22914        -8.45549         5.85396
| 18>    N       -1.97759        -8.47463         5.35155
| 19>    C       -0.97048        -8.43958         6.16099
| 20>    C       -1.16351        -8.38139         7.57263
| 21>    N       -2.33926        -8.36098         8.09840
| 22>    F       -0.11212        -8.34636         8.38578
| 23>    F        0.25160        -8.45925         5.63811
| 24>    C       -4.31044        -8.49407         4.94596
| 25>    C       -5.59931        -8.47163         5.52734
| 26>    C       -5.77615        -8.41135         6.96494
| 27>    N       -7.07264        -8.39770         7.30138
| 28>    S       -7.95768        -8.45388         5.97212
| 29>    N       -6.77338        -8.49869         4.89350
| 30>    C       -4.10007        -8.54704         3.54017
| 31>    C       -5.08258        -8.58573         2.55737
| 32>    C       -4.54090        -8.62282         1.28135
| 33>    C       -3.12626        -8.61333         1.28681
| 34>    S       -2.47863        -8.56012         2.86727
| 35>    C       -2.67347        -8.64095        -0.05068
| 36>    C       -3.80053        -8.66848        -0.90498
| 37>    C       -5.00710        -8.65867        -0.09353
| 38>    C       -6.29893        -8.67318        -0.53213
| 39>    C       -6.62701        -8.70213        -1.90423
| 40>    N       -6.90483        -8.72554        -3.01666
| 41>    C       -7.39569        -8.65812         0.35549
| 42>    N       -8.29466        -8.64388         1.06702
| 43>    C       -3.45849        -8.68443        -2.24700
| 44>    C       -2.07852        -8.66600        -2.43472
| 45>    S       -1.19889        -8.63632        -0.91525
| 46>    C       -1.39523        -8.64792        -3.67738
| 47>    C        0.01562        -8.60630        -3.74926
| 48>    C        0.72309        -8.54401        -4.99375
| 49>    N        2.06969        -8.50317        -4.98468
| 50>    C        2.70578        -8.52085        -3.85752
| 51>    C        2.00512        -8.57894        -2.62500
| 52>    N        0.71170        -8.61892        -2.59584
| 53>    F        2.65516        -8.59433        -1.46668
| 54>    F        4.03320        -8.48414        -3.89060
| 55>    C        0.06341        -8.51747        -6.24330
| 56>    C       -1.35040        -8.58810        -6.18189
| 57>    C       -2.06404        -8.65231        -4.92645
| 58>    N       -3.38231        -8.70823        -5.11883
| 59>    S       -3.69859        -8.68488        -6.68938
| 60>    N       -2.18867        -8.60051        -7.21877
| 61>    C        0.77962        -8.41208        -7.46282
| 62>    C        0.23391        -8.36328        -8.74322
| 63>    C        1.20842        -8.23367        -9.71872
| 64>    C        2.51761        -8.18324        -9.18534
| 65>    S        2.53202        -8.30048        -7.47993
| 66>    C        3.43097        -8.04334       -10.25370
| 67>    C        2.70089        -8.00553       -11.46488
| 68>    C        1.28474        -8.12436       -11.16655
| 69>    C        0.24726        -8.12864       -12.05261
| 70>    C        0.44613        -8.01598       -13.44499
| 71>    N        0.59607        -7.92566       -14.57814
| 72>    C       -1.09619        -8.24401       -11.63697
| 73>    N       -2.19129        -8.33643       -11.30955
| 74>    C        3.51495        -7.86257       -12.57825
| 75>    C        4.86007        -7.78926       -12.23503
| 76>    S        5.11588        -7.90047       -10.50170
| 77>    C        5.95458        -7.64021       -13.13119
| 78>    C        7.28646        -7.56904       -12.66634
| 79>    C        8.40486        -7.41935       -13.55807
| 80>    N        9.66313        -7.35694       -13.04723
| 81>    C        9.81737        -7.43316       -11.77078
| 82>    C        8.70918        -7.58061       -10.88556
| 83>    N        7.49956        -7.64441       -11.33661
| 84>    F        8.88992        -7.65604        -9.57069
| 85>    F       11.05296        -7.37042       -11.28354
| 86>    C        8.22991        -7.33661       -14.93185
| 87>    C        6.92813        -7.40224       -15.41737
| 88>    C        5.78956        -7.55270       -14.53296
| 89>    N        4.64426        -7.59169       -15.21698
| 90>    S        4.95822        -7.45563       -16.78241
| 91>    N        6.54974        -7.33963       -16.70084
| 92>    H       -4.82451        -8.32856         8.90273
| 93>    H       -6.12957        -8.58281         2.79911
| 94>    H       -4.14388        -8.70389        -3.07405
| 95>    H       -0.82561        -8.41982        -8.91165
| 96>    H        3.18452        -7.80969       -13.59935
| 97>    H        9.07446        -7.22561       -15.58872
| 98> *
| 99> 
|100>                          ****END OF INPUT****
================================================================================

                       ****************************
                       * Single Point Calculation *
                       ****************************

---------------------------------
CARTESIAN COORDINATES (ANGSTROEM)
---------------------------------
  C     -4.692500   -8.373790    7.836080
  C     -3.422530   -8.396350    7.277940
  C     -3.229140   -8.455490    5.853960
  N     -1.977590   -8.474630    5.351550
  C     -0.970480   -8.439580    6.160990
  C     -1.163510   -8.381390    7.572630
  N     -2.339260   -8.360980    8.098400
  F     -0.112120   -8.346360    8.385780
  F      0.251600   -8.459250    5.638110
  C     -4.310440   -8.494070    4.945960
  C     -5.599310   -8.471630    5.527340
  C     -5.776150   -8.411350    6.964940
  N     -7.072640   -8.397700    7.301380
  S     -7.957680   -8.453880    5.972120
  N     -6.773380   -8.498690    4.893500
  C     -4.100070   -8.547040    3.540170
  C     -5.082580   -8.585730    2.557370
  C     -4.540900   -8.622820    1.281350
  C     -3.126260   -8.613330    1.286810
  S     -2.478630   -8.560120    2.867270
  C     -2.673470   -8.640950   -0.050680
  C     -3.800530   -8.668480   -0.904980
  C     -5.007100   -8.658670   -0.093530
  C     -6.298930   -8.673180   -0.532130
  C     -6.627010   -8.702130   -1.904230
  N     -6.904830   -8.725540   -3.016660
  C     -7.395690   -8.658120    0.355490
  N     -8.294660   -8.643880    1.067020
  C     -3.458490   -8.684430   -2.247000
  C     -2.078520   -8.666000   -2.434720
  S     -1.198890   -8.636320   -0.915250
  C     -1.395230   -8.647920   -3.677380
  C      0.015620   -8.606300   -3.749260
  C      0.723090   -8.544010   -4.993750
  N      2.069690   -8.503170   -4.984680
  C      2.705780   -8.520850   -3.857520
  C      2.005120   -8.578940   -2.625000
  N      0.711700   -8.618920   -2.595840
  F      2.655160   -8.594330   -1.466680
  F      4.033200   -8.484140   -3.890600
  C      0.063410   -8.517470   -6.243300
  C     -1.350400   -8.588100   -6.181890
  C     -2.064040   -8.652310   -4.926450
  N     -3.382310   -8.708230   -5.118830
  S     -3.698590   -8.684880   -6.689380
  N     -2.188670   -8.600510   -7.218770
  C      0.779620   -8.412080   -7.462820
  C      0.233910   -8.363280   -8.743220
  C      1.208420   -8.233670   -9.718720
  C      2.517610   -8.183240   -9.185340
  S      2.532020   -8.300480   -7.479930
  C      3.430970   -8.043340  -10.253700
  C      2.700890   -8.005530  -11.464880
  C      1.284740   -8.124360  -11.166550
  C      0.247260   -8.128640  -12.052610
  C      0.446130   -8.015980  -13.444990
  N      0.596070   -7.925660  -14.578140
  C     -1.096190   -8.244010  -11.636970
  N     -2.191290   -8.336430  -11.309550
  C      3.514950   -7.862570  -12.578250
  C      4.860070   -7.789260  -12.235030
  S      5.115880   -7.900470  -10.501700
  C      5.954580   -7.640210  -13.131190
  C      7.286460   -7.569040  -12.666340
  C      8.404860   -7.419350  -13.558070
  N      9.663130   -7.356940  -13.047230
  C      9.817370   -7.433160  -11.770780
  C      8.709180   -7.580610  -10.885560
  N      7.499560   -7.644410  -11.336610
  F      8.889920   -7.656040   -9.570690
  F     11.052960   -7.370420  -11.283540
  C      8.229910   -7.336610  -14.931850
  C      6.928130   -7.402240  -15.417370
  C      5.789560   -7.552700  -14.532960
  N      4.644260   -7.591690  -15.216980
  S      4.958220   -7.455630  -16.782410
  N      6.549740   -7.339630  -16.700840
  H     -4.824510   -8.328560    8.902730
  H     -6.129570   -8.582810    2.799110
  H     -4.143880   -8.703890   -3.074050
  H     -0.825610   -8.419820   -8.911650
  H      3.184520   -7.809690  -13.599350
  H      9.074460   -7.225610  -15.588720

----------------------------
CARTESIAN COORDINATES (A.U.)
----------------------------
  NO LB      ZA    FRAG     MASS         X           Y           Z
   0 C     6.0000    0    12.011   -8.867540  -15.824170   14.808045
   1 C     6.0000    0    12.011   -6.467644  -15.866802   13.753313
   2 C     6.0000    0    12.011   -6.102190  -15.978560   11.062381
   3 N     7.0000    0    14.007   -3.737104  -16.014730   10.112964
   4 C     6.0000    0    12.011   -1.833941  -15.948495   11.642584
   5 C     6.0000    0    12.011   -2.198715  -15.838532   14.310197
   6 N     7.0000    0    14.007   -4.420561  -15.799962   15.303758
   7 F     9.0000    0    18.998   -0.211876  -15.772335   15.846828
   8 F     9.0000    0    18.998    0.475455  -15.985666   10.654484
   9 C     6.0000    0    12.011   -8.145551  -16.051466    9.346510
  10 C     6.0000    0    12.011  -10.581162  -16.009061   10.445159
  11 C     6.0000    0    12.011  -10.915342  -15.895148   13.161829
  12 N     7.0000    0    14.007  -13.365353  -15.869353   13.797609
  13 S    16.0000    0    32.060  -15.037836  -15.975518   11.285671
  14 N     7.0000    0    14.007  -12.799833  -16.060197    9.247375
  15 C     6.0000    0    12.011   -7.748009  -16.151565    6.689952
  16 C     6.0000    0    12.011   -9.604684  -16.224678    4.832729
  17 C     6.0000    0    12.011   -8.581057  -16.294768    2.421401
  18 C     6.0000    0    12.011   -5.907775  -16.276835    2.431718
  19 S    16.0000    0    32.060   -4.683932  -16.176282    5.418355
  20 C     6.0000    0    12.011   -5.052126  -16.329029   -0.095771
  21 C     6.0000    0    12.011   -7.181961  -16.381053   -1.710164
  22 C     6.0000    0    12.011   -9.462048  -16.362515   -0.176746
  23 C     6.0000    0    12.011  -11.903253  -16.389935   -1.005580
  24 C     6.0000    0    12.011  -12.523234  -16.444642   -3.598473
  25 N     7.0000    0    14.007  -13.048238  -16.488881   -5.700661
  26 C     6.0000    0    12.011  -13.975829  -16.361476    0.671779
  27 N     7.0000    0    14.007  -15.674636  -16.334566    2.016376
  28 C     6.0000    0    12.011   -6.535599  -16.411194   -4.246215
  29 C     6.0000    0    12.011   -3.927834  -16.376367   -4.600954
  30 S    16.0000    0    32.060   -2.265574  -16.320280   -1.729572
  31 C     6.0000    0    12.011   -2.636603  -16.342200   -6.949241
  32 C     6.0000    0    12.011    0.029518  -16.263550   -7.085075
  33 C     6.0000    0    12.011    1.366442  -16.145839   -9.436820
  34 N     7.0000    0    14.007    3.911147  -16.068663   -9.419680
  35 C     6.0000    0    12.011    5.113183  -16.102073   -7.289656
  36 C     6.0000    0    12.011    3.789128  -16.211847   -4.960531
  37 N     7.0000    0    14.007    1.344918  -16.287398   -4.905427
  38 F     9.0000    0    18.998    5.017525  -16.240930   -2.771624
  39 F     9.0000    0    18.998    7.621643  -16.032701   -7.352168
  40 C     6.0000    0    12.011    0.119828  -16.095686  -11.798127
  41 C     6.0000    0    12.011   -2.551886  -16.229157  -11.682079
  42 C     6.0000    0    12.011   -3.900470  -16.350496   -9.309641
  43 N     7.0000    0    14.007   -6.391640  -16.456170   -9.673187
  44 S    16.0000    0    32.060   -6.989322  -16.412045  -12.641096
  45 N     7.0000    0    14.007   -4.135987  -16.252609  -13.641498
  46 C     6.0000    0    12.011    1.473268  -15.896527  -14.102686
  47 C     6.0000    0    12.011    0.442026  -15.804309  -16.522291
  48 C     6.0000    0    12.011    2.283583  -15.559381  -18.365719
  49 C     6.0000    0    12.011    4.757593  -15.464082  -17.357777
  50 S    16.0000    0    32.060    4.784824  -15.685634  -14.135019
  51 C     6.0000    0    12.011    6.483594  -15.199710  -19.376685
  52 C     6.0000    0    12.011    5.103942  -15.128259  -21.665483
  53 C     6.0000    0    12.011    2.427807  -15.352815  -21.101721
  54 C     6.0000    0    12.011    0.467254  -15.360903  -22.776132
  55 C     6.0000    0    12.011    0.843064  -15.148007  -25.407349
  56 N     7.0000    0    14.007    1.126409  -14.977327  -27.548692
  57 C     6.0000    0    12.011   -2.071499  -15.578921  -21.990686
  58 N     7.0000    0    14.007   -4.140938  -15.753570  -21.371952
  59 C     6.0000    0    12.011    6.642293  -14.858104  -23.769448
  60 C     6.0000    0    12.011    9.184201  -14.719568  -23.120856
  61 S    16.0000    0    32.060    9.667612  -14.929725  -19.845337
  62 C     6.0000    0    12.011   11.252525  -14.437905  -24.814353
  63 C     6.0000    0    12.011   13.769414  -14.303413  -23.935914
  64 C     6.0000    0    12.011   15.882884  -14.020540  -25.621039
  65 N     7.0000    0    14.007   18.260669  -13.902602  -24.655692
  66 C     6.0000    0    12.011   18.552141  -14.046637  -22.243551
  67 C     6.0000    0    12.011   16.457965  -14.325277  -20.570727
  68 N     7.0000    0    14.007   14.172115  -14.445841  -21.423088
  69 F     9.0000    0    18.998   16.799514  -14.467819  -18.085983
  70 F     9.0000    0    18.998   20.887067  -13.928075  -21.322800
  71 C     6.0000    0    12.011   15.552276  -13.864184  -28.217107
  72 C     6.0000    0    12.011   13.092268  -13.988206  -29.134607
  73 C     6.0000    0    12.011   10.940683  -14.272535  -27.463314
  74 N     7.0000    0    14.007    8.776379  -14.346215  -28.755925
  75 S    16.0000    0    32.060    9.369678  -14.089099  -31.714159
  76 N     7.0000    0    14.007   12.377215  -13.869891  -31.560014
  77 H     1.0000    0     1.008   -9.117003  -15.738697   16.823722
  78 H     1.0000    0     1.008  -11.583209  -16.219160    5.289551
  79 H     1.0000    0     1.008   -7.830798  -16.447968   -5.809113
  80 H     1.0000    0     1.008   -1.560177  -15.911154  -16.840578
  81 H     1.0000    0     1.008    6.017871  -14.758175  -25.699047
  82 H     1.0000    0     1.008   17.148244  -13.654424  -29.458412

--------------------------------
INTERNAL COORDINATES (ANGSTROEM)
--------------------------------
 C      0   0   0     0.000000000000     0.00000000     0.00000000
 C      1   0   0     1.387390721498     0.00000000     0.00000000
 C      2   1   0     1.438268497917   121.46966857     0.00000000
 N      3   2   1     1.348762228934   119.61365430   179.94575598
 C      4   3   2     1.292552578505   119.29788678     0.00000000
 C      5   4   3     1.425964286579   121.03594300     0.00000000
 N      6   5   4     1.288114406216   121.88906591     0.00000000
 F      6   5   4     1.329609324388   119.96427232   179.98805307
 F      5   4   3     1.329387050373   118.00548862   180.01765393
 C      3   2   1     1.412502073060   122.31920318     0.00000000
 C     10   3   2     1.414104711434   115.65844795   359.96261909
 C      1   2   3     1.390896464767   117.43620066     0.03505094
 N     12   1   2     1.339501592459   126.61957693   180.02437880
 S     13  12   1     1.597931206780   109.07379754   179.97161944
 N     11  10   3     1.334513302332   127.32017751   179.98112333
 C     10   3   2     1.422429921613   121.54119484   179.74497831
 C     16  10   3     1.390222520390   126.52561811   180.12269993
 C     17  16  10     1.386729941589   112.03562234   179.53340728
 C     18  17  16     1.414682367636   112.76014691     0.04022770
 S     19  18  17     1.708832856835   112.50454919     0.05123143
 C     19  18  17     1.412324731993   108.46970955   180.51359087
 C     21  19  18     1.414514275114   108.47460089     0.00000000
 C     18  17  16     1.452213027383   138.28171927   180.69367747
 C     23  18  17     1.364333261707   127.48735759   359.60043374
 C     24  23  18     1.411075121636   122.20582827   179.69015991
 N     25  24  23     1.146835858090   179.42517952   180.56556258
 C     24  23  18     1.411020398719   122.25128143   359.79233206
 N     27  24  23     1.146570878489   179.36984334   169.75220521
 C     22  21  19     1.385013878811   112.87098347   179.43679437
 C     29  22  21     1.392801372845   112.03205104   359.84700746
 S     21  19  18     1.709353356740   139.06913291   179.25016458
 C     30  29  22     1.418243979751   126.55603819   181.36593275
 C     32  30  29     1.413292850509   121.72830419   178.86981478
 C     33  32  30     1.432881434418   122.57065134   182.06345280
 N     34  33  32     1.347249691223   119.27303508   179.81599873
 C     35  34  33     1.294377354599   119.77775039     0.00000000
 C     36  35  34     1.418944831239   120.95076226   359.81671132
 N     37  36  35     1.294366255123   120.94810774     0.16304503
 F     37  36  35     1.328342604940   121.08240561   180.14490469
 F     36  35  34     1.328339477280   117.97081437   179.75937745
 C     34  33  32     1.413243530500   122.56593058     0.09708047
 C     41  34  33     1.416904549043   115.24614831   358.60097191
 C     32  30  29     1.416863420764   123.02276437   359.71573124
 N     43  32  30     1.333406503546   126.44123856   358.12957761
 S     44  43  32     1.602250156311   109.63141277   179.80966821
 N     42  41  34     1.333405690478   126.44540805   181.09214614
 C     41  34  33     1.418200566422   121.73345731   177.92348243
 C     47  41  34     1.392697025236   126.53338367   180.71422335
 C     48  47  41     1.384943588093   112.03241244   178.83544317
 C     49  48  47     1.414572679434   112.89075367     0.05111373
 S     50  49  48     1.709495871244   112.42762553     0.13669429
 C     50  49  48     1.412512509396   108.46880165   180.34435071
 C     52  50  49     1.414709650388   108.45077527     0.00000000
 C     53  52  50     1.452102675536   108.97825119     0.00000000
 C     54  53  52     1.364362632294   127.47531622   179.86302532
 C     55  54  53     1.411015101585   122.23753367     0.24966137
 N     56  55  54     1.146590000174   179.40789283   177.16765882
 C     55  54  53     1.411001328490   122.20579911   180.34845707
 N     58  55  54     1.146729838628   179.45244515   175.71377394
 C     53  52  50     1.386623237257   112.78068881   179.70600642
 C     60  53  52     1.390151840232   112.04039732   359.95143461
 S     52  50  49     1.709045799562   139.07112458   179.48895240
 C     61  60  53     1.422417234218   126.47858624   180.08346467
 C     63  61  60     1.412464167970   121.56775521   179.61702226
 C     64  63  61     1.438196109368   122.30746565   179.95718005
 N     65  64  63     1.359446912020   119.44269015   179.99031125
 C     66  65  64     1.287992262593   118.71976076   359.94404108
 C     67  66  65     1.425987737325   121.88854765     0.00000000
 N     68  67  66     1.292554481212   121.04775593     0.04197044
 F     68  67  66     1.329375699116   120.94476611   180.06911074
 F     67  66  65     1.329669798597   118.14080948   180.02238182
 C     65  64  63     1.387344549310   121.47422434     0.00000000
 C     72  65  64     1.390923483050   117.44251078     0.08001674
 C     63  61  60     1.414160080543   122.76535989   359.66909220
 N     74  63  61     1.334584456114   127.32795890     0.04939352
 S     75  74  63     1.602390180356   109.27413419   179.99599456
 N     73  72  65     1.339550015901   126.62791740   179.90696734
 H      1   2   3     1.075739101967   120.79107581   180.05722555
 H     17  16  10     1.074539349722   121.97123303   359.70448397
 H     29  22  21     1.074313662856   126.05753895   180.12857863
 H     48  47  41     1.074312834746   121.92002588   359.00491973
 H     60  53  52     1.074535010737   125.98320058   180.01538487
 H     72  65  64     1.075669047338   120.78620454   180.05418914

---------------------------
INTERNAL COORDINATES (A.U.)
---------------------------
 C      0   0   0     0.000000000000     0.00000000     0.00000000
 C      1   0   0     2.621788504375     0.00000000     0.00000000
 C      2   1   0     2.717933568109   121.46966857     0.00000000
 N      3   2   1     2.548791232463   119.61365430   179.94575598
 C      4   3   2     2.442570387068   119.29788678     0.00000000
 C      5   4   3     2.694681978388   121.03594300     0.00000000
 N      6   5   4     2.434183456906   121.88906591     0.00000000
 F      6   5   4     2.512597488202   119.96427232   179.98805307
 F      5   4   3     2.512177451187   118.00548862   180.01765393
 C      3   2   1     2.669242081680   122.31920318     0.00000000
 C     10   3   2     2.672270629298   115.65844795   359.96261909
 C      1   2   3     2.628413399048   117.43620066     0.03505094
 N     12   1   2     2.531291165699   126.61957693   180.02437880
 S     13  12   1     3.019652361660   109.07379754   179.97161944
 N     11  10   3     2.521864663482   127.32017751   179.98112333
 C     10   3   2     2.688002996544   121.54119484   179.74497831
 C     16  10   3     2.627139828747   126.52561811   180.12269993
 C     17  16  10     2.620539811312   112.03562234   179.53340728
 C     18  17  16     2.673362241319   112.76014691     0.04022770
 S     19  18  17     3.229226108065   112.50454919     0.05123143
 C     19  18  17     2.668906955631   108.46970955   180.51359087
 C     21  19  18     2.673044592487   108.47460089     0.00000000
 C     18  17  16     2.744284909866   138.28171927   180.69367747
 C     23  18  17     2.578216220026   127.48735759   359.60043374
 C     24  23  18     2.666545534282   122.20582827   179.69015991
 N     25  24  23     2.167205692350   179.42517952   180.56556258
 C     24  23  18     2.666442122955   122.25128143   359.79233206
 N     27  24  23     2.166704953475   179.36984334   169.75220521
 C     22  21  19     2.617296922633   112.87098347   179.43679437
 C     29  22  21     2.632013153627   112.03205104   359.84700746
 S     21  19  18     3.230209710339   139.06913291   179.25016458
 C     30  29  22     2.680092712812   126.55603819   181.36593275
 C     32  30  29     2.670736434491   121.72830419   178.86981478
 C     33  32  30     2.707753493430   122.57065134   182.06345280
 N     34  33  32     2.545932950421   119.27303508   179.81599873
 C     35  34  33     2.446018714143   119.77775039     0.00000000
 C     36  35  34     2.681417130185   120.95076226   359.81671132
 N     37  36  35     2.445997739171   120.94810774     0.16304503
 F     37  36  35     2.510203735357   121.08240561   180.14490469
 F     36  35  34     2.510197824935   117.97081437   179.75937745
 C     34  33  32     2.670643233181   122.56593058     0.09708047
 C     41  34  33     2.677561555599   115.24614831   358.60097191
 C     32  30  29     2.677483834415   123.02276437   359.71573124
 N     43  32  30     2.519773116892   126.44123856   358.12957761
 S     44  43  32     3.027813993461   109.63141277   179.80966821
 N     42  41  34     2.519771580416   126.44540805   181.09214614
 C     41  34  33     2.680010673510   121.73345731   177.92348243
 C     47  41  34     2.631815965222   126.53338367   180.71422335
 C     48  47  41     2.617164092426   112.03241244   178.83544317
 C     49  48  47     2.673154960657   112.89075367     0.05111373
 S     50  49  48     3.230479023720   112.42762553     0.13669429
 C     50  49  48     2.669261803496   108.46880165   180.34435071
 C     52  50  49     2.673413798248   108.45077527     0.00000000
 C     53  52  50     2.744076375098   108.97825119     0.00000000
 C     54  53  52     2.578271722391   127.47531622   179.86302532
 C     55  54  53     2.666432112822   122.23753367     0.24966137
 N     56  55  54     2.166741088222   179.40789283   177.16765882
 C     55  54  53     2.666406085445   122.20579911   180.34845707
 N     58  55  54     2.167005344603   179.45244515   175.71377394
 C     53  52  50     2.620338169346   112.78068881   179.70600642
 C     60  53  52     2.627006262605   112.04039732   359.95143461
 S     52  50  49     3.229628511500   139.07112458   179.48895240
 C     61  60  53     2.687979020841   126.47858624   180.08346467
 C     63  61  60     2.669170451441   121.56775521   179.61702226
 C     64  63  61     2.717796773576   122.30746565   179.95718005
 N     65  64  63     2.568982357322   119.44269015   179.99031125
 C     66  65  64     2.433952638911   118.71976076   359.94404108
 C     67  66  65     2.694726293873   121.88854765     0.00000000
 N     68  67  66     2.442573982662   121.04775593     0.04197044
 F     68  67  66     2.512156000419   120.94476611   180.06911074
 F     67  66  65     2.512711767894   118.14080948   180.02238182
 C     65  64  63     2.621701251584   121.47422434     0.00000000
 C     72  65  64     2.628464456204   117.44251078     0.08001674
 C     63  61  60     2.672375261749   122.76535989   359.66909220
 N     74  63  61     2.521999124643   127.32795890     0.04939352
 S     75  74  63     3.028078600557   109.27413419   179.99599456
 N     73  72  65     2.531382672742   126.62791740   179.90696734
 H      1   2   3     2.032852294267   120.79107581   180.05722555
 H     17  16  10     2.030585091096   121.97123303   359.70448397
 H     29  22  21     2.030158604728   126.05753895   180.12857863
 H     48  47  41     2.030157039827   121.92002588   359.00491973
 H     60  53  52     2.030576891603   125.98320058   180.01538487
 H     72  65  64     2.032719910204   120.78620454   180.05418914

---------------------
BASIS SET INFORMATION
---------------------
There are 5 groups of distinct atoms

 Group   1 Type C   : 7s4p1d contracted to 3s2p1d pattern {511/31/1}
 Group   2 Type N   : 7s4p1d contracted to 3s2p1d pattern {511/31/1}
 Group   3 Type F   : 7s4p1d contracted to 3s2p1d pattern {511/31/1}
 Group   4 Type S   : 10s7p1d contracted to 4s3p1d pattern {5311/511/1}
 Group   5 Type H   : 4s1p contracted to 2s1p pattern {31/1}

Atom   0C    basis set group =>   1
Atom   1C    basis set group =>   1
Atom   2C    basis set group =>   1
Atom   3N    basis set group =>   2
Atom   4C    basis set group =>   1
Atom   5C    basis set group =>   1
Atom   6N    basis set group =>   2
Atom   7F    basis set group =>   3
Atom   8F    basis set group =>   3
Atom   9C    basis set group =>   1
Atom  10C    basis set group =>   1
Atom  11C    basis set group =>   1
Atom  12N    basis set group =>   2
Atom  13S    basis set group =>   4
Atom  14N    basis set group =>   2
Atom  15C    basis set group =>   1
Atom  16C    basis set group =>   1
Atom  17C    basis set group =>   1
Atom  18C    basis set group =>   1
Atom  19S    basis set group =>   4
Atom  20C    basis set group =>   1
Atom  21C    basis set group =>   1
Atom  22C    basis set group =>   1
Atom  23C    basis set group =>   1
Atom  24C    basis set group =>   1
Atom  25N    basis set group =>   2
Atom  26C    basis set group =>   1
Atom  27N    basis set group =>   2
Atom  28C    basis set group =>   1
Atom  29C    basis set group =>   1
Atom  30S    basis set group =>   4
Atom  31C    basis set group =>   1
Atom  32C    basis set group =>   1
Atom  33C    basis set group =>   1
Atom  34N    basis set group =>   2
Atom  35C    basis set group =>   1
Atom  36C    basis set group =>   1
Atom  37N    basis set group =>   2
Atom  38F    basis set group =>   3
Atom  39F    basis set group =>   3
Atom  40C    basis set group =>   1
Atom  41C    basis set group =>   1
Atom  42C    basis set group =>   1
Atom  43N    basis set group =>   2
Atom  44S    basis set group =>   4
Atom  45N    basis set group =>   2
Atom  46C    basis set group =>   1
Atom  47C    basis set group =>   1
Atom  48C    basis set group =>   1
Atom  49C    basis set group =>   1
Atom  50S    basis set group =>   4
Atom  51C    basis set group =>   1
Atom  52C    basis set group =>   1
Atom  53C    basis set group =>   1
Atom  54C    basis set group =>   1
Atom  55C    basis set group =>   1
Atom  56N    basis set group =>   2
Atom  57C    basis set group =>   1
Atom  58N    basis set group =>   2
Atom  59C    basis set group =>   1
Atom  60C    basis set group =>   1
Atom  61S    basis set group =>   4
Atom  62C    basis set group =>   1
Atom  63C    basis set group =>   1
Atom  64C    basis set group =>   1
Atom  65N    basis set group =>   2
Atom  66C    basis set group =>   1
Atom  67C    basis set group =>   1
Atom  68N    basis set group =>   2
Atom  69F    basis set group =>   3
Atom  70F    basis set group =>   3
Atom  71C    basis set group =>   1
Atom  72C    basis set group =>   1
Atom  73C    basis set group =>   1
Atom  74N    basis set group =>   2
Atom  75S    basis set group =>   4
Atom  76N    basis set group =>   2
Atom  77H    basis set group =>   5
Atom  78H    basis set group =>   5
Atom  79H    basis set group =>   5
Atom  80H    basis set group =>   5
Atom  81H    basis set group =>   5
Atom  82H    basis set group =>   5
---------------------------------
AUXILIARY/J BASIS SET INFORMATION
---------------------------------
There are 5 groups of distinct atoms

 Group   1 Type C   : 12s5p4d2f1g contracted to 6s4p3d1f1g pattern {711111/2111/211/2/1}
 Group   2 Type N   : 12s5p4d2f1g contracted to 6s4p3d1f1g pattern {711111/2111/211/2/1}
 Group   3 Type F   : 12s5p4d2f1g contracted to 6s4p3d1f1g pattern {711111/2111/211/2/1}
 Group   4 Type S   : 14s5p5d2f1g contracted to 8s4p3d1f1g pattern {71111111/2111/311/2/1}
 Group   5 Type H   : 5s2p1d contracted to 3s1p1d pattern {311/2/1}

Atom   0C    basis set group =>   1
Atom   1C    basis set group =>   1
Atom   2C    basis set group =>   1
Atom   3N    basis set group =>   2
Atom   4C    basis set group =>   1
Atom   5C    basis set group =>   1
Atom   6N    basis set group =>   2
Atom   7F    basis set group =>   3
Atom   8F    basis set group =>   3
Atom   9C    basis set group =>   1
Atom  10C    basis set group =>   1
Atom  11C    basis set group =>   1
Atom  12N    basis set group =>   2
Atom  13S    basis set group =>   4
Atom  14N    basis set group =>   2
Atom  15C    basis set group =>   1
Atom  16C    basis set group =>   1
Atom  17C    basis set group =>   1
Atom  18C    basis set group =>   1
Atom  19S    basis set group =>   4
Atom  20C    basis set group =>   1
Atom  21C    basis set group =>   1
Atom  22C    basis set group =>   1
Atom  23C    basis set group =>   1
Atom  24C    basis set group =>   1
Atom  25N    basis set group =>   2
Atom  26C    basis set group =>   1
Atom  27N    basis set group =>   2
Atom  28C    basis set group =>   1
Atom  29C    basis set group =>   1
Atom  30S    basis set group =>   4
Atom  31C    basis set group =>   1
Atom  32C    basis set group =>   1
Atom  33C    basis set group =>   1
Atom  34N    basis set group =>   2
Atom  35C    basis set group =>   1
Atom  36C    basis set group =>   1
Atom  37N    basis set group =>   2
Atom  38F    basis set group =>   3
Atom  39F    basis set group =>   3
Atom  40C    basis set group =>   1
Atom  41C    basis set group =>   1
Atom  42C    basis set group =>   1
Atom  43N    basis set group =>   2
Atom  44S    basis set group =>   4
Atom  45N    basis set group =>   2
Atom  46C    basis set group =>   1
Atom  47C    basis set group =>   1
Atom  48C    basis set group =>   1
Atom  49C    basis set group =>   1
Atom  50S    basis set group =>   4
Atom  51C    basis set group =>   1
Atom  52C    basis set group =>   1
Atom  53C    basis set group =>   1
Atom  54C    basis set group =>   1
Atom  55C    basis set group =>   1
Atom  56N    basis set group =>   2
Atom  57C    basis set group =>   1
Atom  58N    basis set group =>   2
Atom  59C    basis set group =>   1
Atom  60C    basis set group =>   1
Atom  61S    basis set group =>   4
Atom  62C    basis set group =>   1
Atom  63C    basis set group =>   1
Atom  64C    basis set group =>   1
Atom  65N    basis set group =>   2
Atom  66C    basis set group =>   1
Atom  67C    basis set group =>   1
Atom  68N    basis set group =>   2
Atom  69F    basis set group =>   3
Atom  70F    basis set group =>   3
Atom  71C    basis set group =>   1
Atom  72C    basis set group =>   1
Atom  73C    basis set group =>   1
Atom  74N    basis set group =>   2
Atom  75S    basis set group =>   4
Atom  76N    basis set group =>   2
Atom  77H    basis set group =>   5
Atom  78H    basis set group =>   5
Atom  79H    basis set group =>   5
Atom  80H    basis set group =>   5
Atom  81H    basis set group =>   5
Atom  82H    basis set group =>   5


           ************************************************************
           *        Program running with 6 parallel MPI-processes     *
           *              working on a common directory               *
           ************************************************************
------------------------------------------------------------------------------
                           ORCA GTO INTEGRAL CALCULATION
                           -- RI-GTO INTEGRALS CHOSEN --
------------------------------------------------------------------------------

                         BASIS SET STATISTICS AND STARTUP INFO

Gaussian basis set:
 # of primitive gaussian shells          ...  996
 # of primitive gaussian functions       ... 1974
 # of contracted shells                  ...  494
 # of contracted basis functions         ... 1136
 Highest angular momentum                ...    2
 Maximum contraction depth               ...    5
Auxiliary gaussian basis set:
 # of primitive gaussian shells          ... 1917
 # of primitive gaussian functions       ... 5535
 # of contracted shells                  ... 1199
 # of contracted aux-basis functions     ... 3853
 Highest angular momentum                ...    4
 Maximum contraction depth               ...    7
Ratio of auxiliary to basis functions    ...  3.39
Integral package used                  ... LIBINT
 One Electron integrals                  ... done
 Ordering auxiliary basis shells         ... done
 Integral threshhold             Thresh  ...  2.500e-11
 Primitive cut-off               TCut    ...  2.500e-12
 Pre-screening matrix                    ... done
 Shell pair data                         ... 
 Ordering of the shell pairs             ... done (   0.008 sec) 37819 of 122265 pairs
 Determination of significant pairs      ... done (   0.000 sec)
 Creation of shell pair data             ... done (   0.005 sec)
 Storage of shell pair data              ... done (   0.007 sec)
 Shell pair data done in (   0.021 sec)
 Computing two index integrals           ... done
 Cholesky decomposition of the V-matrix  ... done


Timings:
 Total evaluation time                   ...   2.138 sec (  0.036 min)
 One electron matrix time                ...   0.440 sec (  0.007 min) = 20.6%
 Schwartz matrix evaluation time         ...   0.713 sec (  0.012 min) = 33.3%
 Two index repulsion integral time       ...   0.336 sec (  0.006 min) = 15.7%
 Cholesky decomposition of V             ...   0.611 sec (  0.010 min) = 28.6%
 Three index repulsion integral time     ...   0.000 sec (  0.000 min) =  0.0%



           ************************************************************
           *        Program running with 6 parallel MPI-processes     *
           *              working on a common directory               *
           ************************************************************
-------------------------------------------------------------------------------
                                 ORCA SCF
-------------------------------------------------------------------------------

------------
SCF SETTINGS
------------
Hamiltonian:
 Density Functional     Method          .... DFT(GTOs)
 Exchange Functional    Exchange        .... WB88
 Correlation Functional Correlation     .... LYP
 LDA part of GGA corr.  LDAOpt          .... VWN-5
 Gradients option       PostSCFGGA      .... off
 Hybrid DFT is turned on
   Fraction HF Exchange ScalHFX         ....  0.190000
   Scaling of DF-GGA-X  ScalDFX         ....  0.350000
   Scaling of DF-GGA-C  ScalDFC         ....  0.810000
   Scaling of DF-LDA-C  ScalLDAC        ....  1.000000
   Perturbative correction              ....  0.000000
   Density functional embedding theory  .... OFF
 Long-range corrected/Screened/Range-Separated Hybrid DFT is turned on
   Amount of maximum screened exact exchange              ....  0.460000
   Range separation parameter mu (erf(mu*r12)/r12)        ....  0.330000
 RI-approximation to the Coulomb term is turned on
   Number of auxiliary basis functions  .... 3853
   RIJ-COSX (HFX calculated with COS-X)).... on


General Settings:
 Integral files         IntName         .... xtbopt
 Hartree-Fock type      HFTyp           .... RHF
 Total Charge           Charge          ....    0
 Multiplicity           Mult            ....    1
 Number of Electrons    NEL             ....  572
 Basis Dimension        Dim             .... 1136
 Nuclear Repulsion      ENuc            ....  12386.6173694506 Eh

Convergence Acceleration:
 DIIS                   CNVDIIS         .... on
   Start iteration      DIISMaxIt       ....    12
   Startup error        DIISStart       ....  0.200000
   # of expansion vecs  DIISMaxEq       ....     5
   Bias factor          DIISBfac        ....   1.050
   Max. coefficient     DIISMaxC        ....  10.000
 Newton-Raphson         CNVNR           .... off
 SOSCF                  CNVSOSCF        .... on
   Start iteration      SOSCFMaxIt      ....   150
   Startup grad/error   SOSCFStart      ....  0.003300
 Level Shifting         CNVShift        .... on
   Level shift para.    LevelShift      ....    0.2500
   Turn off err/grad.   ShiftErr        ....    0.0010
 Zerner damping         CNVZerner       .... off
 Static damping         CNVDamp         .... on
   Fraction old density DampFac         ....    0.7000
   Max. Damping (<1)    DampMax         ....    0.9800
   Min. Damping (>=0)   DampMin         ....    0.0000
   Turn off err/grad.   DampErr         ....    0.1000
 Fernandez-Rico         CNVRico         .... off

SCF Procedure:
 Maximum # iterations   MaxIter         ....   125
 SCF integral mode      SCFMode         .... Direct
   Integral package                     .... LIBINT
 Reset frequency        DirectResetFreq ....    20
 Integral Threshold     Thresh          ....  2.500e-11 Eh
 Primitive CutOff       TCut            ....  2.500e-12 Eh

Convergence Tolerance:
 Convergence Check Mode ConvCheckMode   .... Total+1el-Energy
 Convergence forced     ConvForced      .... 1
 Energy Change          TolE            ....  1.000e-08 Eh
 1-El. energy change                    ....  1.000e-05 Eh
 Orbital Gradient       TolG            ....  1.000e-05
 Orbital Rotation angle TolX            ....  1.000e-05
 DIIS Error             TolErr          ....  5.000e-07


Diagonalization of the overlap matrix:
Smallest eigenvalue                        ... 1.107e-04
Time for diagonalization                   ...    0.194 sec
Threshold for overlap eigenvalues          ... 1.000e-08
Number of eigenvalues below threshold      ... 0
Time for construction of square roots      ...    0.128 sec
Total time needed                          ...    0.325 sec

-------------------
DFT GRID GENERATION
-------------------

General Integration Accuracy     IntAcc      ...  4.670
Radial Grid Type                 RadialGrid  ... Gauss-Chebyshev
Angular Grid (max. acc.)         AngularGrid ... Lebedev-302
Angular grid pruning method      GridPruning ... 3 (G Style)
Weight generation scheme         WeightScheme... Becke
Basis function cutoff            BFCut       ...    1.0000e-11
Integration weight cutoff        WCut        ...    1.0000e-14
Grids for H and He will be reduced by one unit

# of grid points (after initial pruning)     ... 503486 (   0.0 sec)
# of grid points (after weights+screening)   ... 436207 (   4.3 sec)
nearest neighbour list constructed           ...    0.0 sec
Grid point re-assignment to atoms done       ...    0.1 sec
Grid point division into batches done        ...    1.7 sec
Reduced shell lists constructed in    2.5 sec

Total number of grid points                  ...   436207
Total number of batches                      ...     6858
Average number of points per batch           ...       63
Average number of grid points per atom       ...     5256
Average number of shells per batch           ...    71.63 (14.50%)
Average number of basis functions per batch  ...   160.24 (14.11%)
Average number of large shells per batch     ...    47.17 (65.85%)
Average number of large basis fcns per batch ...   106.47 (66.45%)
Maximum spatial batch extension              ...  16.13, 23.01, 12.61 au
Average spatial batch extension              ...   0.36,  0.41,  0.34 au

Time for grid setup =    7.152 sec

------------------------------
INITIAL GUESS: MODEL POTENTIAL
------------------------------
Loading Hartree-Fock densities                     ... done
Calculating cut-offs                               ... done
Setting up the integral package                    ... done
Initializing the effective Hamiltonian             ... done
Starting the Coulomb interaction                   ... done (   1.1 sec)
Reading the grid                                   ... done
Mapping shells                                     ... done
Starting the XC term evaluation                    ... done (   1.2 sec)
  promolecular density results
     # of electrons  =    571.995906068
     EX              =   -586.634194990
     EC              =    -20.307915583
     EX+EC           =   -606.942110573
Transforming the Hamiltonian                       ... done (   0.1 sec)
Diagonalizing the Hamiltonian                      ... done (   0.2 sec)
Back transforming the eigenvectors                 ... done (   0.0 sec)
Now organizing SCF variables                       ... done
                      ------------------
                      INITIAL GUESS DONE (   9.9 sec)
                      ------------------
--------------------
COSX GRID GENERATION
--------------------

General Integration Accuracy     IntAcc      ...  3.340
Radial Grid Type                 RadialGrid  ... Gauss-Chebyshev
Angular Grid (max. acc.)         AngularGrid ... Lebedev-50
Angular grid pruning method      GridPruning ... 3 (G Style)
Weight generation scheme         WeightScheme... Becke
Basis function cutoff            BFCut       ...    1.0000e-11
Integration weight cutoff        WCut        ...    1.0000e-14
Grids for H and He will be reduced by one unit

# of grid points (after initial pruning)     ...  47238 (   0.0 sec)
# of grid points (after weights+screening)   ...  42870 (   0.4 sec)
nearest neighbour list constructed           ...    0.0 sec
Grid point re-assignment to atoms done       ...    0.0 sec
Grid point division into batches done        ...    0.0 sec
Reduced shell lists constructed in    0.1 sec

Total number of grid points                  ...    42870
Total number of batches                      ...      713
Average number of points per batch           ...       60
Average number of grid points per atom       ...      517
Average number of shells per batch           ...    86.91 (17.59%)
Average number of basis functions per batch  ...   195.51 (17.21%)
Average number of large shells per batch     ...    57.28 (65.91%)
Average number of large basis fcns per batch ...   131.38 (67.20%)
Maximum spatial batch extension              ...  14.85, 25.07, 14.47 au
Average spatial batch extension              ...   0.60,  1.17,  0.55 au

Overlap Fitting                  UseSFitting ... on
Constructing numerical overlap ... done (      0.1 sec)
Inverting numerical overlap    ... done (      0.0 sec)
Obtaining analytic overlap     ... done (      0.0 sec)
Final contraction and storage  ... done (      0.1 sec)


General Integration Accuracy     IntAcc      ...  3.670
Radial Grid Type                 RadialGrid  ... Gauss-Chebyshev
Angular Grid (max. acc.)         AngularGrid ... Lebedev-50
Angular grid pruning method      GridPruning ... 3 (G Style)
Weight generation scheme         WeightScheme... Becke
Basis function cutoff            BFCut       ...    1.0000e-11
Integration weight cutoff        WCut        ...    1.0000e-14
Grids for H and He will be reduced by one unit

# of grid points (after initial pruning)     ...  58126 (   0.0 sec)
# of grid points (after weights+screening)   ...  52533 (   0.5 sec)
nearest neighbour list constructed           ...    0.0 sec
Grid point re-assignment to atoms done       ...    0.0 sec
Grid point division into batches done        ...    0.0 sec
Reduced shell lists constructed in    0.1 sec

Total number of grid points                  ...    52533
Total number of batches                      ...      870
Average number of points per batch           ...       60
Average number of grid points per atom       ...      633
Average number of shells per batch           ...    85.87 (17.38%)
Average number of basis functions per batch  ...   192.92 (16.98%)
Average number of large shells per batch     ...    56.18 (65.42%)
Average number of large basis fcns per batch ...   128.58 (66.65%)
Maximum spatial batch extension              ...  16.20, 39.19, 15.35 au
Average spatial batch extension              ...   0.56,  1.09,  0.53 au

Overlap Fitting                  UseSFitting ... on
Constructing numerical overlap ... done (      0.1 sec)
Inverting numerical overlap    ... done (      0.0 sec)
Obtaining analytic overlap     ... done (      0.0 sec)
Final contraction and storage  ... done (      0.1 sec)


General Integration Accuracy     IntAcc      ...  4.010
Radial Grid Type                 RadialGrid  ... Gauss-Chebyshev
Angular Grid (max. acc.)         AngularGrid ... Lebedev-110
Angular grid pruning method      GridPruning ... 3 (G Style)
Weight generation scheme         WeightScheme... Becke
Basis function cutoff            BFCut       ...    1.0000e-11
Integration weight cutoff        WCut        ...    1.0000e-14
Grids for H and He will be reduced by one unit

# of grid points (after initial pruning)     ... 118060 (   0.0 sec)
# of grid points (after weights+screening)   ... 105300 (   1.0 sec)
nearest neighbour list constructed           ...    0.0 sec
Grid point re-assignment to atoms done       ...    0.0 sec
Grid point division into batches done        ...    0.1 sec
Reduced shell lists constructed in    0.3 sec

Total number of grid points                  ...   105300
Total number of batches                      ...     1692
Average number of points per batch           ...       62
Average number of grid points per atom       ...     1269
Average number of shells per batch           ...    80.95 (16.39%)
Average number of basis functions per batch  ...   181.92 (16.01%)
Average number of large shells per batch     ...    53.54 (66.14%)
Average number of large basis fcns per batch ...   121.61 (66.85%)
Maximum spatial batch extension              ...  19.43, 32.28, 18.36 au
Average spatial batch extension              ...   0.53,  0.77,  0.50 au

Overlap Fitting                  UseSFitting ... on
Constructing numerical overlap ... done (      0.1 sec)
Inverting numerical overlap    ... done (      0.0 sec)
Obtaining analytic overlap     ... done (      0.0 sec)
Final contraction and storage  ... done (      0.1 sec)

Time for X-Grid setup             =    3.388 sec
--------------
SCF ITERATIONS
--------------
ITER       Energy         Delta-E        Max-DP      RMS-DP      [F,P]     Damp
               ***  Starting incremental Fock matrix formation  ***
  0  -6088.4751361016   0.000000000000 0.08458841  0.00109260  0.2228398 0.7000
  1  -6089.2608542573  -0.785718155650 0.04561891  0.00072926  0.1015889 0.7000
                               ***Turning on DIIS***
  2  -6089.5638829419  -0.303028684610 0.11140495  0.00125063  0.0444955 0.0000
  3  -6090.0282580573  -0.464375115418 0.06093563  0.00056177  0.0736358 0.0000
  4  -6090.1535572302  -0.125299172903 0.01538895  0.00020036  0.0144798 0.0000
  5  -6090.1601574448  -0.006600214594 0.00786401  0.00006966  0.0122492 0.0000
                      *** Initiating the SOSCF procedure ***
                           *** Shutting down DIIS ***
                      *** Re-Reading the Fockian *** 
                      *** Removing any level shift *** 
ITER      Energy       Delta-E        Grad      Rot      Max-DP    RMS-DP
  6  -6090.16159621  -0.0014387648  0.001700  0.001700  0.002866  0.000036
               *** Restarting incremental Fock matrix formation ***
  7  -6090.16198675  -0.0003905396  0.000990  0.006007  0.003279  0.000030
  8  -6090.16215595  -0.0001691977  0.000595  0.005273  0.002925  0.000032
  9  -6090.16216369  -0.0000077456  0.000959  0.001560  0.001131  0.000013
 10  -6090.16220424  -0.0000405476  0.000208  0.000855  0.000684  0.000007
 11  -6090.16220360   0.0000006355  0.000139  0.000470  0.000350  0.000004
 12  -6090.16220739  -0.0000037831  0.000021  0.000111  0.000085  0.000001
 13  -6090.16220737   0.0000000223  0.000044  0.000059  0.000052  0.000001
 14  -6090.16220748  -0.0000001162  0.000006  0.000036  0.000033  0.000000
 15  -6090.16220747   0.0000000126  0.000006  0.000015  0.000018  0.000000
                  ***Gradient check signals convergence***
              ***Rediagonalizing the Fockian in SOSCF/NRSCF***

               *****************************************************
               *                     SUCCESS                       *
               *           SCF CONVERGED AFTER  16 CYCLES          *
               *****************************************************

Setting up the final grid:

General Integration Accuracy     IntAcc      ...  5.010
Radial Grid Type                 RadialGrid  ... Gauss-Chebyshev
Angular Grid (max. acc.)         AngularGrid ... Lebedev-434
Angular grid pruning method      GridPruning ... 3 (G Style)
Weight generation scheme         WeightScheme... Becke
Basis function cutoff            BFCut       ...    1.0000e-11
Integration weight cutoff        WCut        ...    1.0000e-14
Grids for H and He will be reduced by one unit

# of grid points (after initial pruning)     ... 870184 (   0.0 sec)
# of grid points (after weights+screening)   ... 751121 (   7.3 sec)
nearest neighbour list constructed           ...    0.0 sec
Grid point re-assignment to atoms done       ...    0.1 sec
Grid point division into batches done        ...    5.4 sec
Reduced shell lists constructed in    6.7 sec

Total number of grid points                  ...   751121
Total number of batches                      ...    11776
Average number of points per batch           ...       63
Average number of grid points per atom       ...     9050
Average number of shells per batch           ...    69.26 (14.02%)
Average number of basis functions per batch  ...   154.65 (13.61%)
Average number of large shells per batch     ...    45.51 (65.71%)
Average number of large basis fcns per batch ...   102.61 (66.35%)
Maximum spatial batch extension              ...  17.38, 23.71, 19.84 au
Average spatial batch extension              ...   0.30,  0.33,  0.29 au

Final grid set up in   14.6 sec
Final integration                            ... done (   2.7 sec)
Change in XC energy                          ...    -0.000021330
Integrated number of electrons               ...   571.999896540
Previous integrated no of electrons          ...   571.999525338
Old exchange energy                            =   -157.673078372 Eh
New exchange energy                            =   -157.669058505 Eh
Exchange energy change after final integration =      0.004019867 Eh
Total energy after final integration           =  -6090.158208923 Eh
Final COS-X integration done in                =    54.813 sec

----------------
TOTAL SCF ENERGY
----------------

Total Energy       :        -6090.15820892 Eh         -165721.62999 eV

Components:
Nuclear Repulsion  :        12386.61736945 Eh          337056.99427 eV
Electronic Energy  :       -18476.77557837 Eh         -502778.62426 eV
One Electron Energy:       -33038.06631137 Eh         -899011.48919 eV
Two Electron Energy:        14561.29073300 Eh          396232.86493 eV

Virial components:
Potential Energy   :       -12146.59737325 Eh         -330525.71813 eV
Kinetic Energy     :         6056.43916432 Eh          164804.08814 eV
Virial Ratio       :            2.00556747


DFT components:
N(Alpha)           :      285.999948269946 electrons
N(Beta)            :      285.999948269946 electrons
N(Total)           :      571.999896539892 electrons
E(XC)              :     -456.842101845764 Eh       
DFET-embed. en.    :        0.000000000000 Eh       

---------------
SCF CONVERGENCE
---------------

  Last Energy change         ...    9.5588e-09  Tolerance :   1.0000e-08
  Last MAX-Density change    ...    9.7700e-15  Tolerance :   1.0000e-07
  Last RMS-Density change    ...    4.2207e-17  Tolerance :   5.0000e-09
  Last Orbital Gradient      ...    1.0689e-06  Tolerance :   1.0000e-05
  Last Orbital Rotation      ...    9.4509e-06  Tolerance :   1.0000e-05

             **** THE GBW FILE WAS UPDATED (xtbopt.gbw) ****
             **** DENSITY FILE WAS UPDATED (xtbopt.scfp) ****
             **** ENERGY FILE WAS UPDATED (xtbopt.en.tmp) ****
             **** THE GBW FILE WAS UPDATED (xtbopt.gbw) ****
             **** DENSITY FILE WAS UPDATED (xtbopt.scfp) ****
----------------
ORBITAL ENERGIES
----------------

  NO   OCC          E(Eh)            E(eV) 
   0   2.0000     -89.043135     -2422.9869 
   1   2.0000     -89.040064     -2422.9033 
   2   2.0000     -89.039789     -2422.8958 
   3   2.0000     -88.979363     -2421.2516 
   4   2.0000     -88.979222     -2421.2477 
   5   2.0000     -88.978791     -2421.2360 
   6   2.0000     -88.978592     -2421.2306 
   7   2.0000     -24.825554      -675.5377 
   8   2.0000     -24.825352      -675.5322 
   9   2.0000     -24.820538      -675.4012 
  10   2.0000     -24.820460      -675.3990 
  11   2.0000     -24.814539      -675.2379 
  12   2.0000     -24.814410      -675.2344 
  13   2.0000     -14.466537      -393.6545 
  14   2.0000     -14.466382      -393.6503 
  15   2.0000     -14.460515      -393.4906 
  16   2.0000     -14.460511      -393.4905 
  17   2.0000     -14.452995      -393.2860 
  18   2.0000     -14.452875      -393.2827 
  19   2.0000     -14.452017      -393.2594 
  20   2.0000     -14.451930      -393.2570 
  21   2.0000     -14.448317      -393.1587 
  22   2.0000     -14.448305      -393.1584 
  23   2.0000     -14.445616      -393.0852 
  24   2.0000     -14.445605      -393.0849 
  25   2.0000     -14.422098      -392.4452 
  26   2.0000     -14.422094      -392.4451 
  27   2.0000     -14.421974      -392.4419 
  28   2.0000     -14.421929      -392.4406 
  29   2.0000     -10.441577      -284.1298 
  30   2.0000     -10.441277      -284.1216 
  31   2.0000     -10.435556      -283.9659 
  32   2.0000     -10.435459      -283.9633 
  33   2.0000     -10.431158      -283.8463 
  34   2.0000     -10.431036      -283.8429 
  35   2.0000     -10.355180      -281.7788 
  36   2.0000     -10.355129      -281.7774 
  37   2.0000     -10.350930      -281.6631 
  38   2.0000     -10.350655      -281.6556 
  39   2.0000     -10.344370      -281.4846 
  40   2.0000     -10.344298      -281.4827 
  41   2.0000     -10.343783      -281.4687 
  42   2.0000     -10.343704      -281.4665 
  43   2.0000     -10.343562      -281.4626 
  44   2.0000     -10.343322      -281.4561 
  45   2.0000     -10.343195      -281.4526 
  46   2.0000     -10.343101      -281.4501 
  47   2.0000     -10.338644      -281.3288 
  48   2.0000     -10.338518      -281.3254 
  49   2.0000     -10.335245      -281.2363 
  50   2.0000     -10.335229      -281.2359 
  51   2.0000     -10.322819      -280.8982 
  52   2.0000     -10.322795      -280.8975 
  53   2.0000     -10.322661      -280.8939 
  54   2.0000     -10.322624      -280.8929 
  55   2.0000     -10.321953      -280.8746 
  56   2.0000     -10.321933      -280.8741 
  57   2.0000     -10.320564      -280.8368 
  58   2.0000     -10.320361      -280.8313 
  59   2.0000     -10.319880      -280.8182 
  60   2.0000     -10.319776      -280.8154 
  61   2.0000     -10.319164      -280.7987 
  62   2.0000     -10.319092      -280.7968 
  63   2.0000     -10.318817      -280.7893 
  64   2.0000     -10.318785      -280.7884 
  65   2.0000     -10.318062      -280.7687 
  66   2.0000     -10.318044      -280.7683 
  67   2.0000     -10.295528      -280.1556 
  68   2.0000     -10.295500      -280.1548 
  69   2.0000     -10.293800      -280.1085 
  70   2.0000     -10.293766      -280.1076 
  71   2.0000     -10.293073      -280.0887 
  72   2.0000     -10.292967      -280.0859 
  73   2.0000     -10.290611      -280.0218 
  74   2.0000     -10.290556      -280.0203 
  75   2.0000     -10.290472      -280.0180 
  76   2.0000     -10.290397      -280.0159 
  77   2.0000      -8.134289      -221.3453 
  78   2.0000      -8.131290      -221.2636 
  79   2.0000      -8.131156      -221.2600 
  80   2.0000      -8.072123      -219.6536 
  81   2.0000      -8.072066      -219.6521 
  82   2.0000      -8.071584      -219.6390 
  83   2.0000      -8.071477      -219.6361 
  84   2.0000      -6.105407      -166.1366 
  85   2.0000      -6.102244      -166.0505 
  86   2.0000      -6.102115      -166.0470 
  87   2.0000      -6.097454      -165.9202 
  88   2.0000      -6.097118      -165.9110 
  89   2.0000      -6.094415      -165.8375 
  90   2.0000      -6.094392      -165.8368 
  91   2.0000      -6.094270      -165.8335 
  92   2.0000      -6.094213      -165.8320 
  93   2.0000      -6.041575      -164.3996 
  94   2.0000      -6.041514      -164.3979 
  95   2.0000      -6.041021      -164.3845 
  96   2.0000      -6.040922      -164.3818 
  97   2.0000      -6.036891      -164.2722 
  98   2.0000      -6.036822      -164.2703 
  99   2.0000      -6.036329      -164.2569 
 100   2.0000      -6.036213      -164.2537 
 101   2.0000      -6.034663      -164.2115 
 102   2.0000      -6.034581      -164.2093 
 103   2.0000      -6.034136      -164.1972 
 104   2.0000      -6.033999      -164.1935 
 105   2.0000      -1.354271       -36.8516 
 106   2.0000      -1.346776       -36.6476 
 107   2.0000      -1.346725       -36.6462 
 108   2.0000      -1.340259       -36.4703 
 109   2.0000      -1.331446       -36.2305 
 110   2.0000      -1.331442       -36.2304 
 111   2.0000      -1.141656       -31.0660 
 112   2.0000      -1.136390       -30.9228 
 113   2.0000      -1.136383       -30.9225 
 114   2.0000      -1.124843       -30.6085 
 115   2.0000      -1.114888       -30.3377 
 116   2.0000      -1.114834       -30.3362 
 117   2.0000      -1.052283       -28.6341 
 118   2.0000      -1.041684       -28.3457 
 119   2.0000      -1.041597       -28.3433 
 120   2.0000      -1.033707       -28.1286 
 121   2.0000      -1.033135       -28.1130 
 122   2.0000      -1.013477       -27.5781 
 123   2.0000      -1.013320       -27.5738 
 124   2.0000      -1.000317       -27.2200 
 125   2.0000      -0.999856       -27.2075 
 126   2.0000      -0.998822       -27.1793 
 127   2.0000      -0.996719       -27.1221 
 128   2.0000      -0.991851       -26.9896 
 129   2.0000      -0.987849       -26.8807 
 130   2.0000      -0.982618       -26.7384 
 131   2.0000      -0.975904       -26.5557 
 132   2.0000      -0.967380       -26.3237 
 133   2.0000      -0.962849       -26.2005 
 134   2.0000      -0.947503       -25.7829 
 135   2.0000      -0.944686       -25.7062 
 136   2.0000      -0.912791       -24.8383 
 137   2.0000      -0.903988       -24.5988 
 138   2.0000      -0.891495       -24.2588 
 139   2.0000      -0.886778       -24.1304 
 140   2.0000      -0.882266       -24.0077 
 141   2.0000      -0.882015       -24.0008 
 142   2.0000      -0.872826       -23.7508 
 143   2.0000      -0.868833       -23.6422 
 144   2.0000      -0.856415       -23.3042 
 145   2.0000      -0.851025       -23.1576 
 146   2.0000      -0.844622       -22.9833 
 147   2.0000      -0.844132       -22.9700 
 148   2.0000      -0.823156       -22.3992 
 149   2.0000      -0.813521       -22.1370 
 150   2.0000      -0.812653       -22.1134 
 151   2.0000      -0.806925       -21.9576 
 152   2.0000      -0.792631       -21.5686 
 153   2.0000      -0.776059       -21.1176 
 154   2.0000      -0.775493       -21.1022 
 155   2.0000      -0.769502       -20.9392 
 156   2.0000      -0.768939       -20.9239 
 157   2.0000      -0.759186       -20.6585 
 158   2.0000      -0.756813       -20.5939 
 159   2.0000      -0.751233       -20.4421 
 160   2.0000      -0.748555       -20.3692 
 161   2.0000      -0.737327       -20.0637 
 162   2.0000      -0.721437       -19.6313 
 163   2.0000      -0.708447       -19.2778 
 164   2.0000      -0.699519       -19.0349 
 165   2.0000      -0.688248       -18.7282 
 166   2.0000      -0.687936       -18.7197 
 167   2.0000      -0.684234       -18.6190 
 168   2.0000      -0.684013       -18.6129 
 169   2.0000      -0.683553       -18.6004 
 170   2.0000      -0.679463       -18.4891 
 171   2.0000      -0.677647       -18.4397 
 172   2.0000      -0.674961       -18.3666 
 173   2.0000      -0.669985       -18.2312 
 174   2.0000      -0.665705       -18.1148 
 175   2.0000      -0.664214       -18.0742 
 176   2.0000      -0.656020       -17.8512 
 177   2.0000      -0.653884       -17.7931 
 178   2.0000      -0.644338       -17.5333 
 179   2.0000      -0.642589       -17.4857 
 180   2.0000      -0.632479       -17.2106 
 181   2.0000      -0.632260       -17.2047 
 182   2.0000      -0.628991       -17.1157 
 183   2.0000      -0.625750       -17.0275 
 184   2.0000      -0.622818       -16.9477 
 185   2.0000      -0.621033       -16.8992 
 186   2.0000      -0.620714       -16.8905 
 187   2.0000      -0.620700       -16.8901 
 188   2.0000      -0.617164       -16.7939 
 189   2.0000      -0.606316       -16.4987 
 190   2.0000      -0.605525       -16.4772 
 191   2.0000      -0.599941       -16.3252 
 192   2.0000      -0.595062       -16.1925 
 193   2.0000      -0.584415       -15.9027 
 194   2.0000      -0.581020       -15.8103 
 195   2.0000      -0.573115       -15.5953 
 196   2.0000      -0.573051       -15.5935 
 197   2.0000      -0.569385       -15.4938 
 198   2.0000      -0.569184       -15.4883 
 199   2.0000      -0.562147       -15.2968 
 200   2.0000      -0.562136       -15.2965 
 201   2.0000      -0.558680       -15.2024 
 202   2.0000      -0.557897       -15.1812 
 203   2.0000      -0.548355       -14.9215 
 204   2.0000      -0.547324       -14.8935 
 205   2.0000      -0.540993       -14.7212 
 206   2.0000      -0.540536       -14.7087 
 207   2.0000      -0.538269       -14.6470 
 208   2.0000      -0.538149       -14.6438 
 209   2.0000      -0.537805       -14.6344 
 210   2.0000      -0.537668       -14.6307 
 211   2.0000      -0.528438       -14.3795 
 212   2.0000      -0.523497       -14.2451 
 213   2.0000      -0.522013       -14.2047 
 214   2.0000      -0.520249       -14.1567 
 215   2.0000      -0.520086       -14.1523 
 216   2.0000      -0.519226       -14.1289 
 217   2.0000      -0.517708       -14.0876 
 218   2.0000      -0.513606       -13.9759 
 219   2.0000      -0.513384       -13.9699 
 220   2.0000      -0.510359       -13.8876 
 221   2.0000      -0.510148       -13.8818 
 222   2.0000      -0.499195       -13.5838 
 223   2.0000      -0.495379       -13.4800 
 224   2.0000      -0.489197       -13.3117 
 225   2.0000      -0.487656       -13.2698 
 226   2.0000      -0.487214       -13.2578 
 227   2.0000      -0.484951       -13.1962 
 228   2.0000      -0.484512       -13.1842 
 229   2.0000      -0.484164       -13.1748 
 230   2.0000      -0.479340       -13.0435 
 231   2.0000      -0.478872       -13.0308 
 232   2.0000      -0.478506       -13.0208 
 233   2.0000      -0.471241       -12.8231 
 234   2.0000      -0.469743       -12.7824 
 235   2.0000      -0.463566       -12.6143 
 236   2.0000      -0.460331       -12.5263 
 237   2.0000      -0.458656       -12.4807 
 238   2.0000      -0.456670       -12.4266 
 239   2.0000      -0.455817       -12.4034 
 240   2.0000      -0.454082       -12.3562 
 241   2.0000      -0.453733       -12.3467 
 242   2.0000      -0.452689       -12.3183 
 243   2.0000      -0.448424       -12.2022 
 244   2.0000      -0.447223       -12.1696 
 245   2.0000      -0.445213       -12.1149 
 246   2.0000      -0.436254       -11.8711 
 247   2.0000      -0.432732       -11.7752 
 248   2.0000      -0.432721       -11.7749 
 249   2.0000      -0.430984       -11.7277 
 250   2.0000      -0.430807       -11.7229 
 251   2.0000      -0.430127       -11.7044 
 252   2.0000      -0.423233       -11.5168 
 253   2.0000      -0.420965       -11.4550 
 254   2.0000      -0.420726       -11.4485 
 255   2.0000      -0.420211       -11.4345 
 256   2.0000      -0.414291       -11.2734 
 257   2.0000      -0.414250       -11.2723 
 258   2.0000      -0.409151       -11.1336 
 259   2.0000      -0.408700       -11.1213 
 260   2.0000      -0.407294       -11.0830 
 261   2.0000      -0.403448       -10.9784 
 262   2.0000      -0.401905       -10.9364 
 263   2.0000      -0.399158       -10.8616 
 264   2.0000      -0.398561       -10.8454 
 265   2.0000      -0.390981       -10.6391 
 266   2.0000      -0.377150       -10.2628 
 267   2.0000      -0.375790       -10.2258 
 268   2.0000      -0.375635       -10.2215 
 269   2.0000      -0.372900       -10.1471 
 270   2.0000      -0.370587       -10.0842 
 271   2.0000      -0.365470        -9.9449 
 272   2.0000      -0.364966        -9.9312 
 273   2.0000      -0.362934        -9.8759 
 274   2.0000      -0.348073        -9.4715 
 275   2.0000      -0.340229        -9.2581 
 276   2.0000      -0.340168        -9.2564 
 277   2.0000      -0.339042        -9.2258 
 278   2.0000      -0.337757        -9.1908 
 279   2.0000      -0.334193        -9.0938 
 280   2.0000      -0.316200        -8.6042 
 281   2.0000      -0.313070        -8.5191 
 282   2.0000      -0.312188        -8.4951 
 283   2.0000      -0.287713        -7.8291 
 284   2.0000      -0.259135        -7.0514 
 285   2.0000      -0.229729        -6.2512 
 286   0.0000      -0.126738        -3.4487 
 287   0.0000      -0.107295        -2.9196 
 288   0.0000      -0.099488        -2.7072 
 289   0.0000      -0.089426        -2.4334 
 290   0.0000      -0.087983        -2.3941 
 291   0.0000      -0.031928        -0.8688 
 292   0.0000      -0.023666        -0.6440 
 293   0.0000      -0.023398        -0.6367 
 294   0.0000      -0.018749        -0.5102 
 295   0.0000      -0.013412        -0.3650 
 296   0.0000       0.000478         0.0130 
 297   0.0000       0.004689         0.1276 
 298   0.0000       0.008791         0.2392 
 299   0.0000       0.016665         0.4535 
 300   0.0000       0.036795         1.0013 
 301   0.0000       0.041857         1.1390 
 302   0.0000       0.041913         1.1405 
 303   0.0000       0.055241         1.5032 
 304   0.0000       0.060658         1.6506 
 305   0.0000       0.060667         1.6508 
 306   0.0000       0.074572         2.0292 
 307   0.0000       0.074632         2.0309 
 308   0.0000       0.074833         2.0363 
 309   0.0000       0.076388         2.0786 
 310   0.0000       0.083872         2.2823 
 311   0.0000       0.089687         2.4405 
 312   0.0000       0.093356         2.5404 
 313   0.0000       0.095295         2.5931 
 314   0.0000       0.096400         2.6232 
 315   0.0000       0.106894         2.9087 
 316   0.0000       0.108329         2.9478 
 317   0.0000       0.116616         3.1733 
 318   0.0000       0.119160         3.2425 
 319   0.0000       0.120364         3.2753 
 320   0.0000       0.120518         3.2795 
 321   0.0000       0.122878         3.3437 
 322   0.0000       0.125999         3.4286 
 323   0.0000       0.130781         3.5587 
 324   0.0000       0.132506         3.6057 
 325   0.0000       0.134337         3.6555 
 326   0.0000       0.134502         3.6600 
 327   0.0000       0.135603         3.6899 
 328   0.0000       0.135874         3.6973 
 329   0.0000       0.140214         3.8154 
 330   0.0000       0.140290         3.8175 
 331   0.0000       0.143025         3.8919 
 332   0.0000       0.145729         3.9655 
 333   0.0000       0.145843         3.9686 
 334   0.0000       0.155621         4.2347 
 335   0.0000       0.156496         4.2585 
 336   0.0000       0.167849         4.5674 
 337   0.0000       0.168187         4.5766 
 338   0.0000       0.185065         5.0359 
 339   0.0000       0.194562         5.2943 
 340   0.0000       0.198858         5.4112 
 341   0.0000       0.205361         5.5882 
 342   0.0000       0.208591         5.6761 
 343   0.0000       0.210440         5.7264 
 344   0.0000       0.214979         5.8499 
 345   0.0000       0.217322         5.9136 
 346   0.0000       0.217951         5.9307 
 347   0.0000       0.218488         5.9454 
 348   0.0000       0.221382         6.0241 
 349   0.0000       0.224719         6.1149 
 350   0.0000       0.227174         6.1817 
 351   0.0000       0.231755         6.3064 
 352   0.0000       0.231895         6.3102 
 353   0.0000       0.233650         6.3579 
 354   0.0000       0.233712         6.3596 
 355   0.0000       0.235307         6.4030 
 356   0.0000       0.235521         6.4089 
 357   0.0000       0.236758         6.4425 
 358   0.0000       0.242537         6.5998 
 359   0.0000       0.246638         6.7114 
 360   0.0000       0.247804         6.7431 
 361   0.0000       0.255369         6.9490 
 362   0.0000       0.255831         6.9615 
 363   0.0000       0.263955         7.1826 
 364   0.0000       0.266483         7.2514 
 365   0.0000       0.271171         7.3789 
 366   0.0000       0.271435         7.3861 
 367   0.0000       0.277818         7.5598 
 368   0.0000       0.279825         7.6144 
 369   0.0000       0.289666         7.8822 
 370   0.0000       0.294412         8.0114 
 371   0.0000       0.296875         8.0784 
 372   0.0000       0.297997         8.1089 
 373   0.0000       0.300210         8.1691 
 374   0.0000       0.305615         8.3162 
 375   0.0000       0.306253         8.3336 
 376   0.0000       0.309247         8.4150 
 377   0.0000       0.310047         8.4368 
 378   0.0000       0.313887         8.5413 
 379   0.0000       0.315922         8.5967 
 380   0.0000       0.318048         8.6545 
 381   0.0000       0.318336         8.6624 
 382   0.0000       0.330378         8.9900 
 383   0.0000       0.331778         9.0281 
 384   0.0000       0.332502         9.0479 
 385   0.0000       0.333827         9.0839 
 386   0.0000       0.339744         9.2449 
 387   0.0000       0.340462         9.2644 
 388   0.0000       0.347366         9.4523 
 389   0.0000       0.353291         9.6135 
 390   0.0000       0.355168         9.6646 
 391   0.0000       0.355722         9.6797 
 392   0.0000       0.358153         9.7458 
 393   0.0000       0.358636         9.7590 
 394   0.0000       0.360223         9.8022 
 395   0.0000       0.362101         9.8533 
 396   0.0000       0.366428         9.9710 
 397   0.0000       0.369142        10.0449 
 398   0.0000       0.374097        10.1797 
 399   0.0000       0.375474        10.2172 
 400   0.0000       0.378191        10.2911 
 401   0.0000       0.378385        10.2964 
 402   0.0000       0.381605        10.3840 
 403   0.0000       0.390587        10.6284 
 404   0.0000       0.394053        10.7227 
 405   0.0000       0.396459        10.7882 
 406   0.0000       0.405522        11.0348 
 407   0.0000       0.407452        11.0873 
 408   0.0000       0.409582        11.1453 
 409   0.0000       0.414354        11.2751 
 410   0.0000       0.422551        11.4982 
 411   0.0000       0.425325        11.5737 
 412   0.0000       0.426684        11.6107 
 413   0.0000       0.427129        11.6228 
 414   0.0000       0.431793        11.7497 
 415   0.0000       0.434421        11.8212 
 416   0.0000       0.436391        11.8748 
[...]
  51   4.650     266.6   0.013470   0.010302  -0.369942  -0.436619     0.30 (  91->  98)    0.24 (  92->  97)    0.12 (  91-> 100)
  52   4.666     265.7   0.064379   0.045946  -0.365075  -1.299237     0.33 (  86->  96)    0.15 (  85->  99)    0.13 (  95-> 108)
  53   4.684     264.7   0.026416   0.024728   0.328473   0.713698     0.24 (  85->  96)    0.11 (  79->  96)    0.11 (  86->  99)
  54   4.714     263.0   0.032042   0.031251   1.564462   1.901351     0.40 (  82->  96)    0.11 (  90->  98)    0.08 (  95-> 106)
  55   4.729     262.2   0.000149   0.000126  -1.374367  -1.279416     0.69 (  75->  96)    0.08 (  75->  98)    0.07 (  81->  96)
  56   4.838     256.3   0.141859   0.122987  10.081813   8.683933     0.25 (  94-> 102)    0.14 (  94-> 104)    0.14 (  95-> 103)
  57   4.853     255.5   0.174484   0.153279  -42.256746  -38.576555     0.40 (  95-> 107)    0.08 (  85->  98)    0.06 (  79->  96)
  58   4.876     254.2   0.017276   0.013173  -3.840083  -3.805021     0.24 (  94-> 103)    0.23 (  95-> 102)    0.17 (  93-> 102)
  59   4.904     252.8   0.451103   0.384647  37.385281  34.971924     0.26 (  95-> 108)    0.13 (  95-> 103)    0.08 (  94-> 102)
  60   4.924     251.8   0.011574   0.009012  -1.160718  -0.729941     0.58 (  84->  97)    0.27 (  84->  99)    0.01 (  90->  97)
  61   4.927     251.7   0.269240   0.219618  18.906701  17.773056     0.19 (  95-> 108)    0.18 (  94-> 104)    0.08 (  89->  97)
  62   4.965     249.7   0.229252   0.183856  -9.699631  -9.183122     0.19 (  94-> 105)    0.16 (  95-> 109)    0.08 (  79->  96)
  63   4.970     249.4   0.005715   0.004070   0.205538   0.123136     0.27 (  94-> 104)    0.14 (  89->  97)    0.08 (  87->  97)

-----------------------------------------------------------------------------
         ABSORPTION SPECTRUM VIA TRANSITION ELECTRIC DIPOLE MOMENTS
-----------------------------------------------------------------------------
State   Energy  Wavelength   fosc         T2         TX        TY        TZ  
        (cm-1)    (nm)                  (au**2)     (au)      (au)      (au) 
-----------------------------------------------------------------------------
   0    8266.2   1209.7   1.088478955  43.35003  -3.24882  -0.27036   5.72032
   1   12232.2    817.5   0.033300672   0.89624  -0.79586  -0.21064  -0.46741
   2   13458.9    743.0   0.000372752   0.00912   0.04016  -0.00180  -0.08661
   3   15424.7    648.3   0.355101138   7.57899   1.31825   0.09524  -2.41498
   4   15491.3    645.5   0.087086313   1.85071  -1.20451  -0.24347  -0.58360
   5   16235.2    615.9   0.002353715   0.04773   0.15246   0.12480   0.09438
   6   20799.0    480.8   0.005820371   0.09213   0.14832   0.00433  -0.26478
   7   22593.6    442.6   0.015562179   0.22676  -0.41321   0.01860  -0.23594
   8   23167.4    431.6   0.145450526   2.06687   0.70971   0.05944  -1.24886
   9   24184.1    413.5   0.003326651   0.04528   0.10542   0.00439  -0.18481
  10   24244.5    412.5   0.000086584   0.00118  -0.01687  -0.02864  -0.00841
  11   25449.0    392.9   0.044534606   0.57611  -0.37479  -0.03299   0.65921
  12   25946.8    385.4   0.055942087   0.70979  -0.73121  -0.01591  -0.41817
  13   26040.4    384.0   0.013820838   0.17473  -0.20696  -0.01861   0.36270
  14   26802.6    373.1   0.019822647   0.24348  -0.42804  -0.04982  -0.24038
  15   28084.4    356.1   0.001507528   0.01767   0.06778   0.00221  -0.11433
  16   28585.3    349.8   0.062278661   0.71725   0.73323   0.04975   0.42089
  17   28719.1    348.2   0.000059491   0.00068   0.02394   0.00198  -0.01025
  18   29364.3    340.5   0.030446179   0.34134  -0.49767  -0.04498  -0.30273
  19   29652.3    337.2   1.263755875  14.03073   1.85388   0.15054  -3.25134
  20   29932.6    334.1   0.015709952   0.17279   0.34387   0.06712   0.22369
  21   30200.8    331.1   0.013760867   0.15000  -0.34106   0.00213  -0.18352
  22   30261.6    330.5   0.080037842   0.87072   0.45619   0.04176  -0.81294
  23   30969.2    322.9   0.001153940   0.01227   0.09767  -0.01266   0.05067
  24   30992.8    322.7   0.008169289   0.08678  -0.25554  -0.00070  -0.14655
  25   31147.4    321.1   0.058592058   0.61929  -0.39075  -0.02401   0.68266
  26   31408.4    318.4   0.002441903   0.02560  -0.12945  -0.05449  -0.07661
  27   31447.5    318.0   0.001280738   0.01341   0.05464   0.00859  -0.10172
  28   31844.7    314.0   0.333622123   3.44900   1.61644  -0.07492   0.91133
  29   32049.3    312.0   0.001572731   0.01616   0.04865   0.01083  -0.11693
  30   32057.1    311.9   0.000074486   0.00076  -0.01081  -0.01570  -0.02004
  31   32356.4    309.1   0.202995020   2.06538  -0.70582  -0.05491   1.25067
  32   32700.1    305.8   0.768869920   7.74068  -2.41961  -0.01531  -1.37329
  33   32771.0    305.1   0.001740685   0.01749   0.08919  -0.01308   0.09675
  34   33199.8    301.2   0.162107819   1.60747  -1.09551  -0.12723  -0.62542
  35   33336.3    300.0   0.000308712   0.00305   0.05055   0.01169   0.01889
  36   33416.3    299.3   0.000253815   0.00250  -0.03465  -0.03439  -0.01084
  37   34019.4    293.9   0.044061258   0.42639   0.37570   0.02948  -0.53326
  38   34057.7    293.6   0.113264128   1.09485  -0.88847   0.01478  -0.55249
  39   34333.8    291.3   0.044575383   0.42741   0.57418  -0.06215   0.30639
  40   34433.8    290.4   0.035936803   0.34358   0.27589   0.02630  -0.51651
  41   35235.5    283.8   0.006280434   0.05868  -0.20988   0.02819  -0.11763
  42   35389.5    282.6   0.000053994   0.00050   0.02238   0.00041  -0.00110
  43   35407.0    282.4   0.000017442   0.00016   0.01001   0.00057  -0.00786
  44   35636.8    280.6   0.164759345   1.52204   1.05288   0.09332   0.63622
  45   35706.4    280.1   0.091454764   0.84321   0.49401   0.04000  -0.77302
  46   36140.5    276.7   0.923847973   8.41553  -2.51904  -0.10241  -1.43508
  47   36686.1    272.6   0.184321497   1.65406  -0.64933  -0.05566   1.10875
  48   36886.4    271.1   0.123815407   1.10505   0.90200   0.10203   0.53013
  49   36910.0    270.9   0.023233898   0.20723   0.19370   0.01858  -0.41154
  50   37475.1    266.8   0.008331888   0.07319   0.23277   0.03541   0.13326
  51   37508.5    266.6   0.013470463   0.11823  -0.16651  -0.01490   0.30047
  52   37635.4    265.7   0.064379472   0.56315   0.64931   0.06597   0.37039
  53   37775.2    264.7   0.026415562   0.23021   0.23493   0.01969  -0.41789
  54   38019.5    263.0   0.032041928   0.27745   0.45205   0.06794   0.26171
  55   38139.4    262.2   0.000148904   0.00129   0.01096   0.00112   0.03412
  56   39018.1    256.3   0.141858681   1.19692   0.96209  -0.07390   0.51561
  57   39144.7    255.5   0.174483633   1.46743  -0.59700  -0.02831   1.05367
  58   39331.6    254.2   0.017275858   0.14460  -0.16710  -0.01811   0.34111
  59   39549.6    252.8   0.451103006   3.75499   1.68442  -0.03365   0.95739
  60   39712.8    251.8   0.011573519   0.09594  -0.22425  -0.00712   0.21355
  61   39736.2    251.7   0.269240359   2.23064   1.28840  -0.00047   0.75543
  62   40046.0    249.7   0.229252129   1.88465  -0.67227  -0.03954   1.19630
  63   40089.6    249.4   0.005714679   0.04693  -0.19331   0.02092  -0.09551

-----------------------------------------------------------------------------
         ABSORPTION SPECTRUM VIA TRANSITION VELOCITY DIPOLE MOMENTS
-----------------------------------------------------------------------------
State   Energy  Wavelength   fosc         P2         PX        PY        PZ  
        (cm-1)    (nm)                  (au**2)     (au)      (au)      (au) 
-----------------------------------------------------------------------------
   0    8266.2   1209.7   2.378847134   0.13439  -0.18093  -0.01505   0.31848
   1   12232.2    817.5   0.052590554   0.00440  -0.05575  -0.01473  -0.03274
   2   13458.9    743.0   0.000302129   0.00003  -0.00306  -0.00066   0.00424
   3   15424.7    648.3   0.422026709   0.04449   0.10075   0.00719  -0.18517
   4   15491.3    645.5   0.119531099   0.01266  -0.09938  -0.02004  -0.04876
   5   16235.2    615.9   0.002757823   0.00031   0.01201   0.01031   0.00744
   6   20799.0    480.8   0.007446448   0.00106   0.01587   0.00055  -0.02840
   7   22593.6    442.6   0.021995703   0.00340  -0.05063   0.00156  -0.02883
   8   23167.4    431.6   0.104163322   0.01649   0.06339   0.00536  -0.11156
   9   24184.1    413.5   0.005045186   0.00083   0.01429   0.00072  -0.02509
  10   24244.5    412.5   0.000152257   0.00003  -0.00319  -0.00357  -0.00152
  11   25449.0    392.9   0.050839850   0.00884  -0.04643  -0.00406   0.08167
  12   25946.8    385.4   0.046792856   0.00830  -0.07904  -0.00199  -0.04524
  13   26040.4    384.0   0.014898839   0.00265  -0.02547  -0.00227   0.04469
  14   26802.6    373.1   0.019632839   0.00360  -0.05204  -0.00572  -0.02924
  15   28084.4    356.1   0.001414303   0.00027   0.00837   0.00030  -0.01419
  16   28585.3    349.8   0.054830018   0.01071   0.08954   0.00620   0.05154
  17   28719.1    348.2   0.000303650   0.00006   0.00535   0.00041  -0.00555
  18   29364.3    340.5   0.025365360   0.00509  -0.06072  -0.00539  -0.03708
  19   29652.3    337.2   1.175571280   0.23824   0.24151   0.01963  -0.42370
  20   29932.6    334.1   0.011394098   0.00233   0.03952   0.00925   0.02615
  21   30200.8    331.1   0.011412853   0.00236  -0.04276   0.00029  -0.02297
  22   30261.6    330.5   0.070775528   0.01464   0.05920   0.00548  -0.10537
  23   30969.2    322.9   0.001236419   0.00026   0.01421  -0.00125   0.00763
  24   30992.8    322.7   0.009710199   0.00206  -0.03935  -0.00035  -0.02254
  25   31147.4    321.1   0.046965463   0.01000  -0.04969  -0.00303   0.08671
  26   31408.4    318.4   0.002360194   0.00051  -0.01824  -0.00765  -0.01075
  27   31447.5    318.0   0.000938460   0.00020   0.00663   0.00106  -0.01251
  28   31844.7    314.0   0.270593417   0.05889   0.21119  -0.01048   0.11909
  29   32049.3    312.0   0.001795796   0.00039   0.00796   0.00153  -0.01810
  30   32057.1    311.9   0.000098335   0.00002  -0.00373  -0.00228   0.00156
  31   32356.4    309.1   0.184719269   0.04085  -0.09924  -0.00783   0.17590
  32   32700.1    305.8   0.717732415   0.16041  -0.34837  -0.00190  -0.19758
  33   32771.0    305.1   0.001871633   0.00042   0.01101  -0.00196   0.01715
  34   33199.8    301.2   0.133238292   0.03023  -0.15014  -0.01828  -0.08577
  35   33336.3    300.0   0.000276630   0.00006   0.00725   0.00148   0.00287
  36   33416.3    299.3   0.000195307   0.00004  -0.00520  -0.00388  -0.00159
  37   34019.4    293.9   0.042783075   0.00995   0.05692   0.00452  -0.08177
  38   34057.7    293.6   0.097895386   0.02279  -0.12801   0.00232  -0.07997
  39   34333.8    291.3   0.039593275   0.00929   0.08465  -0.00948   0.04511
  40   34433.8    290.4   0.032311637   0.00760   0.04105   0.00382  -0.07684
  41   35235.5    283.8   0.005979563   0.00144  -0.03287   0.00464  -0.01838
  42   35389.5    282.6   0.000048063   0.00001   0.00338   0.00047  -0.00009
  43   35407.0    282.4   0.000023428   0.00001   0.00150  -0.00140  -0.00120
  44   35636.8    280.6   0.154658351   0.03767   0.16561   0.01466   0.10013
  45   35706.4    280.1   0.086612611   0.02114   0.07815   0.00635  -0.12243
  46   36140.5    276.7   0.815936662   0.20154  -0.38985  -0.01565  -0.22207
  47   36686.1    272.6   0.144101424   0.03613  -0.09600  -0.00824   0.16385
  48   36886.4    271.1   0.104310670   0.02630   0.13923   0.01543   0.08169
  49   36910.0    270.9   0.018781996   0.00474   0.02922   0.00288  -0.06226
  50   37475.1    266.8   0.008540914   0.00219   0.04030   0.00566   0.02305
  51   37508.5    266.6   0.010301697   0.00264  -0.02482  -0.00224   0.04494
  52   37635.4    265.7   0.045945628   0.01182   0.09402   0.01034   0.05359
  53   37775.2    264.7   0.024728128   0.00638   0.03921   0.00322  -0.06954
  54   38019.5    263.0   0.031251153   0.00812   0.07742   0.01111   0.04476
  55   38139.4    262.2   0.000126363   0.00003   0.00180   0.00017   0.00545
  56   39018.1    256.3   0.122987374   0.03280   0.15928  -0.01178   0.08537
  57   39144.7    255.5   0.153279225   0.04101  -0.09980  -0.00482   0.17614
  58   39331.6    254.2   0.013172542   0.00354  -0.02594  -0.00285   0.05348
  59   39549.6    252.8   0.384646712   0.10397   0.28023  -0.00551   0.15941
  60   39712.8    251.8   0.009011697   0.00245  -0.03605  -0.00109   0.03384
  61   39736.2    251.7   0.219618292   0.05964   0.21070  -0.00043   0.12349
  62   40046.0    249.7   0.183856099   0.05032  -0.10981  -0.00638   0.19550
  63   40089.6    249.4   0.004069945   0.00112  -0.02985   0.00343  -0.01457

-------------------------------------------------------------------
                             CD SPECTRUM
-------------------------------------------------------------------
State   Energy Wavelength       R         MX        MY        MZ   
        (cm-1)   (nm)       (1e40*cgs)   (au)      (au)      (au)  
-------------------------------------------------------------------
   0    8266.2   1209.7      2.43209   5.37994  -2.13263   2.95291
   1   12232.2    817.5     -2.65812  -0.42194  -0.47651   0.90906
   2   13458.9    743.0     -0.28838   0.07365  -0.48325   0.03005
   3   15424.7    648.3     10.42462  -3.21718   2.93399  -1.62212
   4   15491.3    645.5     -8.66195  -0.57946  -0.92202   1.51766
   5   16235.2    615.9     -0.05531   0.02747   0.10181  -0.17652
   6   20799.0    480.8      1.36661  -0.53169   0.71291  -0.26428
   7   22593.6    442.6     -0.28793  -0.49456  -0.43541   0.82663
   8   23167.4    431.6     -0.10230  -1.89654   0.99798  -1.03062
   9   24184.1    413.5      0.38620  -0.44193   0.39736  -0.23379
  10   24244.5    412.5     -0.10227   0.00968  -0.03088   0.03416
  11   25449.0    392.9     -0.22325   1.34909  -0.05961   0.76546
  12   25946.8    385.4      0.60489  -0.69041  -0.68048   1.23930
  13   26040.4    384.0      0.00742   0.82979  -2.16020   0.36258
  14   26802.6    373.1     -1.44532  -0.41948  -0.44942   0.81462
  15   28084.4    356.1     -0.36678  -0.21274  -0.54501  -0.15025
  16   28585.3    349.8     -1.49231   0.79319   0.77827  -1.45876
  17   28719.1    348.2      0.30382  -0.10187   0.15404  -0.08239
  18   29364.3    340.5     -0.65717  -0.52523  -0.51447   0.93067
  19   29652.3    337.2      0.16309  -7.15299   2.85662  -3.94608
  20   29932.6    334.1     -0.13682   0.34472   0.33844  -0.62888
  21   30200.8    331.1      0.73178  -0.36473  -0.38337   0.69028
  22   30261.6    330.5     -0.58766  -1.78797   1.11417  -0.94919
  23   30969.2    322.9      0.15574   0.16700   0.15273  -0.29680
  24   30992.8    322.7      1.16778  -0.28666  -0.33101   0.53525
  25   31147.4    321.1     -2.70073   1.36732   1.70100   0.85925
  26   31408.4    318.4     -0.25785  -0.03207  -0.21235   0.19095
  27   31447.5    318.0     -2.25449  -0.31298   2.32943  -0.06555
  28   31844.7    314.0     22.56185   1.85765   1.77210  -3.25427
  29   32049.3    312.0     -4.70193  -0.94488   1.35621  -0.43814
  30   32057.1    311.9    -17.12336   0.01550  -4.44205  -0.15308
  31   32356.4    309.1     -1.86627   2.81315   1.51935   1.66063
  32   32700.1    305.8      9.62794  -3.10159  -3.32124   5.53147
  33   32771.0    305.1    -24.72344   0.56735  -6.74590  -0.35079
  34   33199.8    301.2      9.16025  -1.06317  -1.30062   2.18902
  35   33336.3    300.0     -1.36568   0.09766   0.10409  -0.01907
  36   33416.3    299.3      1.12867   0.12233   0.03971  -0.07530
  37   34019.4    293.9      1.20014  -1.45829   2.79474  -0.86338
  38   34057.7    293.6     -2.71875  -1.32883  -0.95943   2.09036
  39   34333.8    291.3     -0.05047   0.84105   0.77255  -1.41874
  40   34433.8    290.4     -0.17559  -1.35458   1.60795  -0.64310
  41   35235.5    283.8     -0.43275  -0.37675  -0.29357   0.58626
  42   35389.5    282.6      3.23801  -0.63838   0.04347  -0.48410
  43   35407.0    282.4      0.82411  -0.30480   0.01525   0.05792
  44   35636.8    280.6     -1.83523   1.44761   1.38649  -2.58677
  45   35706.4    280.1      0.00700  -2.12296   1.96819  -1.25483
  46   36140.5    276.7      2.92239  -3.38791  -3.34972   6.19459
  47   36686.1    272.6      0.16586   2.75313  -0.81500   1.57080
  48   36886.4    271.1     -2.38037   1.12382   1.36315  -2.15544
  49   36910.0    270.9     -1.93612  -1.26606   5.08051  -0.38650
  50   37475.1    266.8      0.14606   0.29346   0.34192  -0.60809
  51   37508.5    266.6     -0.36994   0.80253  -1.27449   0.38673
  52   37635.4    265.7     -0.36507   0.77273   0.83728  -1.49959
  53   37775.2    264.7      0.32847  -1.27119   2.31364  -0.60227
  54   38019.5    263.0      1.56446   0.58498   0.63219  -1.19992
  55   38139.4    262.2     -1.37437   0.26849   0.10135   0.08134
  56   39018.1    256.3     10.08181   1.36168   1.22776  -2.44777
  57   39144.7    255.5    -42.25675   2.53518   8.93853   1.84670
  58   39331.6    254.2     -3.84008   1.08125  -3.98587   0.36582
  59   39549.6    252.8     37.38528   2.33501   2.52791  -4.18499
  60   39712.8    251.8     -1.16072   0.51389   1.32302   0.60677
  61   39736.2    251.7     18.90670   1.78396   1.94394  -3.14752
  62   40046.0    249.7     -9.69963   3.18202   2.48439   1.90469
  63   40089.6    249.4      0.20554  -0.26409  -0.24616   0.48971

sTD-DFT done

Total run time:        3.427 sec

           *** ORCA-CIS/TD-DFT FINISHED WITHOUT ERROR ***

-------------------------   --------------------
FINAL SINGLE POINT ENERGY     -6090.158208922518
-------------------------   --------------------


                            ***************************************
                            *     ORCA property calculations      *
                            ***************************************

                                    ---------------------
                                    Active property flags
                                    ---------------------
   (+) Dipole Moment


------------------------------------------------------------------------------
                       ORCA ELECTRIC PROPERTIES CALCULATION
------------------------------------------------------------------------------

Dipole Moment Calculation                       ... on
Quadrupole Moment Calculation                   ... off
Polarizability Calculation                      ... off
GBWName                                         ... xtbopt.gbw
Electron density file                           ... xtbopt.scfp
The origin for moment calculation is the CENTER OF MASS  = ( 0.444052, -15.600130 -8.380298)

-------------
DIPOLE MOMENT
-------------
                                X             Y             Z
Electronic contribution:     30.02100       0.18183      17.05291
Nuclear contribution   :    -28.20425      -0.13483     -16.01692
                        -----------------------------------------
Total Dipole Moment    :      1.81674       0.04701       1.03599
                        -----------------------------------------
Magnitude (a.u.)       :      2.09190
Magnitude (Debye)      :      5.31717



--------------------
Rotational spectrum 
--------------------
 
Rotational constants in cm-1:     0.001703     0.000209     0.000186 
Rotational constants in MHz :    51.066843     6.255225     5.580223 

 Dipole components along the rotational axes: 
x,y,z [a.u.] :     0.001850     2.091322    -0.048919 
x,y,z [Debye]:     0.004703     5.315719    -0.124342 

 

Timings for individual modules:

Sum of individual times         ...      522.873 sec (=   8.715 min)
GTO integral calculation        ...        2.784 sec (=   0.046 min)   0.5 %
SCF iterations                  ...      515.937 sec (=   8.599 min)  98.7 %
CIS module                      ...        4.152 sec (=   0.069 min)   0.8 %
                             ****ORCA TERMINATED NORMALLY****
TOTAL RUN TIME: 0 days 0 hours 8 minutes 43 seconds 887 msec
