
                                 *****************
                                 * O   R   C   A *
                                 *****************

           --- An Ab Initio, DFT and Semiempirical electronic structure package ---

                  #######################################################
                  #                        -***-                        #
                  #          Department of theory and spectroscopy      #
                  #               Directorship: Frank Neese             #
                  #        Max Planck Institute fuer Kohlenforschung    #
                  #                Kaiser Wilhelm Platz 1               #
                  #                 D-45470 Muelheim/Ruhr               #
                  #                      Germany                        #
                  #                                                     #
                  #                  All rights reserved                #
                  #                        -***-                        #
                  #######################################################


                         Program Version 4.2.0 -  RELEASE  -


 With contributions from (in alphabetic order):
   Daniel Aravena         : Magnetic Suceptibility
   Michael Atanasov       : Ab Initio Ligand Field Theory (pilot matlab implementation)
   Alexander A. Auer      : GIAO ZORA, VPT2
   Ute Becker             : Parallelization
   Giovanni Bistoni       : ED, misc. LED, open-shell LED, HFLED
   Martin Brehm           : Molecular dynamics
   Dmytro Bykov           : SCF Hessian
   Vijay G. Chilkuri      : MRCI spin determinant printing, contributions to CSF-ICE
   Dipayan Datta          : RHF DLPNO-CCSD density
   Achintya Kumar Dutta   : EOM-CC, STEOM-CC
   Dmitry Ganyushin       : Spin-Orbit,Spin-Spin,Magnetic field MRCI
   Miquel Garcia          : C-PCM Hessian, Gaussian charge scheme
   Yang Guo               : DLPNO-NEVPT2, CIM, IAO-localization
   Andreas Hansen         : Spin unrestricted coupled pair/coupled cluster methods
   Benjamin Helmich-Paris : CASSCF linear response (MC-RPA)
   Lee Huntington         : MR-EOM, pCC
   Robert Izsak           : Overlap fitted RIJCOSX, COSX-SCS-MP3, EOM
   Christian Kollmar      : KDIIS, OOCD, Brueckner-CCSD(T), CCSD density
   Simone Kossmann        : Meta GGA functionals, TD-DFT gradient, OOMP2, MP2 Hessian
   Martin Krupicka        : AUTO-CI
   Lucas Lang             : DCDCAS
   Dagmar Lenk            : GEPOL surface, SMD
   Dimitrios Liakos       : Extrapolation schemes; Compound Job, initial MDCI parallelization
   Dimitrios Manganas     : Further ROCIS development; embedding schemes
   Dimitrios Pantazis     : SARC Basis sets
   Taras Petrenko         : DFT Hessian,TD-DFT gradient, ASA, ECA, R-Raman, ABS, FL, XAS/XES, NRVS
   Peter Pinski           : DLPNO-MP2, DLPNO-MP2 Gradient
   Christoph Reimann      : Effective Core Potentials
   Marius Retegan         : Local ZFS, SOC
   Christoph Riplinger    : Optimizer, TS searches, QM/MM, DLPNO-CCSD(T), (RO)-DLPNO pert. Triples
   Tobias Risthaus        : Range-separated hybrids, TD-DFT gradient, RPA, STAB
   Michael Roemelt        : Original ROCIS implementation
   Masaaki Saitow         : Open-shell DLPNO-CCSD energy and density
   Barbara Sandhoefer     : DKH picture change effects
   Avijit Sen             : IP-ROCIS
   Kantharuban Sivalingam : CASSCF convergence, NEVPT2, FIC-MRCI
   Bernardo de Souza      : ESD, SOC TD-DFT
   Georgi Stoychev        : AutoAux, RI-MP2 NMR
   Willem Van den Heuvel  : Paramagnetic NMR
   Boris Wezisla          : Elementary symmetry handling
   Frank Wennmohs         : Technical directorship


 We gratefully acknowledge several colleagues who have allowed us to
 interface, adapt or use parts of their codes:
   Stefan Grimme, W. Hujo, H. Kruse,             : VdW corrections, initial TS optimization,
                  C. Bannwarth                     DFT functionals, gCP, sTDA/sTD-DF
   Ed Valeev, F. Pavosevic, A. Kumar             : LibInt (2-el integral package), F12 methods
   Garnet Chan, S. Sharma, J. Yang, R. Olivares  : DMRG
   Ulf Ekstrom                                   : XCFun DFT Library
   Mihaly Kallay                                 : mrcc  (arbitrary order and MRCC methods)
   Andreas Klamt, Michael Diedenhofen            : otool_cosmo (COSMO solvation model)
   Jiri Pittner, Ondrej Demel                    : Mk-CCSD
   Frank Weinhold                                : gennbo (NPA and NBO analysis)
   Christopher J. Cramer and Donald G. Truhlar   : smd solvation model
   Lars Goerigk                                  : TD-DFT with DH, B97 family of functionals
   V. Asgeirsson, H. Jonsson                     : NEB implementation
   FAccTs GmbH                                   : IRC, NEB, NEB-TS, Multilevel, MM, QM/MM, CI optimization
   S Lehtola, MJT Oliveira, MAL Marques          : LibXC Library


 Your calculation uses the libint2 library for the computation of 2-el integrals
 For citations please refer to: http://libint.valeyev.net

 Your ORCA version has been built with support for libXC version: 4.2.3
 For citations please refer to: https://tddft.org/programs/libxc/

 This ORCA versions uses:
   CBLAS   interface :  Fast vector & matrix operations
   LAPACKE interface :  Fast linear algebra routines
   SCALAPACK package :  Parallel linear algebra routines


XCFun DFT library Copyright 2009-2010 Ulf Ekstrom and contributors.
See http://admol.org/xcfun for more information. This is free soft-
ware; see the source code for copying conditions. There is ABSOLUTELY
NO WARRANTY; not even for MERCHANTABILITY or FITNESS FOR A PARTICULAR
PURPOSE. For details see the documentation. Scientific users of this 
library should cite U. Ekstrom, L. Visscher, R. Bast, A. J. Thorvald-
sen and K. Ruud; J.Chem.Theor.Comp. 2010, DOI: 10.1021/ct100117s
XCFun Version 0.99 
----- Orbital basis set information -----
Your calculation utilizes the basis: def2-SVP
   F. Weigend and R. Ahlrichs, Phys. Chem. Chem. Phys. 7, 3297 (2005).

----- AuxJ basis set information -----
Your calculation utilizes the auxiliary basis: def2/J
   F. Weigend, Phys. Chem. Chem. Phys. 8, 1057 (2006).

================================================================================
                                        WARNINGS
                       Please study these warnings very carefully!
================================================================================

INFO   : Checking CIS options ...

WARNING: CIS/ROCIS methods need fully converged wavefunctions
  ===> : Setting SCFConvForced true
         You can overwrite this default with %scf ConvForced false 


INFO   : the flag for use of LIBINT has been found!

================================================================================
                                       INPUT FILE
================================================================================
NAME = xtbopt.inp
|  1> # ORCA input file
|  2> # SCF done       -189.180684037272          0.000557841733
|  3> ! CAM-B3LYP def2-SVP def2/J RIJCOSX Grid4 TightSCF
|  4> %maxcore 5000
|  5> %tddft
|  6>     Mode sTDDFT
|  7>     Ethresh 5.0
|  8>     maxcore 5000
|  9> end
| 10> 
| 11> %pal
| 12>   nprocs 6
| 13>   end
| 14> * xyz 0 1
| 15>    C       -0.79913         1.23957         5.02095
| 16>    C       -0.59939        -0.11222         5.13065
| 17>    C        0.61428        -0.69994         5.54615
| 18>    N        1.57244        -1.23824         5.87771
| 19>    C       -1.54806        -1.11202         4.82881
| 20>    N       -2.25709        -1.98515         4.59665
| 21>    C        0.20574         2.26364         5.29079
| 22>    C       -0.34499         3.53345         4.98674
| 23>    C        0.35710         4.70464         5.13614
| 24>    C        1.66919         4.62026         5.61341
| 25>    C        2.21182         3.34873         5.91728
| 26>    C        1.50091         2.16445         5.76303
| 27>    S        3.84458         3.47273         6.49644
| 28>    C        3.77812         5.20672         6.32494
| 29>    C        2.59458         5.67121         5.85796
| 30>   Br        5.27562         6.23941         6.77987
| 31>    C       -1.72875         3.35672         4.51882
| 32>    O       -2.48725         4.24090         4.15701
| 33>    C       -2.00673         1.91907         4.58815
| 34>    C       -3.22283         1.33102         4.34873
| 35>    C       -4.43906         1.89585         3.93788
| 36>    C       -5.60290         1.12579         3.81448
| 37>    C       -6.68908         1.86966         3.39863
| 38>    C       -6.35518         3.22918         3.17966
| 39>    S       -4.72363         3.58507         3.51267
| 40>    C       -7.52876         3.90316         2.76690
| 41>    C       -8.59751         2.98854         2.73077
| 42>    C       -8.10314         1.67742         3.11920
| 43>    C       -8.81926         0.51999         3.20244
| 44>    C       -8.23584        -0.70187         3.60020
| 45>    N       -7.77089        -1.69775         3.92558
| 46>    C      -10.19571         0.47091         2.89606
| 47>    N      -11.31388         0.43517         2.64490
| 48>    C       -9.80357         3.57416         2.35251
| 49>    C       -9.66058         4.92589         2.09025
| 50>    S       -8.00918         5.48104         2.31561
| 51>    C      -10.67436         5.83668         1.70108
| 52>    C      -10.52538         7.15999         1.32737
| 53>    C      -11.74870         7.75826         1.02875
| 54>    C      -12.83897         6.88271         1.18750
| 55>    S      -12.35681         5.32190         1.68334
| 56>    C      -14.03041         7.58632         0.88824
| 57>    C      -13.69565         8.90389         0.52928
| 58>    C      -12.24996         9.05332         0.60040
| 59>    C      -11.52125        10.17275         0.32247
| 60>    C      -10.11480        10.19660         0.42950
| 61>    N       -8.97150        10.21596         0.51594
| 62>    C      -12.12806        11.37702        -0.09149
| 63>    N      -12.62170        12.35598        -0.42738
| 64>    C      -14.80965         9.68555         0.23216
| 65>    C      -15.99372         8.98134         0.37165
| 66>    S      -15.71557         7.31438         0.86744
| 67>    C      -17.32022         9.46460         0.17720
| 68>    C      -18.43593         8.70871         0.45283
| 69>    C      -19.74847         9.14588         0.29924
| 70>    C      -20.04876        10.48977        -0.19954
| 71>    C      -19.10739        11.39931        -0.53736
| 72>    S      -17.42219        11.11182        -0.42964
| 73>    C      -21.46722        10.57451        -0.21930
| 74>    C      -22.02672         9.37771         0.23864
| 75>    C      -23.43906         9.43232         0.23454
| 76>    C      -23.89610        10.63190        -0.21159
| 77>    S      -22.64710        11.74609        -0.64563
| 78>    C      -20.95729         8.46769         0.57152
| 79>    C      -21.03505         7.15795         1.08665
| 80>    C      -22.16548         6.46714         1.39114
| 81>    C      -22.11762         5.14827         1.92716
| 82>    N      -20.95910         4.54698         2.14905
| 83>    N      -20.85928         3.33610         2.64626
| 84>    C      -21.88612         2.60612         2.97334
| 85>    C      -23.19659         3.11212         2.79447
| 86>    C      -23.31904         4.43817         2.24715
| 87>    N      -24.60192         4.71542         2.16140
| 88>    O      -25.23988         3.63870         2.62270
| 89>    N      -24.41828         2.66263         3.00893
| 90>    H       -0.09157         5.65537         4.89451
| 91>    H        1.95995         1.22245         6.01149
| 92>    H        2.38135         6.71151         5.69295
| 93>    H       -3.28999         0.26201         4.51142
| 94>    H       -5.61710         0.07226         4.03170
| 95>    H      -10.74395         3.06012         2.26484
| 96>    H       -9.56771         7.64661         1.27886
| 97>    H      -14.77471        10.71904        -0.06202
| 98>    H      -18.26596         7.70641         0.82381
| 99>    H      -19.35401        12.38472        -0.89987
|100>    H      -24.09949         8.64205         0.53871
|101>    H      -24.91663        10.94432        -0.31711
|102>    H      -20.10171         6.64252         1.27006
|103>    H      -23.15070         6.88022         1.24967
|104>    H      -21.69380         1.62476         3.37576
|105> *
|106> 
|107>                          ****END OF INPUT****
================================================================================

                       ****************************
                       * Single Point Calculation *
                       ****************************

---------------------------------
CARTESIAN COORDINATES (ANGSTROEM)
---------------------------------
  C     -0.799130    1.239570    5.020950
  C     -0.599390   -0.112220    5.130650
  C      0.614280   -0.699940    5.546150
  N      1.572440   -1.238240    5.877710
  C     -1.548060   -1.112020    4.828810
  N     -2.257090   -1.985150    4.596650
  C      0.205740    2.263640    5.290790
  C     -0.344990    3.533450    4.986740
  C      0.357100    4.704640    5.136140
  C      1.669190    4.620260    5.613410
  C      2.211820    3.348730    5.917280
  C      1.500910    2.164450    5.763030
  S      3.844580    3.472730    6.496440
  C      3.778120    5.206720    6.324940
  C      2.594580    5.671210    5.857960
  Br     5.275620    6.239410    6.779870
  C     -1.728750    3.356720    4.518820
  O     -2.487250    4.240900    4.157010
  C     -2.006730    1.919070    4.588150
  C     -3.222830    1.331020    4.348730
  C     -4.439060    1.895850    3.937880
  C     -5.602900    1.125790    3.814480
  C     -6.689080    1.869660    3.398630
  C     -6.355180    3.229180    3.179660
  S     -4.723630    3.585070    3.512670
  C     -7.528760    3.903160    2.766900
  C     -8.597510    2.988540    2.730770
  C     -8.103140    1.677420    3.119200
  C     -8.819260    0.519990    3.202440
  C     -8.235840   -0.701870    3.600200
  N     -7.770890   -1.697750    3.925580
  C    -10.195710    0.470910    2.896060
  N    -11.313880    0.435170    2.644900
  C     -9.803570    3.574160    2.352510
  C     -9.660580    4.925890    2.090250
  S     -8.009180    5.481040    2.315610
  C    -10.674360    5.836680    1.701080
  C    -10.525380    7.159990    1.327370
  C    -11.748700    7.758260    1.028750
  C    -12.838970    6.882710    1.187500
  S    -12.356810    5.321900    1.683340
  C    -14.030410    7.586320    0.888240
  C    -13.695650    8.903890    0.529280
  C    -12.249960    9.053320    0.600400
  C    -11.521250   10.172750    0.322470
  C    -10.114800   10.196600    0.429500
  N     -8.971500   10.215960    0.515940
  C    -12.128060   11.377020   -0.091490
  N    -12.621700   12.355980   -0.427380
  C    -14.809650    9.685550    0.232160
  C    -15.993720    8.981340    0.371650
  S    -15.715570    7.314380    0.867440
  C    -17.320220    9.464600    0.177200
  C    -18.435930    8.708710    0.452830
  C    -19.748470    9.145880    0.299240
  C    -20.048760   10.489770   -0.199540
  C    -19.107390   11.399310   -0.537360
  S    -17.422190   11.111820   -0.429640
  C    -21.467220   10.574510   -0.219300
  C    -22.026720    9.377710    0.238640
  C    -23.439060    9.432320    0.234540
  C    -23.896100   10.631900   -0.211590
  S    -22.647100   11.746090   -0.645630
  C    -20.957290    8.467690    0.571520
  C    -21.035050    7.157950    1.086650
  C    -22.165480    6.467140    1.391140
  C    -22.117620    5.148270    1.927160
  N    -20.959100    4.546980    2.149050
  N    -20.859280    3.336100    2.646260
  C    -21.886120    2.606120    2.973340
  C    -23.196590    3.112120    2.794470
  C    -23.319040    4.438170    2.247150
  N    -24.601920    4.715420    2.161400
  O    -25.239880    3.638700    2.622700
  N    -24.418280    2.662630    3.008930
  H     -0.091570    5.655370    4.894510
  H      1.959950    1.222450    6.011490
  H      2.381350    6.711510    5.692950
  H     -3.289990    0.262010    4.511420
  H     -5.617100    0.072260    4.031700
  H    -10.743950    3.060120    2.264840
  H     -9.567710    7.646610    1.278860
  H    -14.774710   10.719040   -0.062020
  H    -18.265960    7.706410    0.823810
  H    -19.354010   12.384720   -0.899870
  H    -24.099490    8.642050    0.538710
  H    -24.916630   10.944320   -0.317110
  H    -20.101710    6.642520    1.270060
  H    -23.150700    6.880220    1.249670
  H    -21.693800    1.624760    3.375760

----------------------------
CARTESIAN COORDINATES (A.U.)
----------------------------
  NO LB      ZA    FRAG     MASS         X           Y           Z
   0 C     6.0000    0    12.011   -1.510137    2.342448    9.488220
   1 C     6.0000    0    12.011   -1.132683   -0.212065    9.695523
   2 C     6.0000    0    12.011    1.160821   -1.322695   10.480705
   3 N     7.0000    0    14.007    2.971481   -2.339934   11.107262
   4 C     6.0000    0    12.011   -2.925409   -2.101413    9.125128
   5 N     7.0000    0    14.007   -4.265282   -3.751390    8.686410
   6 C     6.0000    0    12.011    0.388792    4.277660    9.998144
   7 C     6.0000    0    12.011   -0.651937    6.677253    9.423573
   8 C     6.0000    0    12.011    0.674821    8.890481    9.705898
   9 C     6.0000    0    12.011    3.154312    8.731026   10.607808
  10 C     6.0000    0    12.011    4.179734    6.328183   11.182039
  11 C     6.0000    0    12.011    2.836309    4.090218   10.890548
  12 S    16.0000    0    32.060    7.265203    6.562509   12.276492
  13 C     6.0000    0    12.011    7.139612    9.839275   11.952404
  14 C     6.0000    0    12.011    4.903046   10.717034   11.069940
  15 Br   35.0000    0    79.900    9.969477   11.790776   12.812098
  16 C     6.0000    0    12.011   -3.266864    6.343282    8.539332
  17 O     8.0000    0    15.999   -4.700221    8.014140    7.855610
  18 C     6.0000    0    12.011   -3.792170    3.626517    8.670347
  19 C     6.0000    0    12.011   -6.090266    2.515263    8.217909
  20 C     6.0000    0    12.011   -8.388608    3.582637    7.441515
  21 C     6.0000    0    12.011  -10.587947    2.127435    7.208323
  22 C     6.0000    0    12.011  -12.640529    3.533145    6.422480
  23 C     6.0000    0    12.011  -12.009550    6.102266    6.008687
  24 S    16.0000    0    32.060   -8.926367    6.774800    6.637984
  25 C     6.0000    0    12.011  -14.227295    7.375903    5.228683
  26 C     6.0000    0    12.011  -16.246939    5.647522    5.160407
  27 C     6.0000    0    12.011  -15.312715    3.169864    5.894434
  28 C     6.0000    0    12.011  -16.665986    0.982639    6.051735
  29 C     6.0000    0    12.011  -15.563482   -1.326342    6.803392
  30 N     7.0000    0    14.007  -14.684854   -3.208283    7.418271
  31 C     6.0000    0    12.011  -19.267100    0.889891    5.472760
  32 N     7.0000    0    14.007  -21.380135    0.822352    4.998137
  33 C     6.0000    0    12.011  -18.526062    6.754184    4.445600
  34 C     6.0000    0    12.011  -18.255850    9.308583    3.950000
  35 S    16.0000    0    32.060  -15.135157   10.357665    4.375869
  36 C     6.0000    0    12.011  -20.171617   11.029727    3.214575
  37 C     6.0000    0    12.011  -19.890086   13.530420    2.508366
  38 C     6.0000    0    12.011  -22.201825   14.660987    1.944056
  39 C     6.0000    0    12.011  -24.262137   13.006437    2.244050
  40 S    16.0000    0    32.060  -23.350987   10.056934    3.181052
  41 C     6.0000    0    12.011  -26.513632   14.336067    1.678530
  42 C     6.0000    0    12.011  -25.881028   16.825914    1.000194
  43 C     6.0000    0    12.011  -23.149070   17.108295    1.134592
  44 C     6.0000    0    12.011  -21.772007   19.223712    0.609380
  45 C     6.0000    0    12.011  -19.114202   19.268781    0.811637
  46 N     7.0000    0    14.007  -16.953678   19.305367    0.974985
  47 C     6.0000    0    12.011  -22.918712   21.499452   -0.172891
  48 N     7.0000    0    14.007  -23.851556   23.349418   -0.807631
  49 C     6.0000    0    12.011  -27.986183   18.303037    0.438719
  50 C     6.0000    0    12.011  -30.223751   16.972273    0.702317
  51 S    16.0000    0    32.060  -29.698123   13.822175    1.639224
  52 C     6.0000    0    12.011  -32.730472   17.885502    0.334859
  53 C     6.0000    0    12.011  -34.838859   16.457077    0.855725
  54 C     6.0000    0    12.011  -37.319200   17.283208    0.565482
  55 C     6.0000    0    12.011  -37.886666   19.822793   -0.377076
  56 C     6.0000    0    12.011  -36.107734   21.541574   -1.015463
  57 S    16.0000    0    32.060  -32.923168   20.998297   -0.811902
  58 C     6.0000    0    12.011  -40.567167   19.982928   -0.414417
  59 C     6.0000    0    12.011  -41.624468   17.721304    0.450964
  60 C     6.0000    0    12.011  -44.293404   17.824502    0.443216
  61 C     6.0000    0    12.011  -45.157085   20.091379   -0.399847
  62 S    16.0000    0    32.060  -42.796817   22.196893   -1.220064
  63 C     6.0000    0    12.011  -39.603539   16.001615    1.080016
  64 C     6.0000    0    12.011  -39.750484   13.526565    2.053471
  65 C     6.0000    0    12.011  -41.886687   12.221123    2.628874
  66 C     6.0000    0    12.011  -41.796245    9.728820    3.641805
  67 N     7.0000    0    14.007  -39.606959    8.592547    4.061116
  68 N     7.0000    0    14.007  -39.418327    6.304315    5.000707
  69 C     6.0000    0    12.011  -41.358773    4.924853    5.618798
  70 C     6.0000    0    12.011  -43.835202    5.881054    5.280783
  71 C     6.0000    0    12.011  -44.066599    8.386926    4.246498
  72 N     7.0000    0    14.007  -46.490891    8.910852    4.084454
  73 O     8.0000    0    15.999  -47.696461    6.876146    4.956185
  74 N     7.0000    0    14.007  -46.143862    5.031641    5.686054
  75 H     1.0000    0     1.008   -0.173042   10.687100    9.249283
  76 H     1.0000    0     1.008    3.703769    2.310096   11.360070
  77 H     1.0000    0     1.008    4.500099   12.682916   10.758116
  78 H     1.0000    0     1.008   -6.217180    0.495127    8.525348
  79 H     1.0000    0     1.008  -10.614781    0.136552    7.618809
  80 H     1.0000    0     1.008  -20.303123    5.782789    4.279927
  81 H     1.0000    0     1.008  -18.080352   14.449999    2.416695
  82 H     1.0000    0     1.008  -27.920156   20.256050   -0.117201
  83 H     1.0000    0     1.008  -34.517662   14.563004    1.556775
  84 H     1.0000    0     1.008  -36.573778   23.403729   -1.700508
  85 H     1.0000    0     1.008  -45.541436   16.331108    1.018014
  86 H     1.0000    0     1.008  -47.085607   20.681768   -0.599251
  87 H     1.0000    0     1.008  -37.986727   12.552544    2.400066
  88 H     1.0000    0     1.008  -43.748483   13.001732    2.361534
  89 H     1.0000    0     1.008  -40.995341    3.070351    6.379262

--------------------------------
INTERNAL COORDINATES (ANGSTROEM)
--------------------------------
 C      0   0   0     0.000000000000     0.00000000     0.00000000
 C      1   0   0     1.370863363614     0.00000000     0.00000000
 C      2   1   0     1.411045682216   124.02850021     0.00000000
 N      3   2   1     1.147941422373   176.64577890   179.11854444
 C      2   1   3     1.410915374677   125.70916597   181.19292830
 N      5   2   1     1.148467589181   175.62363902   173.64123647
 C      1   2   3     1.459896128976   125.21362871     1.11573591
 C      7   1   2     1.417098222249   108.74760888   176.31783006
 C      8   7   1     1.373658161334   122.82128731   180.01262994
 C      9   8   7     1.398744724887   117.71812904   359.82694067
 C     10   9   8     1.415476186553   119.14666432     0.05490016
 C      7   1   2     1.382141310648   131.13349934   356.14117585
 S     11  10   9     1.736867157615   111.58175721   180.16533673
 C     13  11  10     1.743717437459    90.13574941     0.00000000
 C     14  13  11     1.354469716199   114.09378630     0.00000000
 Br    14  13  11     1.875077649325   119.56241380   179.93686047
 C      8   7   1     1.471385183050   109.03180886     0.34277711
 O     17   8   7     1.219837283616   126.30173534   181.04583382
 C      1   2   3     1.451665887868   127.34659644   179.23293986
 C     19   1   2     1.371868779767   126.07229169     7.71273794
 C     20  19   1     1.402514193975   130.33158982   179.66289152
 C     21  20  19     1.400979482077   121.65707063   183.44282513
 C     22  21  20     1.380601605026   112.57847748   179.98494329
 C     23  22  21     1.416944494784   112.21719795     0.84470076
 S     24  23  22     1.702794395898   113.33456085   358.95031111
 C     24  23  22     1.414888643816   107.85852049   180.33310961
 C     26  24  23     1.407146646160   109.13851976     0.34194961
 C     27  26  24     1.454068504645   108.72313157   359.45280425
 C     28  27  26     1.363598532157   127.09326849   180.46758885
 C     29  28  27     1.411217124896   122.34425523   180.37326297
 N     30  29  28     1.146223198727   179.50818375   159.40342608
 C     29  28  27     1.410989777886   121.90979202     0.30383871
 N     32  29  28     1.146587476863   179.76513031    16.31755537
 C     27  26  24     1.393058554261   113.03485419   179.05656306
 C     34  27  26     1.384341157591   111.86967775     0.45435409
 S     26  24  23     1.710020858031   138.55203061   179.99892676
 C     35  34  27     1.417300815423   127.27354986   180.93556185
 C     37  35  34     1.383113719330   127.73296012   185.98585737
 C     38  37  35     1.394135115296   111.95865030   180.96707710
 C     39  38  37     1.407294581067   112.87092348     0.46924417
 S     40  39  38     1.707179963361   112.50511912   359.25564714
 C     40  39  38     1.415681056347   108.59944430   178.85794562
 C     42  40  39     1.406025335511   108.62272288     0.47931669
 C     39  38  37     1.453246611453   138.43644561   179.86448592
 C     44  39  38     1.364326527595   127.37313427     1.29784974
 C     45  44  39     1.410718202158   122.06744306   359.88868923
 N     46  45  44     1.146726459623   179.97184705   103.97508736
 C     45  44  39     1.410619541407   122.03881841   179.79587866
 N     48  45  44     1.146675727178   179.96416223    59.99820407
 C     43  42  40     1.392935264110   112.94838163   180.80724593
 C     50  43  42     1.384698865855   112.14797511     0.51770170
 S     42  40  39     1.707087645436   138.95490635   182.04404351
 C     51  50  43     1.425115181345   127.57051492   178.70763751
 C     53  51  50     1.375554576562   122.77142982   185.67408163
 C     54  53  51     1.391929864828   124.75978765   178.90693118
 C     55  54  53     1.464580453441   121.27271876     0.66878496
 C     56  55  54     1.351873825806   124.03400156   359.62067154
 S     57  56  55     1.712936991982   123.80963053   359.94831243
 C     56  55  54     1.421126347937   105.31350799   180.06697053
 C     59  56  55     1.398241586279   110.10872145     0.27982046
 C     60  59  56     1.413401336387   111.45830324   179.82457282
 C     61  60  59     1.359010564676   111.78395630   359.95818812
 S     59  56  55     1.716529574374   136.90531983   179.96207818
 C     55  54  53     1.412559332170   129.41222400   181.20353925
 C     64  55  54     1.409547587739   124.31708527     0.59518058
 C     65  64  55     1.359339766615   126.86627971   178.64549027
 C     66  65  64     1.424438870889   121.79499781   180.92934833
 N     67  66  65     1.323991475275   120.86095795     0.03986337
 N     68  67  66     1.312787945900   123.29179139   179.70093988
 C     69  68  67     1.301634554090   123.53671993   359.86234244
 C     70  69  68     1.416108081257   119.86157665     0.12951297
 C     67  66  65     1.431798039704   121.00412925   179.73248266
 N     72  67  66     1.315295297414   134.37153075     0.31735450
 O     73  72  67     1.333835300927   105.89043963   180.10641378
 N     71  70  69     1.319303152350   135.61550281   179.94904663
 H      9   8   7     1.078692430074   120.96478211   179.93730525
 H     12   7   1     1.076946652903   122.75311896   359.90722036
 H     15  14  13     1.074671774543   123.93661802   179.97024884
 H     20  19   1     1.083402456061   116.85271924     0.89905143
 H     22  21  20     1.075784192717   122.10469791     0.22838672
 H     34  27  26     1.075284936610   125.33241784   180.29859074
 H     38  37  35     1.075306502073   122.75804942     1.07555259
 H     50  43  42     1.075111276148   124.87660348   179.87657062
 H     54  53  51     1.082183557120   116.75977827   359.48723410
 H     57  56  55     1.078548929164   122.64717130   180.19020123
 H     61  60  59     1.073877947767   125.82267853   179.90054114
 H     62  61  60     1.072484129346   127.54912804   180.01067081
 H     65  64  55     1.081864533387   117.19729891   359.18314617
 H     66  65  64     1.077639687326   122.41691499     0.55074486
 H     70  69  68     1.077959316672   117.62119616   180.12513557

---------------------------
INTERNAL COORDINATES (A.U.)
---------------------------
 C      0   0   0     0.000000000000     0.00000000     0.00000000
 C      1   0   0     2.590556324257     0.00000000     0.00000000
 C      2   1   0     2.666489901840   124.02850021     0.00000000
 N      3   2   1     2.169294906069   176.64577890   179.11854444
 C      2   1   3     2.666243656278   125.70916597   181.19292830
 N      5   2   1     2.170289217238   175.62363902   173.64123647
 C      1   2   3     2.758803867737   125.21362871     1.11573591
 C      7   1   2     2.677927544916   108.74760888   176.31783006
 C      8   7   1     2.595837726547   122.82128731   180.01262994
 C      9   8   7     2.643244461304   117.71812904   359.82694067
 C     10   9   8     2.674862341673   119.14666432     0.05490016
 C      7   1   2     2.611868555504   131.13349934   356.14117585
 S     11  10   9     3.282203258894   111.58175721   180.16533673
 C     13  11  10     3.295148411741    90.13574941     0.00000000
 C     14  13  11     2.559576820306   114.09378630     0.00000000
 Br    14  13  11     3.543383237062   119.56241380   179.93686047
 C      8   7   1     2.780515033475   109.03180886     0.34277711
 O     17   8   7     2.305158393981   126.30173534   181.04583382
 C      1   2   3     2.743250966026   127.34659644   179.23293986
 C     19   1   2     2.592456285437   126.07229169     7.71273794
 C     20  19   1     2.650367725549   130.33158982   179.66289152
 C     21  20  19     2.647467540368   121.65707063   183.44282513
 C     22  21  20     2.608958933551   112.57847748   179.98494329
 C     23  22  21     2.677637042110   112.21719795     0.84470076
 S     24  23  22     3.217815070622   113.33456085   358.95031111
 C     24  23  22     2.673752046808   107.85852049   180.33310961
 C     26  24  23     2.659121791509   109.13851976     0.34194961
 C     27  26  24     2.747791253739   108.72313157   359.45280425
 C     28  27  26     2.576827782393   127.09326849   180.46758885
 C     29  28  27     2.666813881553   122.34425523   180.37326297
 N     30  29  28     2.166047933941   179.50818375   159.40342608
 C     29  28  27     2.666384257968   121.90979202     0.30383871
 N     32  29  28     2.166736319856   179.76513031    16.31755537
 C     27  26  24     2.632499156070   113.03485419   179.05656306
 C     34  27  26     2.616025663762   111.86967775     0.45435409
 S     26  24  23     3.231471104971   138.55203061   179.99892676
 C     35  34  27     2.678310390534   127.27354986   180.93556185
 C     37  35  34     2.613706141604   127.73296012   185.98585737
 C     38  37  35     2.634533561591   111.95865030   180.96707710
 C     39  38  37     2.659401347968   112.87092348     0.46924417
 S     40  39  38     3.226102592069   112.50511912   359.25564714
 C     40  39  38     2.675249489476   108.59944430   178.85794562
 C     42  40  39     2.657002821471   108.62272288     0.47931669
 C     39  38  37     2.746238100695   138.43644561   179.86448592
 C     44  39  38     2.578203494399   127.37313427     1.29784974
 C     45  44  39     2.665871054216   122.06744306   359.88868923
 N     46  45  44     2.166998959209   179.97184705   103.97508736
 C     45  44  39     2.665684612417   122.03881841   179.79587866
 N     48  45  44     2.166903088782   179.96416223    59.99820407
 C     43  42  40     2.632266171448   112.94838163   180.80724593
 C     50  43  42     2.616701634417   112.14797511     0.51770170
 S     42  40  39     3.225928136474   138.95490635   182.04404351
 C     51  50  43     2.693077402036   127.57051492   178.70763751
 C     53  51  50     2.599421431964   122.77142982   185.67408163
 C     54  53  51     2.630366242151   124.75978765   178.90693118
 C     55  54  53     2.767655958097   121.27271876     0.66878496
 C     56  55  54     2.554671298390   124.03400156   359.62067154
 S     57  56  55     3.236981799509   123.80963053   359.94831243
 C     56  55  54     2.685539599300   105.31350799   180.06697053
 C     59  56  55     2.642293667127   110.10872145     0.27982046
 C     60  59  56     2.670941443089   111.45830324   179.82457282
 C     61  60  59     2.568157780343   111.78395630   359.95818812
 S     59  56  55     3.243770796343   136.90531983   179.96207818
 C     55  54  53     2.669350285716   129.41222400   181.20353925
 C     64  55  54     2.663658913555   124.31708527     0.59518058
 C     65  64  55     2.568779881850   126.86627971   178.64549027
 C     66  65  64     2.691799360493   121.79499781   180.92934833
 N     67  66  65     2.501981291915   120.86095795     0.03986337
 N     68  67  66     2.480809689664   123.29179139   179.70093988
 C     69  68  67     2.459732833678   123.53671993   359.86234244
 C     70  69  68     2.676056449608   119.86157665     0.12951297
 C     67  66  65     2.705706174126   121.00412925   179.73248266
 N     72  67  66     2.485547897347   134.37153075     0.31735450
 O     73  72  67     2.520583426509   105.89043963   180.10641378
 N     71  70  69     2.493121645560   135.61550281   179.94904663
 H      9   8   7     2.038433275575   120.96478211   179.93730525
 H     12   7   1     2.035134234831   122.75311896   359.90722036
 H     15  14  13     2.030835337742   123.93661802   179.97024884
 H     20  19   1     2.047333934774   116.85271924     0.89905143
 H     22  21  20     2.032937503437   122.10469791     0.22838672
 H     34  27  26     2.031994046123   125.33241784   180.29859074
 H     38  37  35     2.032034798942   122.75804942     1.07555259
 H     50  43  42     2.031665875410   124.87660348   179.87657062
 H     54  53  51     2.045030549589   116.75977827   359.48723410
 H     57  56  55     2.038162098153   122.64717130   180.19020123
 H     61  60  59     2.029335222537   125.82267853   179.90054114
 H     62  61  60     2.026701287442   127.54912804   180.01067081
 H     65  64  55     2.044427682103   117.19729891   359.18314617
 H     66  65  64     2.036443880091   122.41691499     0.55074486
 H     70  69  68     2.037047892019   117.62119616   180.12513557

---------------------
BASIS SET INFORMATION
---------------------
There are 6 groups of distinct atoms

 Group   1 Type C   : 7s4p1d contracted to 3s2p1d pattern {511/31/1}
 Group   2 Type N   : 7s4p1d contracted to 3s2p1d pattern {511/31/1}
 Group   3 Type S   : 10s7p1d contracted to 4s3p1d pattern {5311/511/1}
 Group   4 Type Br  : 14s10p6d contracted to 5s4p3d pattern {63311/5311/411}
 Group   5 Type O   : 7s4p1d contracted to 3s2p1d pattern {511/31/1}
 Group   6 Type H   : 4s1p contracted to 2s1p pattern {31/1}

Atom   0C    basis set group =>   1
Atom   1C    basis set group =>   1
Atom   2C    basis set group =>   1
Atom   3N    basis set group =>   2
Atom   4C    basis set group =>   1
Atom   5N    basis set group =>   2
Atom   6C    basis set group =>   1
Atom   7C    basis set group =>   1
Atom   8C    basis set group =>   1
Atom   9C    basis set group =>   1
Atom  10C    basis set group =>   1
Atom  11C    basis set group =>   1
Atom  12S    basis set group =>   3
Atom  13C    basis set group =>   1
Atom  14C    basis set group =>   1
Atom  15Br   basis set group =>   4
Atom  16C    basis set group =>   1
Atom  17O    basis set group =>   5
Atom  18C    basis set group =>   1
Atom  19C    basis set group =>   1
Atom  20C    basis set group =>   1
Atom  21C    basis set group =>   1
Atom  22C    basis set group =>   1
Atom  23C    basis set group =>   1
Atom  24S    basis set group =>   3
Atom  25C    basis set group =>   1
Atom  26C    basis set group =>   1
Atom  27C    basis set group =>   1
Atom  28C    basis set group =>   1
Atom  29C    basis set group =>   1
Atom  30N    basis set group =>   2
Atom  31C    basis set group =>   1
Atom  32N    basis set group =>   2
Atom  33C    basis set group =>   1
Atom  34C    basis set group =>   1
Atom  35S    basis set group =>   3
Atom  36C    basis set group =>   1
Atom  37C    basis set group =>   1
Atom  38C    basis set group =>   1
Atom  39C    basis set group =>   1
Atom  40S    basis set group =>   3
Atom  41C    basis set group =>   1
Atom  42C    basis set group =>   1
Atom  43C    basis set group =>   1
Atom  44C    basis set group =>   1
Atom  45C    basis set group =>   1
Atom  46N    basis set group =>   2
Atom  47C    basis set group =>   1
Atom  48N    basis set group =>   2
Atom  49C    basis set group =>   1
Atom  50C    basis set group =>   1
Atom  51S    basis set group =>   3
Atom  52C    basis set group =>   1
Atom  53C    basis set group =>   1
Atom  54C    basis set group =>   1
Atom  55C    basis set group =>   1
Atom  56C    basis set group =>   1
Atom  57S    basis set group =>   3
Atom  58C    basis set group =>   1
Atom  59C    basis set group =>   1
Atom  60C    basis set group =>   1
Atom  61C    basis set group =>   1
Atom  62S    basis set group =>   3
Atom  63C    basis set group =>   1
Atom  64C    basis set group =>   1
Atom  65C    basis set group =>   1
Atom  66C    basis set group =>   1
Atom  67N    basis set group =>   2
Atom  68N    basis set group =>   2
Atom  69C    basis set group =>   1
Atom  70C    basis set group =>   1
Atom  71C    basis set group =>   1
Atom  72N    basis set group =>   2
Atom  73O    basis set group =>   5
Atom  74N    basis set group =>   2
Atom  75H    basis set group =>   6
Atom  76H    basis set group =>   6
Atom  77H    basis set group =>   6
Atom  78H    basis set group =>   6
Atom  79H    basis set group =>   6
Atom  80H    basis set group =>   6
Atom  81H    basis set group =>   6
Atom  82H    basis set group =>   6
Atom  83H    basis set group =>   6
Atom  84H    basis set group =>   6
Atom  85H    basis set group =>   6
Atom  86H    basis set group =>   6
Atom  87H    basis set group =>   6
Atom  88H    basis set group =>   6
Atom  89H    basis set group =>   6
---------------------------------
AUXILIARY/J BASIS SET INFORMATION
---------------------------------
There are 6 groups of distinct atoms

 Group   1 Type C   : 12s5p4d2f1g contracted to 6s4p3d1f1g pattern {711111/2111/211/2/1}
 Group   2 Type N   : 12s5p4d2f1g contracted to 6s4p3d1f1g pattern {711111/2111/211/2/1}
 Group   3 Type S   : 14s5p5d2f1g contracted to 8s4p3d1f1g pattern {71111111/2111/311/2/1}
 Group   4 Type Br  : 19s5p5d3f1g contracted to 8s4p3d2f1g pattern {121111111/2111/311/21/1}
 Group   5 Type O   : 12s5p4d2f1g contracted to 6s4p3d1f1g pattern {711111/2111/211/2/1}
 Group   6 Type H   : 5s2p1d contracted to 3s1p1d pattern {311/2/1}

Atom   0C    basis set group =>   1
Atom   1C    basis set group =>   1
Atom   2C    basis set group =>   1
Atom   3N    basis set group =>   2
Atom   4C    basis set group =>   1
Atom   5N    basis set group =>   2
Atom   6C    basis set group =>   1
Atom   7C    basis set group =>   1
Atom   8C    basis set group =>   1
Atom   9C    basis set group =>   1
Atom  10C    basis set group =>   1
Atom  11C    basis set group =>   1
Atom  12S    basis set group =>   3
Atom  13C    basis set group =>   1
Atom  14C    basis set group =>   1
Atom  15Br   basis set group =>   4
Atom  16C    basis set group =>   1
Atom  17O    basis set group =>   5
Atom  18C    basis set group =>   1
Atom  19C    basis set group =>   1
Atom  20C    basis set group =>   1
Atom  21C    basis set group =>   1
Atom  22C    basis set group =>   1
Atom  23C    basis set group =>   1
Atom  24S    basis set group =>   3
Atom  25C    basis set group =>   1
Atom  26C    basis set group =>   1
Atom  27C    basis set group =>   1
Atom  28C    basis set group =>   1
Atom  29C    basis set group =>   1
Atom  30N    basis set group =>   2
Atom  31C    basis set group =>   1
Atom  32N    basis set group =>   2
Atom  33C    basis set group =>   1
Atom  34C    basis set group =>   1
Atom  35S    basis set group =>   3
Atom  36C    basis set group =>   1
Atom  37C    basis set group =>   1
Atom  38C    basis set group =>   1
Atom  39C    basis set group =>   1
Atom  40S    basis set group =>   3
Atom  41C    basis set group =>   1
Atom  42C    basis set group =>   1
Atom  43C    basis set group =>   1
Atom  44C    basis set group =>   1
Atom  45C    basis set group =>   1
Atom  46N    basis set group =>   2
Atom  47C    basis set group =>   1
Atom  48N    basis set group =>   2
Atom  49C    basis set group =>   1
Atom  50C    basis set group =>   1
Atom  51S    basis set group =>   3
Atom  52C    basis set group =>   1
Atom  53C    basis set group =>   1
Atom  54C    basis set group =>   1
Atom  55C    basis set group =>   1
Atom  56C    basis set group =>   1
Atom  57S    basis set group =>   3
Atom  58C    basis set group =>   1
Atom  59C    basis set group =>   1
Atom  60C    basis set group =>   1
Atom  61C    basis set group =>   1
Atom  62S    basis set group =>   3
Atom  63C    basis set group =>   1
Atom  64C    basis set group =>   1
Atom  65C    basis set group =>   1
Atom  66C    basis set group =>   1
Atom  67N    basis set group =>   2
Atom  68N    basis set group =>   2
Atom  69C    basis set group =>   1
Atom  70C    basis set group =>   1
Atom  71C    basis set group =>   1
Atom  72N    basis set group =>   2
Atom  73O    basis set group =>   5
Atom  74N    basis set group =>   2
Atom  75H    basis set group =>   6
Atom  76H    basis set group =>   6
Atom  77H    basis set group =>   6
Atom  78H    basis set group =>   6
Atom  79H    basis set group =>   6
Atom  80H    basis set group =>   6
Atom  81H    basis set group =>   6
Atom  82H    basis set group =>   6
Atom  83H    basis set group =>   6
Atom  84H    basis set group =>   6
Atom  85H    basis set group =>   6
Atom  86H    basis set group =>   6
Atom  87H    basis set group =>   6
Atom  88H    basis set group =>   6
Atom  89H    basis set group =>   6


           ************************************************************
           *        Program running with 6 parallel MPI-processes     *
           *              working on a common directory               *
           ************************************************************
------------------------------------------------------------------------------
                           ORCA GTO INTEGRAL CALCULATION
                           -- RI-GTO INTEGRALS CHOSEN --
------------------------------------------------------------------------------

                         BASIS SET STATISTICS AND STARTUP INFO

Gaussian basis set:
 # of primitive gaussian shells          ... 1035
 # of primitive gaussian functions       ... 2039
 # of contracted shells                  ...  515
 # of contracted basis functions         ... 1171
 Highest angular momentum                ...    2
 Maximum contraction depth               ...    6
Auxiliary gaussian basis set:
 # of primitive gaussian shells          ... 1950
 # of primitive gaussian functions       ... 5558
 # of contracted shells                  ... 1217
 # of contracted aux-basis functions     ... 3863
 Highest angular momentum                ...    4
 Maximum contraction depth               ...   12
Ratio of auxiliary to basis functions    ...  3.30
Integral package used                  ... LIBINT
 One Electron integrals                  ... done
 Ordering auxiliary basis shells         ... done
 Integral threshhold             Thresh  ...  2.500e-11
 Primitive cut-off               TCut    ...  2.500e-12
 Pre-screening matrix                    ... done
 Shell pair data                         ... 
 Ordering of the shell pairs             ... done (   0.008 sec) 37204 of 132870 pairs
 Determination of significant pairs      ... done (   0.000 sec)
 Creation of shell pair data             ... done (   0.005 sec)
 Storage of shell pair data              ... done (   0.040 sec)
 Shell pair data done in (   0.053 sec)
 Computing two index integrals           ... done
 Cholesky decomposition of the V-matrix  ... done


Timings:
 Total evaluation time                   ...   2.239 sec (  0.037 min)
 One electron matrix time                ...   0.459 sec (  0.008 min) = 20.5%
 Schwartz matrix evaluation time         ...   0.762 sec (  0.013 min) = 34.0%
 Two index repulsion integral time       ...   0.346 sec (  0.006 min) = 15.5%
 Cholesky decomposition of V             ...   0.601 sec (  0.010 min) = 26.8%
 Three index repulsion integral time     ...   0.000 sec (  0.000 min) =  0.0%



           ************************************************************
           *        Program running with 6 parallel MPI-processes     *
           *              working on a common directory               *
           ************************************************************
-------------------------------------------------------------------------------
                                 ORCA SCF
-------------------------------------------------------------------------------

------------
SCF SETTINGS
------------
Hamiltonian:
 Density Functional     Method          .... DFT(GTOs)
 Exchange Functional    Exchange        .... WB88
 Correlation Functional Correlation     .... LYP
 LDA part of GGA corr.  LDAOpt          .... VWN-5
 Gradients option       PostSCFGGA      .... off
 Hybrid DFT is turned on
   Fraction HF Exchange ScalHFX         ....  0.190000
   Scaling of DF-GGA-X  ScalDFX         ....  0.350000
   Scaling of DF-GGA-C  ScalDFC         ....  0.810000
   Scaling of DF-LDA-C  ScalLDAC        ....  1.000000
   Perturbative correction              ....  0.000000
   Density functional embedding theory  .... OFF
 Long-range corrected/Screened/Range-Separated Hybrid DFT is turned on
   Amount of maximum screened exact exchange              ....  0.460000
   Range separation parameter mu (erf(mu*r12)/r12)        ....  0.330000
 RI-approximation to the Coulomb term is turned on
   Number of auxiliary basis functions  .... 3863
   RIJ-COSX (HFX calculated with COS-X)).... on


General Settings:
 Integral files         IntName         .... xtbopt
 Hartree-Fock type      HFTyp           .... RHF
 Total Charge           Charge          ....    0
 Multiplicity           Mult            ....    1
 Number of Electrons    NEL             ....  578
 Basis Dimension        Dim             .... 1171
 Nuclear Repulsion      ENuc            ....  11494.8857133052 Eh

Convergence Acceleration:
 DIIS                   CNVDIIS         .... on
   Start iteration      DIISMaxIt       ....    12
   Startup error        DIISStart       ....  0.200000
   # of expansion vecs  DIISMaxEq       ....     5
   Bias factor          DIISBfac        ....   1.050
   Max. coefficient     DIISMaxC        ....  10.000
 Newton-Raphson         CNVNR           .... off
 SOSCF                  CNVSOSCF        .... on
   Start iteration      SOSCFMaxIt      ....   150
   Startup grad/error   SOSCFStart      ....  0.003300
 Level Shifting         CNVShift        .... on
   Level shift para.    LevelShift      ....    0.2500
   Turn off err/grad.   ShiftErr        ....    0.0010
 Zerner damping         CNVZerner       .... off
 Static damping         CNVDamp         .... on
   Fraction old density DampFac         ....    0.7000
   Max. Damping (<1)    DampMax         ....    0.9800
   Min. Damping (>=0)   DampMin         ....    0.0000
   Turn off err/grad.   DampErr         ....    0.1000
 Fernandez-Rico         CNVRico         .... off

SCF Procedure:
 Maximum # iterations   MaxIter         ....   125
 SCF integral mode      SCFMode         .... Direct
   Integral package                     .... LIBINT
 Reset frequency        DirectResetFreq ....    20
 Integral Threshold     Thresh          ....  2.500e-11 Eh
 Primitive CutOff       TCut            ....  2.500e-12 Eh

Convergence Tolerance:
 Convergence Check Mode ConvCheckMode   .... Total+1el-Energy
 Convergence forced     ConvForced      .... 1
 Energy Change          TolE            ....  1.000e-08 Eh
 1-El. energy change                    ....  1.000e-05 Eh
 Orbital Gradient       TolG            ....  1.000e-05
 Orbital Rotation angle TolX            ....  1.000e-05
 DIIS Error             TolErr          ....  5.000e-07


Diagonalization of the overlap matrix:
Smallest eigenvalue                        ... 1.968e-04
Time for diagonalization                   ...    0.209 sec
Threshold for overlap eigenvalues          ... 1.000e-08
Number of eigenvalues below threshold      ... 0
Time for construction of square roots      ...    0.157 sec
Total time needed                          ...    0.369 sec

-------------------
DFT GRID GENERATION
-------------------

General Integration Accuracy     IntAcc      ...  4.670
Radial Grid Type                 RadialGrid  ... Gauss-Chebyshev
Angular Grid (max. acc.)         AngularGrid ... Lebedev-302
Angular grid pruning method      GridPruning ... 3 (G Style)
Weight generation scheme         WeightScheme... Becke
Basis function cutoff            BFCut       ...    1.0000e-11
Integration weight cutoff        WCut        ...    1.0000e-14
Grids for H and He will be reduced by one unit

# of grid points (after initial pruning)     ... 524652 (   0.0 sec)
# of grid points (after weights+screening)   ... 457145 (   5.3 sec)
nearest neighbour list constructed           ...    0.0 sec
Grid point re-assignment to atoms done       ...    0.1 sec
Grid point division into batches done        ...    1.7 sec
Reduced shell lists constructed in    2.5 sec

Total number of grid points                  ...   457145
Total number of batches                      ...     7187
Average number of points per batch           ...       63
Average number of grid points per atom       ...     5079
Average number of shells per batch           ...    75.85 (14.73%)
Average number of basis functions per batch  ...   166.33 (14.20%)
Average number of large shells per batch     ...    49.88 (65.76%)
Average number of large basis fcns per batch ...   110.28 (66.30%)
Maximum spatial batch extension              ...  15.28, 15.73, 21.77 au
Average spatial batch extension              ...   0.35,  0.33,  0.41 au

Time for grid setup =    8.178 sec

------------------------------
INITIAL GUESS: MODEL POTENTIAL
------------------------------
Loading Hartree-Fock densities                     ... done
Calculating cut-offs                               ... done
Setting up the integral package                    ... done
Initializing the effective Hamiltonian             ... done
Starting the Coulomb interaction                   ... done (   1.1 sec)
Reading the grid                                   ... done
Mapping shells                                     ... done
Starting the XC term evaluation                    ... done (   1.2 sec)
  promolecular density results
     # of electrons  =    577.992195744
     EX              =   -631.159231964
     EC              =    -20.799437316
     EX+EC           =   -651.958669281
Transforming the Hamiltonian                       ... done (   0.1 sec)
Diagonalizing the Hamiltonian                      ... done (   0.2 sec)
Back transforming the eigenvectors                 ... done (   0.1 sec)
Now organizing SCF variables                       ... done
                      ------------------
                      INITIAL GUESS DONE (  11.0 sec)
                      ------------------
--------------------
COSX GRID GENERATION
--------------------

General Integration Accuracy     IntAcc      ...  3.340
Radial Grid Type                 RadialGrid  ... Gauss-Chebyshev
Angular Grid (max. acc.)         AngularGrid ... Lebedev-50
Angular grid pruning method      GridPruning ... 3 (G Style)
Weight generation scheme         WeightScheme... Becke
Basis function cutoff            BFCut       ...    1.0000e-11
Integration weight cutoff        WCut        ...    1.0000e-14
Grids for H and He will be reduced by one unit

# of grid points (after initial pruning)     ...  49504 (   0.0 sec)
# of grid points (after weights+screening)   ...  45091 (   0.5 sec)
nearest neighbour list constructed           ...    0.0 sec
Grid point re-assignment to atoms done       ...    0.0 sec
Grid point division into batches done        ...    0.0 sec
Reduced shell lists constructed in    0.1 sec

Total number of grid points                  ...    45091
Total number of batches                      ...      747
Average number of points per batch           ...       60
Average number of grid points per atom       ...      501
Average number of shells per batch           ...    91.38 (17.74%)
Average number of basis functions per batch  ...   202.52 (17.29%)
Average number of large shells per batch     ...    60.13 (65.81%)
Average number of large basis fcns per batch ...   134.72 (66.52%)
Maximum spatial batch extension              ...  18.73, 16.02, 30.44 au
Average spatial batch extension              ...   0.73,  0.59,  1.11 au

Overlap Fitting                  UseSFitting ... on
Constructing numerical overlap ... done (      0.1 sec)
Inverting numerical overlap    ... done (      0.1 sec)
Obtaining analytic overlap     ... done (      0.0 sec)
Final contraction and storage  ... done (      0.1 sec)


General Integration Accuracy     IntAcc      ...  3.670
Radial Grid Type                 RadialGrid  ... Gauss-Chebyshev
Angular Grid (max. acc.)         AngularGrid ... Lebedev-50
Angular grid pruning method      GridPruning ... 3 (G Style)
Weight generation scheme         WeightScheme... Becke
Basis function cutoff            BFCut       ...    1.0000e-11
Integration weight cutoff        WCut        ...    1.0000e-14
Grids for H and He will be reduced by one unit

# of grid points (after initial pruning)     ...  61186 (   0.0 sec)
# of grid points (after weights+screening)   ...  55533 (   0.6 sec)
nearest neighbour list constructed           ...    0.0 sec
Grid point re-assignment to atoms done       ...    0.0 sec
Grid point division into batches done        ...    0.0 sec
Reduced shell lists constructed in    0.1 sec

Total number of grid points                  ...    55533
Total number of batches                      ...      921
Average number of points per batch           ...       60
Average number of grid points per atom       ...      617
Average number of shells per batch           ...    89.87 (17.45%)
Average number of basis functions per batch  ...   198.98 (16.99%)
Average number of large shells per batch     ...    58.67 (65.28%)
Average number of large basis fcns per batch ...   131.33 (66.00%)
Maximum spatial batch extension              ...  19.61, 17.83, 32.18 au
Average spatial batch extension              ...   0.66,  0.59,  0.98 au

Overlap Fitting                  UseSFitting ... on
Constructing numerical overlap ... done (      0.1 sec)
Inverting numerical overlap    ... done (      0.1 sec)
Obtaining analytic overlap     ... done (      0.0 sec)
Final contraction and storage  ... done (      0.1 sec)


General Integration Accuracy     IntAcc      ...  4.010
Radial Grid Type                 RadialGrid  ... Gauss-Chebyshev
Angular Grid (max. acc.)         AngularGrid ... Lebedev-110
Angular grid pruning method      GridPruning ... 3 (G Style)
Weight generation scheme         WeightScheme... Becke
Basis function cutoff            BFCut       ...    1.0000e-11
Integration weight cutoff        WCut        ...    1.0000e-14
Grids for H and He will be reduced by one unit

# of grid points (after initial pruning)     ... 122290 (   0.0 sec)
# of grid points (after weights+screening)   ... 109530 (   1.2 sec)
nearest neighbour list constructed           ...    0.0 sec
Grid point re-assignment to atoms done       ...    0.0 sec
Grid point division into batches done        ...    0.1 sec
Reduced shell lists constructed in    0.3 sec

Total number of grid points                  ...   109530
Total number of batches                      ...     1757
Average number of points per batch           ...       62
Average number of grid points per atom       ...     1217
Average number of shells per batch           ...    85.59 (16.62%)
Average number of basis functions per batch  ...   188.92 (16.13%)
Average number of large shells per batch     ...    56.46 (65.97%)
Average number of large basis fcns per batch ...   125.91 (66.65%)
Maximum spatial batch extension              ...  18.69, 15.53, 33.30 au
Average spatial batch extension              ...   0.55,  0.48,  0.74 au

Overlap Fitting                  UseSFitting ... on
Constructing numerical overlap ... done (      0.1 sec)
Inverting numerical overlap    ... done (      0.1 sec)
Obtaining analytic overlap     ... done (      0.0 sec)
Final contraction and storage  ... done (      0.1 sec)

Time for X-Grid setup             =    3.862 sec
--------------
SCF ITERATIONS
--------------
ITER       Energy         Delta-E        Max-DP      RMS-DP      [F,P]     Damp
               ***  Starting incremental Fock matrix formation  ***
  0  -8157.9378428228   0.000000000000 0.07920204  0.00100497  0.2297701 0.7000
  1  -8158.6140739757  -0.676231152907 0.04789134  0.00071286  0.1019591 0.7000
                               ***Turning on DIIS***
  2  -8158.8963947153  -0.282320739572 0.12450119  0.00130750  0.0354918 0.0000
  3  -8159.3363872474  -0.439992532123 0.05651909  0.00055410  0.0519915 0.0000
  4  -8159.4396534507  -0.103266203343 0.01580499  0.00020334  0.0168503 0.0000
  5  -8159.4479912209  -0.008337770114 0.00769803  0.00008089  0.0089301 0.0000
                      *** Initiating the SOSCF procedure ***
                           *** Shutting down DIIS ***
                      *** Re-Reading the Fockian *** 
                      *** Removing any level shift *** 
ITER      Energy       Delta-E        Grad      Rot      Max-DP    RMS-DP
  6  -8159.44971199  -0.0017207715  0.002262  0.002262  0.003285  0.000042
               *** Restarting incremental Fock matrix formation ***
  7  -8159.45026510  -0.0005531027  0.001835  0.012373  0.002888  0.000042
  8  -8159.45065081  -0.0003857126  0.000759  0.011297  0.003228  0.000051
  9  -8159.45065771  -0.0000069037  0.000953  0.003410  0.001569  0.000020
 10  -8159.45076615  -0.0001084392  0.000170  0.000675  0.000602  0.000008
 11  -8159.45076516   0.0000009942  0.000169  0.000473  0.000397  0.000004
 12  -8159.45077116  -0.0000060049  0.000046  0.000305  0.000202  0.000002
 13  -8159.45077106   0.0000000974  0.000047  0.000110  0.000108  0.000001
 14  -8159.45077151  -0.0000004464  0.000008  0.000047  0.000049  0.000000
 15  -8159.45077151   0.0000000054  0.000010  0.000034  0.000024  0.000000
 16  -8159.45077152  -0.0000000102  0.000003  0.000029  0.000011  0.000000
                  ***Gradient check signals convergence***
              ***Rediagonalizing the Fockian in SOSCF/NRSCF***

               *****************************************************
               *                     SUCCESS                       *
               *           SCF CONVERGED AFTER  17 CYCLES          *
               *****************************************************

Setting up the final grid:

General Integration Accuracy     IntAcc      ...  5.010
Radial Grid Type                 RadialGrid  ... Gauss-Chebyshev
Angular Grid (max. acc.)         AngularGrid ... Lebedev-434
Angular grid pruning method      GridPruning ... 3 (G Style)
Weight generation scheme         WeightScheme... Becke
Basis function cutoff            BFCut       ...    1.0000e-11
Integration weight cutoff        WCut        ...    1.0000e-14
Grids for H and He will be reduced by one unit

# of grid points (after initial pruning)     ... 914508 (   0.0 sec)
# of grid points (after weights+screening)   ... 794020 (   9.0 sec)
nearest neighbour list constructed           ...    0.0 sec
Grid point re-assignment to atoms done       ...    0.1 sec
Grid point division into batches done        ...    5.4 sec
Reduced shell lists constructed in    6.8 sec

Total number of grid points                  ...   794020
Total number of batches                      ...    12450
Average number of points per batch           ...       63
Average number of grid points per atom       ...     8822
Average number of shells per batch           ...    73.16 (14.21%)
Average number of basis functions per batch  ...   160.01 (13.66%)
Average number of large shells per batch     ...    48.12 (65.78%)
Average number of large basis fcns per batch ...   106.11 (66.32%)
Maximum spatial batch extension              ...  14.89, 17.59, 23.11 au
Average spatial batch extension              ...   0.30,  0.29,  0.33 au

Final grid set up in   16.4 sec
Final integration                            ... done (   2.7 sec)
Change in XC energy                          ...    -0.000153804
Integrated number of electrons               ...   578.000004114
Previous integrated no of electrons          ...   577.999861752
Old exchange energy                            =   -166.673271347 Eh
New exchange energy                            =   -166.671010282 Eh
Exchange energy change after final integration =      0.002261065 Eh
Total energy after final integration           =  -8159.448664234 Eh
Final COS-X integration done in                =    54.917 sec

----------------
TOTAL SCF ENERGY
----------------

Total Energy       :        -8159.44866423 Eh         -222029.88594 eV

Components:
Nuclear Repulsion  :        11494.88571331 Eh          312791.74228 eV
Electronic Energy  :       -19654.33437754 Eh         -534821.62822 eV
One Electron Energy:       -34125.71066012 Eh         -928607.79657 eV
Two Electron Energy:        14471.37628258 Eh          393786.16835 eV

Virial components:
Potential Energy   :       -16284.38321696 Eh         -443120.59515 eV
Kinetic Energy     :         8124.93455273 Eh          221090.70921 eV
Virial Ratio       :            2.00424792


DFT components:
N(Alpha)           :      289.000002057228 electrons
N(Beta)            :      289.000002057228 electrons
N(Total)           :      578.000004114457 electrons
E(XC)              :     -493.302198665657 Eh       
DFET-embed. en.    :        0.000000000000 Eh       

---------------
SCF CONVERGENCE
---------------

  Last Energy change         ...    2.0034e-08  Tolerance :   1.0000e-08
  Last MAX-Density change    ...    9.7700e-15  Tolerance :   1.0000e-07
  Last RMS-Density change    ...    4.1750e-17  Tolerance :   5.0000e-09
  Last Orbital Gradient      ...    1.5153e-06  Tolerance :   1.0000e-05
  Last Orbital Rotation      ...    1.3101e-05  Tolerance :   1.0000e-05

             **** THE GBW FILE WAS UPDATED (xtbopt.gbw) ****
             **** DENSITY FILE WAS UPDATED (xtbopt.scfp) ****
             **** ENERGY FILE WAS UPDATED (xtbopt.en.tmp) ****
             **** THE GBW FILE WAS UPDATED (xtbopt.gbw) ****
             **** DENSITY FILE WAS UPDATED (xtbopt.scfp) ****
----------------
ORBITAL ENERGIES
----------------

  NO   OCC          E(Eh)            E(eV) 
   0   2.0000    -482.888644    -13140.0680 
   1   2.0000     -89.002918     -2421.8925 
   2   2.0000     -89.001899     -2421.8648 
   3   2.0000     -89.001614     -2421.8570 
   4   2.0000     -88.994593     -2421.6660 
   5   2.0000     -88.991051     -2421.5696 
   6   2.0000     -88.979338     -2421.2509 
   7   2.0000     -88.963951     -2420.8322 
   8   2.0000     -62.566367     -1702.5174 
   9   2.0000     -56.400322     -1534.7308 
  10   2.0000     -56.397596     -1534.6566 
  11   2.0000     -56.397564     -1534.6557 
  12   2.0000     -19.365385      -526.9589 
  13   2.0000     -19.229347      -523.2571 
  14   2.0000     -14.493073      -394.3766 
  15   2.0000     -14.489448      -394.2779 
  16   2.0000     -14.441204      -392.9651 
  17   2.0000     -14.440748      -392.9527 
  18   2.0000     -14.440394      -392.9431 
  19   2.0000     -14.437056      -392.8523 
  20   2.0000     -14.434907      -392.7938 
  21   2.0000     -14.431169      -392.6921 
  22   2.0000     -14.419767      -392.3818 
  23   2.0000     -14.417402      -392.3175 
  24   2.0000     -10.376949      -282.3711 
  25   2.0000     -10.375849      -282.3412 
  26   2.0000     -10.371985      -282.2360 
  27   2.0000     -10.362751      -281.9848 
  28   2.0000     -10.362505      -281.9781 
  29   2.0000     -10.359695      -281.9016 
  30   2.0000     -10.346074      -281.5310 
  31   2.0000     -10.345439      -281.5137 
  32   2.0000     -10.344946      -281.5003 
  33   2.0000     -10.344871      -281.4983 
  34   2.0000     -10.344630      -281.4917 
  35   2.0000     -10.343304      -281.4556 
  36   2.0000     -10.341221      -281.3989 
  37   2.0000     -10.340840      -281.3886 
  38   2.0000     -10.340748      -281.3861 
  39   2.0000     -10.340745      -281.3860 
  40   2.0000     -10.340428      -281.3773 
  41   2.0000     -10.339755      -281.3590 
  42   2.0000     -10.339611      -281.3551 
  43   2.0000     -10.337220      -281.2901 
  44   2.0000     -10.336996      -281.2840 
  45   2.0000     -10.334442      -281.2145 
  46   2.0000     -10.332002      -281.1481 
  47   2.0000     -10.331452      -281.1331 
  48   2.0000     -10.331054      -281.1223 
  49   2.0000     -10.330693      -281.1125 
  50   2.0000     -10.329693      -281.0852 
  51   2.0000     -10.322245      -280.8826 
  52   2.0000     -10.321645      -280.8662 
  53   2.0000     -10.320367      -280.8315 
  54   2.0000     -10.318399      -280.7779 
  55   2.0000     -10.317683      -280.7584 
  56   2.0000     -10.315552      -280.7004 
  57   2.0000     -10.315114      -280.6885 
  58   2.0000     -10.314586      -280.6742 
  59   2.0000     -10.313223      -280.6371 
  60   2.0000     -10.312989      -280.6307 
  61   2.0000     -10.312635      -280.6211 
  62   2.0000     -10.311789      -280.5981 
  63   2.0000     -10.311246      -280.5833 
  64   2.0000     -10.310192      -280.5546 
  65   2.0000     -10.310182      -280.5543 
  66   2.0000     -10.309585      -280.5381 
  67   2.0000     -10.306526      -280.4548 
  68   2.0000     -10.303202      -280.3644 
  69   2.0000     -10.302797      -280.3534 
  70   2.0000     -10.302367      -280.3417 
  71   2.0000     -10.300380      -280.2876 
  72   2.0000     -10.297622      -280.2125 
  73   2.0000     -10.295785      -280.1626 
  74   2.0000     -10.290547      -280.0200 
  75   2.0000     -10.285056      -279.8706 
  76   2.0000     -10.283690      -279.8334 
  77   2.0000     -10.281117      -279.7634 
  78   2.0000     -10.275151      -279.6011 
  79   2.0000      -8.795806      -239.3460 
  80   2.0000      -8.097278      -220.3381 
  81   2.0000      -8.096279      -220.3109 
  82   2.0000      -8.095760      -220.2968 
  83   2.0000      -8.086808      -220.0532 
  84   2.0000      -8.086208      -220.0369 
  85   2.0000      -8.075348      -219.7414 
  86   2.0000      -8.059561      -219.3118 
  87   2.0000      -6.632145      -180.4698 
  88   2.0000      -6.617531      -180.0722 
  89   2.0000      -6.617307      -180.0661 
  90   2.0000      -6.066581      -165.0801 
  91   2.0000      -6.065591      -165.0531 
  92   2.0000      -6.065087      -165.0394 
  93   2.0000      -6.062379      -164.9657 
  94   2.0000      -6.061379      -164.9385 
  95   2.0000      -6.060877      -164.9248 
  96   2.0000      -6.059573      -164.8894 
  97   2.0000      -6.058570      -164.8621 
  98   2.0000      -6.058046      -164.8478 
  99   2.0000      -6.056247      -164.7989 
 100   2.0000      -6.055807      -164.7869 
 101   2.0000      -6.051466      -164.6688 
 102   2.0000      -6.051180      -164.6610 
 103   2.0000      -6.049375      -164.6119 
 104   2.0000      -6.048108      -164.5774 
 105   2.0000      -6.045040      -164.4939 
 106   2.0000      -6.040731      -164.3767 
 107   2.0000      -6.036587      -164.2639 
 108   2.0000      -6.028982      -164.0569 
 109   2.0000      -6.024709      -163.9407 
 110   2.0000      -6.021597      -163.8560 
 111   2.0000      -2.747994       -74.7767 
 112   2.0000      -2.743898       -74.6653 
 113   2.0000      -2.743771       -74.6618 
 114   2.0000      -2.732144       -74.3454 
 115   2.0000      -2.732127       -74.3450 
 116   2.0000      -1.316509       -35.8240 
 117   2.0000      -1.144717       -31.1493 
 118   2.0000      -1.115245       -30.3474 
 119   2.0000      -1.057258       -28.7695 
 120   2.0000      -1.052944       -28.6521 
 121   2.0000      -1.032625       -28.0991 
 122   2.0000      -1.028398       -27.9841 
 123   2.0000      -1.027317       -27.9547 
 124   2.0000      -1.021019       -27.7834 
 125   2.0000      -1.020268       -27.7629 
 126   2.0000      -1.017821       -27.6963 
 127   2.0000      -1.017177       -27.6788 
 128   2.0000      -1.014202       -27.5978 
 129   2.0000      -1.012641       -27.5554 
 130   2.0000      -1.002969       -27.2922 
 131   2.0000      -0.997430       -27.1415 
 132   2.0000      -0.994364       -27.0580 
 133   2.0000      -0.984133       -26.7796 
 134   2.0000      -0.978379       -26.6230 
 135   2.0000      -0.969945       -26.3935 
 136   2.0000      -0.963703       -26.2237 
 137   2.0000      -0.947073       -25.7712 
 138   2.0000      -0.945836       -25.7375 
 139   2.0000      -0.936378       -25.4801 
 140   2.0000      -0.929469       -25.2921 
 141   2.0000      -0.920737       -25.0545 
 142   2.0000      -0.912778       -24.8380 
 143   2.0000      -0.902519       -24.5588 
 144   2.0000      -0.897119       -24.4118 
 145   2.0000      -0.890123       -24.2215 
 146   2.0000      -0.882133       -24.0040 
 147   2.0000      -0.881174       -23.9780 
 148   2.0000      -0.877427       -23.8760 
 149   2.0000      -0.869144       -23.6506 
 150   2.0000      -0.865852       -23.5610 
 151   2.0000      -0.861821       -23.4513 
 152   2.0000      -0.846517       -23.0349 
 153   2.0000      -0.839550       -22.8453 
 154   2.0000      -0.833494       -22.6805 
 155   2.0000      -0.819752       -22.3066 
 156   2.0000      -0.817824       -22.2541 
 157   2.0000      -0.800108       -21.7720 
 158   2.0000      -0.793613       -21.5953 
 159   2.0000      -0.787657       -21.4332 
 160   2.0000      -0.781468       -21.2648 
 161   2.0000      -0.775519       -21.1030 
 162   2.0000      -0.769270       -20.9329 
 163   2.0000      -0.765087       -20.8191 
 164   2.0000      -0.746471       -20.3125 
 165   2.0000      -0.740765       -20.1572 
 166   2.0000      -0.725603       -19.7447 
 167   2.0000      -0.714466       -19.4416 
 168   2.0000      -0.708878       -19.2895 
 169   2.0000      -0.702681       -19.1209 
 170   2.0000      -0.699804       -19.0426 
 171   2.0000      -0.696098       -18.9418 
 172   2.0000      -0.694728       -18.9045 
 173   2.0000      -0.688214       -18.7273 
 174   2.0000      -0.683049       -18.5867 
 175   2.0000      -0.679820       -18.4988 
 176   2.0000      -0.665129       -18.0991 
 177   2.0000      -0.661899       -18.0112 
 178   2.0000      -0.659177       -17.9371 
 179   2.0000      -0.652320       -17.7505 
 180   2.0000      -0.647868       -17.6294 
 181   2.0000      -0.642920       -17.4948 
 182   2.0000      -0.641058       -17.4441 
 183   2.0000      -0.636544       -17.3212 
 184   2.0000      -0.632290       -17.2055 
 185   2.0000      -0.628866       -17.1123 
 186   2.0000      -0.626382       -17.0447 
 187   2.0000      -0.622845       -16.9485 
 188   2.0000      -0.619169       -16.8484 
 189   2.0000      -0.614904       -16.7324 
 190   2.0000      -0.609506       -16.5855 
 191   2.0000      -0.601431       -16.3658 
 192   2.0000      -0.597063       -16.2469 
 193   2.0000      -0.587235       -15.9795 
 194   2.0000      -0.579614       -15.7721 
 195   2.0000      -0.573717       -15.6116 
 196   2.0000      -0.571287       -15.5455 
 197   2.0000      -0.565899       -15.3989 
 198   2.0000      -0.561451       -15.2779 
 199   2.0000      -0.560394       -15.2491 
 200   2.0000      -0.558255       -15.1909 
 201   2.0000      -0.555707       -15.1216 
 202   2.0000      -0.552314       -15.0292 
 203   2.0000      -0.548468       -14.9246 
 204   2.0000      -0.547317       -14.8933 
 205   2.0000      -0.540809       -14.7162 
 206   2.0000      -0.534186       -14.5359 
 207   2.0000      -0.531865       -14.4728 
 208   2.0000      -0.526733       -14.3331 
 209   2.0000      -0.526004       -14.3133 
 210   2.0000      -0.524833       -14.2814 
 211   2.0000      -0.523280       -14.2392 
 212   2.0000      -0.521670       -14.1954 
 213   2.0000      -0.520142       -14.1538 
 214   2.0000      -0.518228       -14.1017 
 215   2.0000      -0.514736       -14.0067 
 216   2.0000      -0.511190       -13.9102 
 217   2.0000      -0.510274       -13.8853 
 218   2.0000      -0.508217       -13.8293 
 219   2.0000      -0.507282       -13.8039 
 220   2.0000      -0.505952       -13.7676 
 221   2.0000      -0.502764       -13.6809 
 222   2.0000      -0.500159       -13.6100 
 223   2.0000      -0.499773       -13.5995 
 224   2.0000      -0.498624       -13.5682 
 225   2.0000      -0.495657       -13.4875 
 226   2.0000      -0.491481       -13.3739 
 227   2.0000      -0.488163       -13.2836 
 228   2.0000      -0.483139       -13.1469 
 229   2.0000      -0.477535       -12.9944 
 230   2.0000      -0.471296       -12.8246 
 231   2.0000      -0.469551       -12.7771 
 232   2.0000      -0.469069       -12.7640 
 233   2.0000      -0.467537       -12.7223 
 234   2.0000      -0.466645       -12.6981 
 235   2.0000      -0.463914       -12.6237 
 236   2.0000      -0.462068       -12.5735 
 237   2.0000      -0.460562       -12.5325 
 238   2.0000      -0.457569       -12.4511 
 239   2.0000      -0.453549       -12.3417 
 240   2.0000      -0.451765       -12.2932 
 241   2.0000      -0.451181       -12.2773 
 242   2.0000      -0.450430       -12.2568 
 243   2.0000      -0.450049       -12.2465 
 244   2.0000      -0.447348       -12.1730 
 245   2.0000      -0.446470       -12.1491 
 246   2.0000      -0.445848       -12.1321 
 247   2.0000      -0.444480       -12.0949 
 248   2.0000      -0.443491       -12.0680 
 249   2.0000      -0.443076       -12.0567 
 250   2.0000      -0.441788       -12.0217 
 251   2.0000      -0.440962       -11.9992 
 252   2.0000      -0.438522       -11.9328 
 253   2.0000      -0.437456       -11.9038 
 254   2.0000      -0.431930       -11.7534 
 255   2.0000      -0.430210       -11.7066 
 256   2.0000      -0.429607       -11.6902 
 257   2.0000      -0.425596       -11.5811 
 258   2.0000      -0.422915       -11.5081 
 259   2.0000      -0.422012       -11.4835 
 260   2.0000      -0.420881       -11.4528 
 261   2.0000      -0.418529       -11.3888 
 262   2.0000      -0.416391       -11.3306 
 263   2.0000      -0.410382       -11.1671 
 264   2.0000      -0.407293       -11.0830 
 265   2.0000      -0.403532       -10.9807 
 266   2.0000      -0.399835       -10.8801 
 267   2.0000      -0.398943       -10.8558 
 268   2.0000      -0.391988       -10.6665 
 269   2.0000      -0.390576       -10.6281 
 270   2.0000      -0.382591       -10.4108 
 271   2.0000      -0.379868       -10.3367 
 272   2.0000      -0.378034       -10.2868 
 273   2.0000      -0.362966        -9.8768 
 274   2.0000      -0.361833        -9.8460 
 275   2.0000      -0.357205        -9.7200 
 276   2.0000      -0.347484        -9.4555 
 277   2.0000      -0.345774        -9.4090 
 278   2.0000      -0.339622        -9.2416 
 279   2.0000      -0.331719        -9.0265 
 280   2.0000      -0.329397        -8.9634 
 281   2.0000      -0.320151        -8.7118 
 282   2.0000      -0.317413        -8.6372 
 283   2.0000      -0.305078        -8.3016 
 284   2.0000      -0.300031        -8.1643 
 285   2.0000      -0.297276        -8.0893 
 286   2.0000      -0.284323        -7.7368 
 287   2.0000      -0.261829        -7.1247 
 288   2.0000      -0.238037        -6.4773 
 289   0.0000      -0.121026        -3.2933 
 290   0.0000      -0.112831        -3.0703 
 291   0.0000      -0.092002        -2.5035 
 292   0.0000      -0.088893        -2.4189 
 293   0.0000      -0.068244        -1.8570 
 294   0.0000      -0.055727        -1.5164 
 295   0.0000      -0.044450        -1.2095 
 296   0.0000      -0.030716        -0.8358 
 297   0.0000      -0.014533        -0.3955 
 298   0.0000       0.003713         0.1010 
 299   0.0000       0.015981         0.4349 
 300   0.0000       0.020877         0.5681 
 301   0.0000       0.025069         0.6822 
 302   0.0000       0.026474         0.7204 
 303   0.0000       0.030568         0.8318 
 304   0.0000       0.033837         0.9207 
 305   0.0000       0.036207         0.9852 
 306   0.0000       0.039093         1.0638 
 307   0.0000       0.044751         1.2177 
 308   0.0000       0.048430         1.3178 
 309   0.0000       0.051532         1.4023 
 310   0.0000       0.052529         1.4294 
 311   0.0000       0.055306         1.5049 
 312   0.0000       0.060656         1.6505 
 313   0.0000       0.066956         1.8220 
 314   0.0000       0.071242         1.9386 
 315   0.0000       0.072800         1.9810 
 316   0.0000       0.073549         2.0014 
 317   0.0000       0.077170         2.0999 
 318   0.0000       0.078246         2.1292 
 319   0.0000       0.084284         2.2935 
 320   0.0000       0.085068         2.3148 
 321   0.0000       0.090945         2.4747 
 322   0.0000       0.093334         2.5398 
 323   0.0000       0.094946         2.5836 
 324   0.0000       0.095109         2.5880 
 325   0.0000       0.104093         2.8325 
 326   0.0000       0.105148         2.8612 
 327   0.0000       0.105382         2.8676 
 328   0.0000       0.108232         2.9451 
 329   0.0000       0.109458         2.9785 
 330   0.0000       0.110957         3.0193 
 331   0.0000       0.112454         3.0600 
 332   0.0000       0.117556         3.1989 
 333   0.0000       0.118603         3.2274 
 334   0.0000       0.121740         3.3127 
 335   0.0000       0.125390         3.4120 
 336   0.0000       0.132217         3.5978 
 337   0.0000       0.135678         3.6920 
 338   0.0000       0.137120         3.7312 
 339   0.0000       0.144224         3.9245 
 340   0.0000       0.144546         3.9333 
 341   0.0000       0.146360         3.9826 
 342   0.0000       0.153037         4.1643 
 343   0.0000       0.156604         4.2614 
 344   0.0000       0.158201         4.3049 
 345   0.0000       0.161801         4.4028 
 346   0.0000       0.170591         4.6420 
 347   0.0000       0.170733         4.6459 
 348   0.0000       0.183476         4.9926 
 349   0.0000       0.184058         5.0085 
 350   0.0000       0.185796         5.0558 
 351   0.0000       0.187212         5.0943 
 352   0.0000       0.192548         5.2395 
 353   0.0000       0.194992         5.3060 
[...]
  43   4.407     281.4   0.092502   0.079087  81.612081  71.991414     0.30 (  85->  99)    0.25 (  89->  99)    0.05 (  85->  98)
  44   4.429     279.9   0.144547   0.120652  -38.825766  -21.496968     0.22 (  85->  99)    0.10 (  95-> 104)    0.08 (  86->  98)
  45   4.472     277.2   0.017439   0.014407   2.042090   1.966979     0.30 (  88->  99)    0.14 (  86->  98)    0.07 (  89->  99)
  46   4.517     274.5   0.062630   0.053542  -93.961990  -78.647645     0.12 (  94-> 102)    0.11 (  86->  98)    0.11 (  96-> 106)
  47   4.543     272.9   0.172031   0.159427  105.742923  100.769426     0.41 (  96-> 106)    0.11 (  95-> 102)    0.06 (  94-> 102)
  48   4.579     270.8   0.071408   0.061930  -149.961440  -125.022338     0.10 (  95-> 101)    0.09 (  94->  99)    0.08 (  96-> 106)
  49   4.603     269.4   0.001570   0.001374   6.785122   6.104938     0.65 (  90->  98)    0.20 (  90->  97)    0.01 (  89->  97)
  50   4.632     267.7   0.047856   0.042889  -58.461544  -54.911527     0.42 (  89->  98)    0.21 (  89->  97)    0.04 (  94-> 101)
  51   4.651     266.6   0.100142   0.086058  -42.191353  -28.015048     0.11 (  91->  99)    0.09 (  94->  99)    0.08 (  94-> 102)
  52   4.689     264.4   0.021116   0.019180  34.959511  27.709300     0.30 (  84->  97)    0.09 (  84->  98)    0.06 (  84-> 100)
  53   4.704     263.6   0.008297   0.007653  79.421686  71.945166     0.24 (  84->  97)    0.08 (  84->  98)    0.08 (  91-> 101)
  54   4.796     258.5   0.139735   0.118654  -22.189496  -23.644964     0.32 (  89-> 101)    0.08 (  81->  97)    0.05 (  91->  99)
  55   4.820     257.2   0.047276   0.038980  39.304098  38.097154     0.15 (  83->  97)    0.13 (  87-> 100)    0.08 (  82->  98)
  56   4.827     256.9   0.000043   0.000027  -0.040512  -0.045257     0.88 (  92->  99)    0.06 (  92-> 100)    0.02 (  92-> 103)
  57   4.831     256.7   0.026330   0.022702  -17.156416  -13.644259     0.22 (  87-> 100)    0.17 (  83->  98)    0.07 (  89-> 101)
  58   4.843     256.0   0.145343   0.118636  30.412777  33.136699     0.18 (  95-> 105)    0.15 (  96-> 105)    0.07 (  89-> 101)
  59   4.906     252.7   0.036661   0.034430  -31.531700  -38.825908     0.19 (  95-> 104)    0.15 (  94-> 103)    0.14 (  84-> 100)
  60   4.959     250.0   0.003094   0.002752  -6.060092  -6.455357     0.21 (  82->  98)    0.09 (  81->  98)    0.08 (  81->  97)

-----------------------------------------------------------------------------
         ABSORPTION SPECTRUM VIA TRANSITION ELECTRIC DIPOLE MOMENTS
-----------------------------------------------------------------------------
State   Energy  Wavelength   fosc         T2         TX        TY        TZ  
        (cm-1)    (nm)                  (au**2)     (au)      (au)      (au) 
-----------------------------------------------------------------------------
   0   10447.6    957.2   0.353608872  11.14250   3.19094  -0.85200   0.48424
   1   13061.2    765.6   0.303673957   7.65418   2.49956  -0.96251   0.69280
   2   16416.8    609.1   0.157698219   3.16238   1.16748   1.21696  -0.56424
   3   17261.2    579.3   0.707685029  13.49720   3.48017   1.12625  -0.34236
   4   19316.2    517.7   0.211180336   3.59920  -1.14014   1.33387  -0.72116
   5   20276.5    493.2   0.000030322   0.00049  -0.01068   0.00526   0.01872
   6   20661.4    484.0   1.222932646  19.48582  -3.75816   1.82879  -1.42041
   7   22909.4    436.5   0.001842367   0.02648   0.15899  -0.03458   0.00133
   8   23067.0    433.5   0.125518537   1.79140   0.08039  -1.23930   0.49907
   9   24321.7    411.2   0.440552678   5.96320  -1.11006   2.05745  -0.70560
  10   24968.2    400.5   0.003813675   0.05028   0.21330  -0.01911  -0.06649
  11   25718.2    388.8   0.009676596   0.12387   0.14025   0.22872  -0.22779
  12   25804.9    387.5   0.018266475   0.23304   0.17534  -0.42743   0.14000
  13   26700.1    374.5   0.265928677   3.27890   1.75296   0.45371   0.01271
  14   26994.0    370.5   0.059287716   0.72306  -0.44822  -0.64708  -0.32163
  15   27070.2    369.4   0.165252092   2.00970   1.31616   0.38740   0.35686
  16   28319.3    353.1   0.088539698   1.02927   0.75435  -0.67412   0.07608
  17   28472.2    351.2   0.000098210   0.00114  -0.00044   0.01234   0.03135
  18   28854.9    346.6   0.014587355   0.16643  -0.31211  -0.18046  -0.19093
  19   29171.4    342.8   0.082136306   0.92694   0.88785   0.22211   0.29889
  20   29768.8    335.9   0.041408445   0.45793  -0.08445   0.62803  -0.23744
  21   30493.6    327.9   0.248324921   2.68094  -0.59518  -1.49270   0.31394
  22   31000.0    322.6   0.380162577   4.03722   0.68173   1.87135  -0.26553
  23   31255.5    319.9   0.357948401   3.77024   0.73795   1.79030  -0.14310
  24   31409.6    318.4   0.283086144   2.96710  -1.15616  -1.23687   0.31708
  25   31453.8    317.9   0.042647268   0.44637  -0.44467  -0.20477  -0.45465
  26   31605.7    316.4   0.039433866   0.41075  -0.59833  -0.14752   0.17605
  27   32002.5    312.5   0.462821801   4.76108   1.96492   0.85349   0.41442
  28   32176.5    310.8   0.482770831   4.93945  -0.40167  -2.18143   0.13945
  29   32343.8    309.2   0.000018848   0.00019  -0.00362  -0.00619  -0.01185
  30   32559.0    307.1   0.173535310   1.75466   1.26992   0.30612   0.21965
  31   32907.0    303.9   0.025313184   0.25324   0.21770   0.45268  -0.03040
  32   33034.2    302.7   0.047727850   0.47565  -0.35914   0.58601  -0.05708
  33   33122.4    301.9   0.184144498   1.83026  -0.38560   1.23988  -0.37982
  34   33181.9    301.4   0.004307864   0.04274   0.07537  -0.18460   0.05461
  35   33884.5    295.1   0.083618275   0.81241  -0.90085   0.02873   0.00792
  36   34043.5    293.7   0.010106559   0.09773  -0.10283   0.25230  -0.15331
  37   34159.9    292.7   0.001702997   0.01641   0.02449  -0.05619  -0.11250
  38   34216.5    292.3   0.067092093   0.64552   0.35726   0.71041  -0.11494
  39   34461.1    290.2   0.411634912   3.93240   1.93769  -0.19561   0.37349
  40   34737.3    287.9   0.027356185   0.25926   0.45753   0.11368   0.19237
  41   35117.4    284.8   0.119375577   1.11910   1.02073   0.12134  -0.24996
  42   35148.8    284.5   0.270825184   2.53661   0.92671   1.28513  -0.16203
  43   35541.6    281.4   0.092501944   0.85682   0.06549  -0.92195   0.05030
  44   35725.1    279.9   0.144547211   1.33202  -1.15101   0.00365  -0.08477
  45   36070.8    277.2   0.017438865   0.15916   0.24799  -0.30960   0.04255
  46   36433.6    274.5   0.062629868   0.56592   0.27099   0.69664  -0.08469
  47   36642.4    272.9   0.172031446   1.54561   0.53290  -1.00893   0.49364
  48   36931.2    270.8   0.071408094   0.63655  -0.48302  -0.63496  -0.00807
  49   37124.8    269.4   0.001569623   0.01392  -0.01422   0.08690  -0.07851
  50   37357.4    267.7   0.047856323   0.42173  -0.07599  -0.63335   0.12176
  51   37512.8    266.6   0.100142386   0.87885  -0.07272  -0.87350   0.33251
  52   37820.8    264.4   0.021115691   0.18380   0.40126   0.01337   0.15038
  53   37941.1    263.6   0.008297098   0.07199   0.01199   0.16203  -0.21353
  54   38683.4    258.5   0.139735465   1.18921  -1.06833   0.06049  -0.21029
  55   38875.0    257.2   0.047276408   0.40036   0.60883  -0.17211   0.00772
  56   38933.1    256.9   0.000042991   0.00036  -0.00044  -0.00147   0.01900
  57   38962.0    256.7   0.026329802   0.22248  -0.22995  -0.39758   0.10737
  58   39061.0    256.0   0.145343372   1.22498  -0.91139   0.58807  -0.22027
  59   39573.5    252.7   0.036660542   0.30498  -0.46190  -0.28702   0.09617
  60   39997.0    250.0   0.003093803   0.02546  -0.08643  -0.12738   0.04205

-----------------------------------------------------------------------------
         ABSORPTION SPECTRUM VIA TRANSITION VELOCITY DIPOLE MOMENTS
-----------------------------------------------------------------------------
State   Energy  Wavelength   fosc         P2         PX        PY        PZ  
        (cm-1)    (nm)                  (au**2)     (au)      (au)      (au) 
-----------------------------------------------------------------------------
   0   10447.6    957.2   0.559614836   0.03996   0.19123  -0.05093   0.02822
   1   13061.2    765.6   0.399794623   0.03569   0.16960  -0.06796   0.04803
   2   16416.8    609.1   0.214584722   0.02408   0.10040   0.10759  -0.04919
   3   17261.2    579.3   0.866155079   0.10218   0.29811   0.10995  -0.03498
   4   19316.2    517.7   0.224524018   0.02964  -0.09567   0.12642  -0.06713
   5   20276.5    493.2   0.000007241   0.00000  -0.00096  -0.00015   0.00023
   6   20661.4    484.0   1.315183011   0.18572  -0.36373   0.18369  -0.14026
   7   22909.4    436.5   0.001731258   0.00027   0.01642   0.00012  -0.00122
   8   23067.0    433.5   0.123862622   0.01953   0.00931  -0.12916   0.05252
   9   24321.7    411.2   0.461177575   0.07666  -0.12010   0.23585  -0.08129
  10   24968.2    400.5   0.003699924   0.00063   0.02347   0.00224  -0.00868
  11   25718.2    388.8   0.009566880   0.00168   0.01579   0.02654  -0.02698
  12   25804.9    387.5   0.019440782   0.00343   0.02391  -0.05067   0.01700
  13   26700.1    374.5   0.280280320   0.05115   0.21983   0.05306   0.00221
  14   26994.0    370.5   0.057112735   0.01054  -0.04739  -0.08337  -0.03661
  15   27070.2    369.4   0.161175268   0.02982   0.16088   0.04466   0.04408
  16   28319.3    353.1   0.080820523   0.01564   0.09343  -0.08269   0.00866
  17   28472.2    351.2   0.000091934   0.00002  -0.00006   0.00163   0.00390
  18   28854.9    346.6   0.013702328   0.00270  -0.03866  -0.02378  -0.02533
  19   29171.4    342.8   0.075435485   0.01504   0.11218   0.03237   0.03752
  20   29768.8    335.9   0.040349662   0.00821  -0.01030   0.08446  -0.03113
  21   30493.6    327.9   0.225667556   0.04703  -0.07821  -0.19765   0.04298
  22   31000.0    322.6   0.357922681   0.07583   0.09185   0.25701  -0.03664
  23   31255.5    319.9   0.329344738   0.07035   0.09742   0.24584  -0.02063
  24   31409.6    318.4   0.251025605   0.05389  -0.15596  -0.16650   0.04293
  25   31453.8    317.9   0.039252630   0.00844  -0.06159  -0.02689  -0.06262
  26   31605.7    316.4   0.035615597   0.00769  -0.08274  -0.01698   0.02365
  27   32002.5    312.5   0.421685589   0.09223   0.27479   0.11529   0.05858
  28   32176.5    310.8   0.449381374   0.09882  -0.05646  -0.30864   0.01937
  29   32343.8    309.2   0.000015034   0.00000  -0.00050  -0.00082  -0.00155
  30   32559.0    307.1   0.159482780   0.03549   0.18090   0.04141   0.03241
  31   32907.0    303.9   0.025847799   0.00581   0.03188   0.06902  -0.00577
  32   33034.2    302.7   0.044119978   0.00996  -0.05023   0.08586  -0.00813
  33   33122.4    301.9   0.165905609   0.03756  -0.05396   0.17797  -0.05453
  34   33181.9    301.4   0.004543264   0.00103   0.01173  -0.02851   0.00893
  35   33884.5    295.1   0.078625935   0.01821  -0.13485   0.00483   0.00040
  36   34043.5    293.7   0.008694194   0.00202  -0.01541   0.03614  -0.02190
  37   34159.9    292.7   0.001231493   0.00029   0.00379  -0.00757  -0.01469
  38   34216.5    292.3   0.059022314   0.01380   0.05522   0.10245  -0.01605
  39   34461.1    290.2   0.364095687   0.08575   0.28626  -0.02811   0.05493
  40   34737.3    287.9   0.025651549   0.00609   0.07053   0.01553   0.02957
  41   35117.4    284.8   0.110461620   0.02651   0.15797   0.01538  -0.03634
  42   35148.8    284.5   0.242228653   0.05819   0.13608   0.19747  -0.02604
  43   35541.6    281.4   0.079086718   0.01921   0.00762  -0.13824   0.00656
  44   35725.1    279.9   0.120651627   0.02946  -0.17128  -0.00494  -0.00992
  45   36070.8    277.2   0.014407018   0.00355   0.03683  -0.04652   0.00557
  46   36433.6    274.5   0.053542382   0.01333   0.03654   0.10863  -0.01403
  47   36642.4    272.9   0.159426835   0.03993   0.08924  -0.16093   0.07788
  48   36931.2    270.8   0.061929719   0.01563  -0.06880  -0.10438   0.00108
  49   37124.8    269.4   0.001373571   0.00035  -0.00212   0.01389  -0.01230
  50   37357.4    267.7   0.042889122   0.01095  -0.01149  -0.10218   0.01943
  51   37512.8    266.6   0.086058059   0.02206  -0.00674  -0.13850   0.05326
  52   37820.8    264.4   0.019180108   0.00496   0.06583  -0.00180   0.02492
  53   37941.1    263.6   0.007652979   0.00198   0.00161   0.02798  -0.03463
  54   38683.4    258.5   0.118653679   0.03137  -0.17332   0.01223  -0.03434
  55   38875.0    257.2   0.038980187   0.01036   0.09875  -0.02459   0.00062
  56   38933.1    256.9   0.000027156   0.00001  -0.00005  -0.00043   0.00265
  57   38962.0    256.7   0.022701764   0.00605  -0.03528  -0.06689   0.01806
  58   39061.0    256.0   0.118636008   0.03167  -0.14790   0.09269  -0.03474
  59   39573.5    252.7   0.034430147   0.00931  -0.08546  -0.04270   0.01366
  60   39997.0    250.0   0.002752065   0.00075  -0.01789  -0.01970   0.00664

-------------------------------------------------------------------
                             CD SPECTRUM
-------------------------------------------------------------------
State   Energy Wavelength       R         MX        MY        MZ   
        (cm-1)   (nm)       (1e40*cgs)   (au)      (au)      (au)  
-------------------------------------------------------------------
   0   10447.6    957.2    -45.67069  -0.40725  -0.95896   1.39649
   1   13061.2    765.6    -14.14056  -0.79789  -1.25495   1.22180
   2   16416.8    609.1     68.74783   0.85229   1.86918   6.31183
   3   17261.2    579.3    -278.59297   0.79882   1.48072   9.53904
   4   19316.2    517.7    135.38607   0.90961   2.38320   3.76634
   5   20276.5    493.2     -0.33500  -0.17459   0.01943  -0.02918
   6   20661.4    484.0    234.60830   1.64108   4.60630   2.28934
   7   22909.4    436.5     -2.82478   0.06320  -0.05845  -0.06437
   8   23067.0    433.5      0.00460  -0.95628  -2.08446  -5.02220
   9   24321.7    411.2    -62.79917   1.75258   2.89860   5.31722
  10   24968.2    400.5     20.36789  -0.06980   0.20386   1.01710
  11   25718.2    388.8     65.67218   0.26090   1.13828   2.52663
  12   25804.9    387.5    -19.02589  -0.48085  -0.62423  -0.72703
  13   26700.1    374.5    -150.21978   0.32981  -0.00588   4.86141
  14   26994.0    370.5    115.89890  -0.63659   1.00762   0.38864
  15   27070.2    369.4    -11.17888   0.32483  -1.48129   0.54293
  16   28319.3    353.1    101.86034  -0.57094   0.18290   1.60181
  17   28472.2    351.2      0.00997  -0.01264  -0.08513   0.03198
  18   28854.9    346.6     17.82677  -0.02628   0.79855  -0.31572
  19   29171.4    342.8     53.74005   0.13505  -1.39446  -0.12765
  20   29768.8    335.9     19.50256   0.45081   0.92155   2.62569
  21   30493.6    327.9     38.58447  -1.07329  -0.43291  -4.61461
  22   31000.0    322.6    -248.35699   1.77376   0.67672   5.35548
  23   31255.5    319.9    -324.35068   1.79630   0.37914   4.39123
  24   31409.6    318.4     60.95275  -0.80167  -0.81866  -6.93210
  25   31453.8    317.9    461.34339  -0.33330   2.41897   3.54127
  26   31605.7    316.4    168.69390   0.36292  -0.07180  -2.89175
  27   32002.5    312.5    -79.26220   0.74892  -2.26651   1.92833
  28   32176.5    310.8    -174.74677  -2.45542  -0.06687  -2.80264
  29   32343.8    309.2     -0.00049   0.01004   0.03129  -0.01959
  30   32559.0    307.1    -61.53527   0.31025  -1.29619   1.20120
  31   32907.0    303.9    -23.15609   0.60144  -0.01863   0.79822
  32   33034.2    302.7     -6.65610   0.58044   0.38143  -0.23077
  33   33122.4    301.9     69.98016   1.13684   0.98798   2.85259
  34   33181.9    301.4     18.90286  -0.73005   0.17053   0.11560
  35   33884.5    295.1     46.43662   0.19622   0.05524  -2.75388
  36   34043.5    293.7     15.42533   0.31617   0.95474   1.78595
  37   34159.9    292.7     -3.00473   0.13258   0.24737  -0.20800
  38   34216.5    292.3    -21.67784   0.65514   0.17080   2.29186
  39   34461.1    290.2    -84.23757  -0.38230  -2.02588   1.87914
  40   34737.3    287.9     74.63131  -0.01956  -1.32816  -0.81444
  41   35117.4    284.8    312.58858   0.08929   1.60986   6.45139
  42   35148.8    284.5    -362.13350   1.56705   0.72181   5.20607
  43   35541.6    281.4     81.61208  -1.38034   0.31009   0.59766
  44   35725.1    279.9    -38.82577   0.03464   0.59103  -2.38801
  45   36070.8    277.2      2.04209  -0.81004  -0.55155   0.50429
  46   36433.6    274.5    -93.96199   0.56442   0.87394   4.28793
  47   36642.4    272.9    105.74292  -1.15077  -3.03199  -5.86342
  48   36931.2    270.8    -149.96144  -0.69610  -0.43044  -3.30026
  49   37124.8    269.4      6.78512   0.14070   0.40290   0.78706
  50   37357.4    267.7    -58.46154  -0.95474  -0.60553  -1.70871
  51   37512.8    266.6    -42.19135  -1.13096  -1.97082  -4.88631
  52   37820.8    264.4     34.95951  -0.10463  -1.05673  -0.61305
  53   37941.1    263.6     79.42169   0.22606   1.14607   2.46023
  54   38683.4    258.5    -22.18950   0.50471   0.74246  -2.79808
  55   38875.0    257.2     39.30410  -0.33733  -0.14721   1.72340
  56   38933.1    256.9     -0.04051  -0.03874  -0.04850   0.00440
  57   38962.0    256.7    -17.15642  -0.58141  -0.19196  -1.27813
  58   39061.0    256.0     30.41278   1.10891   0.98797  -1.36484
  59   39573.5    252.7    -31.53170  -0.49625  -0.44301  -2.31470
  60   39997.0    250.0     -6.06009  -0.24700  -0.28820  -0.76939

sTD-DFT done

Total run time:        3.584 sec

           *** ORCA-CIS/TD-DFT FINISHED WITHOUT ERROR ***

-------------------------   --------------------
FINAL SINGLE POINT ENERGY     -8159.448664234043
-------------------------   --------------------


                            ***************************************
                            *     ORCA property calculations      *
                            ***************************************

                                    ---------------------
                                    Active property flags
                                    ---------------------
   (+) Dipole Moment


------------------------------------------------------------------------------
                       ORCA ELECTRIC PROPERTIES CALCULATION
------------------------------------------------------------------------------

Dipole Moment Calculation                       ... on
Quadrupole Moment Calculation                   ... off
Polarizability Calculation                      ... off
GBWName                                         ... xtbopt.gbw
Electron density file                           ... xtbopt.scfp
The origin for moment calculation is the CENTER OF MASS  = (-18.903318, 10.240448  5.185122)

-------------
DIPOLE MOMENT
-------------
                                X             Y             Z
Electronic contribution:    180.34269       3.73003      42.81715
Nuclear contribution   :   -180.67843       0.27132     -43.39225
                        -----------------------------------------
Total Dipole Moment    :     -0.33574       4.00135      -0.57510
                        -----------------------------------------
Magnitude (a.u.)       :      4.05638
Magnitude (Debye)      :     10.31050



--------------------
Rotational spectrum 
--------------------
 
Rotational constants in cm-1:     0.001286     0.000156     0.000141 
Rotational constants in MHz :    38.549952     4.678317     4.237657 

 Dipole components along the rotational axes: 
x,y,z [a.u.] :    -1.241233     3.831068    -0.486303 
x,y,z [Debye]:    -3.154963     9.737802    -1.236084 

 

Timings for individual modules:

Sum of individual times         ...      568.927 sec (=   9.482 min)
GTO integral calculation        ...        2.979 sec (=   0.050 min)   0.5 %
SCF iterations                  ...      561.569 sec (=   9.359 min)  98.7 %
CIS module                      ...        4.379 sec (=   0.073 min)   0.8 %
                             ****ORCA TERMINATED NORMALLY****
TOTAL RUN TIME: 0 days 0 hours 9 minutes 30 seconds 40 msec
