
                                 *****************
                                 * O   R   C   A *
                                 *****************

           --- An Ab Initio, DFT and Semiempirical electronic structure package ---

                  #######################################################
                  #                        -***-                        #
                  #          Department of theory and spectroscopy      #
                  #               Directorship: Frank Neese             #
                  #        Max Planck Institute fuer Kohlenforschung    #
                  #                Kaiser Wilhelm Platz 1               #
                  #                 D-45470 Muelheim/Ruhr               #
                  #                      Germany                        #
                  #                                                     #
                  #                  All rights reserved                #
                  #                        -***-                        #
                  #######################################################


                         Program Version 4.2.0 -  RELEASE  -


 With contributions from (in alphabetic order):
   Daniel Aravena         : Magnetic Suceptibility
   Michael Atanasov       : Ab Initio Ligand Field Theory (pilot matlab implementation)
   Alexander A. Auer      : GIAO ZORA, VPT2
   Ute Becker             : Parallelization
   Giovanni Bistoni       : ED, misc. LED, open-shell LED, HFLED
   Martin Brehm           : Molecular dynamics
   Dmytro Bykov           : SCF Hessian
   Vijay G. Chilkuri      : MRCI spin determinant printing, contributions to CSF-ICE
   Dipayan Datta          : RHF DLPNO-CCSD density
   Achintya Kumar Dutta   : EOM-CC, STEOM-CC
   Dmitry Ganyushin       : Spin-Orbit,Spin-Spin,Magnetic field MRCI
   Miquel Garcia          : C-PCM Hessian, Gaussian charge scheme
   Yang Guo               : DLPNO-NEVPT2, CIM, IAO-localization
   Andreas Hansen         : Spin unrestricted coupled pair/coupled cluster methods
   Benjamin Helmich-Paris : CASSCF linear response (MC-RPA)
   Lee Huntington         : MR-EOM, pCC
   Robert Izsak           : Overlap fitted RIJCOSX, COSX-SCS-MP3, EOM
   Christian Kollmar      : KDIIS, OOCD, Brueckner-CCSD(T), CCSD density
   Simone Kossmann        : Meta GGA functionals, TD-DFT gradient, OOMP2, MP2 Hessian
   Martin Krupicka        : AUTO-CI
   Lucas Lang             : DCDCAS
   Dagmar Lenk            : GEPOL surface, SMD
   Dimitrios Liakos       : Extrapolation schemes; Compound Job, initial MDCI parallelization
   Dimitrios Manganas     : Further ROCIS development; embedding schemes
   Dimitrios Pantazis     : SARC Basis sets
   Taras Petrenko         : DFT Hessian,TD-DFT gradient, ASA, ECA, R-Raman, ABS, FL, XAS/XES, NRVS
   Peter Pinski           : DLPNO-MP2, DLPNO-MP2 Gradient
   Christoph Reimann      : Effective Core Potentials
   Marius Retegan         : Local ZFS, SOC
   Christoph Riplinger    : Optimizer, TS searches, QM/MM, DLPNO-CCSD(T), (RO)-DLPNO pert. Triples
   Tobias Risthaus        : Range-separated hybrids, TD-DFT gradient, RPA, STAB
   Michael Roemelt        : Original ROCIS implementation
   Masaaki Saitow         : Open-shell DLPNO-CCSD energy and density
   Barbara Sandhoefer     : DKH picture change effects
   Avijit Sen             : IP-ROCIS
   Kantharuban Sivalingam : CASSCF convergence, NEVPT2, FIC-MRCI
   Bernardo de Souza      : ESD, SOC TD-DFT
   Georgi Stoychev        : AutoAux, RI-MP2 NMR
   Willem Van den Heuvel  : Paramagnetic NMR
   Boris Wezisla          : Elementary symmetry handling
   Frank Wennmohs         : Technical directorship


 We gratefully acknowledge several colleagues who have allowed us to
 interface, adapt or use parts of their codes:
   Stefan Grimme, W. Hujo, H. Kruse,             : VdW corrections, initial TS optimization,
                  C. Bannwarth                     DFT functionals, gCP, sTDA/sTD-DF
   Ed Valeev, F. Pavosevic, A. Kumar             : LibInt (2-el integral package), F12 methods
   Garnet Chan, S. Sharma, J. Yang, R. Olivares  : DMRG
   Ulf Ekstrom                                   : XCFun DFT Library
   Mihaly Kallay                                 : mrcc  (arbitrary order and MRCC methods)
   Andreas Klamt, Michael Diedenhofen            : otool_cosmo (COSMO solvation model)
   Jiri Pittner, Ondrej Demel                    : Mk-CCSD
   Frank Weinhold                                : gennbo (NPA and NBO analysis)
   Christopher J. Cramer and Donald G. Truhlar   : smd solvation model
   Lars Goerigk                                  : TD-DFT with DH, B97 family of functionals
   V. Asgeirsson, H. Jonsson                     : NEB implementation
   FAccTs GmbH                                   : IRC, NEB, NEB-TS, Multilevel, MM, QM/MM, CI optimization
   S Lehtola, MJT Oliveira, MAL Marques          : LibXC Library


 Your calculation uses the libint2 library for the computation of 2-el integrals
 For citations please refer to: http://libint.valeyev.net

 Your ORCA version has been built with support for libXC version: 4.2.3
 For citations please refer to: https://tddft.org/programs/libxc/

 This ORCA versions uses:
   CBLAS   interface :  Fast vector & matrix operations
   LAPACKE interface :  Fast linear algebra routines
   SCALAPACK package :  Parallel linear algebra routines


XCFun DFT library Copyright 2009-2010 Ulf Ekstrom and contributors.
See http://admol.org/xcfun for more information. This is free soft-
ware; see the source code for copying conditions. There is ABSOLUTELY
NO WARRANTY; not even for MERCHANTABILITY or FITNESS FOR A PARTICULAR
PURPOSE. For details see the documentation. Scientific users of this 
library should cite U. Ekstrom, L. Visscher, R. Bast, A. J. Thorvald-
sen and K. Ruud; J.Chem.Theor.Comp. 2010, DOI: 10.1021/ct100117s
XCFun Version 0.99 
----- Orbital basis set information -----
Your calculation utilizes the basis: def2-SVP
   F. Weigend and R. Ahlrichs, Phys. Chem. Chem. Phys. 7, 3297 (2005).

----- AuxJ basis set information -----
Your calculation utilizes the auxiliary basis: def2/J
   F. Weigend, Phys. Chem. Chem. Phys. 8, 1057 (2006).

================================================================================
                                        WARNINGS
                       Please study these warnings very carefully!
================================================================================

INFO   : Checking CIS options ...

WARNING: CIS/ROCIS methods need fully converged wavefunctions
  ===> : Setting SCFConvForced true
         You can overwrite this default with %scf ConvForced false 


INFO   : the flag for use of LIBINT has been found!

================================================================================
                                       INPUT FILE
================================================================================
NAME = xtbopt.inp
|  1> # ORCA input file
|  2> # SCF done       -250.524124057000          0.000388502396
|  3> ! CAM-B3LYP def2-SVP def2/J RIJCOSX Grid4 TightSCF
|  4> %maxcore 5000
|  5> %tddft
|  6>     Mode sTDDFT
|  7>     Ethresh 5.0
|  8>     maxcore 5000
|  9> end
| 10> 
| 11> %pal
| 12>   nprocs 6
| 13>   end
| 14> * xyz 0 1
| 15>    C       -0.95276        -1.74099        -1.92568
| 16>    C       -0.58114        -0.83058        -2.91533
| 17>    C       -1.60203        -0.09518        -3.73250
| 18>    O       -1.37122         0.28293        -4.84602
| 19>    O       -2.79288         0.11835        -3.16013
| 20>    C        0.77403        -0.61921        -3.21411
| 21>    C        1.18969         0.31828        -4.19352
| 22>    N        1.64677         1.06840        -4.92872
| 23>    C        1.77033        -1.32098        -2.52539
| 24>    C        1.38370        -2.21489        -1.55372
| 25>    C        0.03070        -2.42715        -1.23407
| 26>    C       -0.04805        -3.42603        -0.16371
| 27>    C       -1.21220        -3.81713         0.46380
| 28>    C       -2.47210        -3.26287         0.16999
| 29>    N       -3.51245        -2.81619        -0.02661
| 30>    C       -1.30980        -4.77364         1.49132
| 31>    N       -1.46564        -5.54548         2.33059
| 32>    C        1.29263        -3.85949         0.11542
| 33>    C        2.22166        -3.10529        -0.71514
| 34>    O        3.43887        -3.17585        -0.73375
| 35>    C        1.63627        -4.83818         1.03581
| 36>    C        2.86670        -5.34940         1.40023
| 37>    S        4.41869        -4.89818         0.74604
| 38>    C        5.25384        -6.08019         1.70449
| 39>    C        4.37586        -6.76189         2.57856
| 40>    C        3.02363        -6.36688         2.39192
| 41>    C        2.00656        -6.94846         3.14890
| 42>    C        2.31564        -7.89078         4.11119
| 43>    S        1.13838        -8.66618         5.13906
| 44>    C       -0.46856        -8.02321         4.53680
| 45>    C       -1.58091        -8.68205         5.32922
| 46>    C        3.67089        -8.23311         4.33962
| 47>    S        4.04362        -9.40409         5.62520
| 48>    C        4.94002        -8.30230         6.78256
| 49>    C        4.03392        -7.22426         7.34138
| 50>    C        4.67878        -7.68687         3.58992
| 51>    C        6.62997        -6.23727         1.46929
| 52>    C        7.37943        -7.34847         1.75162
| 53>    C        8.74334        -7.50742         1.46385
| 54>    S        9.38201        -9.11381         1.33335
| 55>    C       10.94306        -8.57586         0.77512
| 56>    C       10.98825        -7.15896         0.76798
| 57>    C        9.75756        -6.56280         1.18354
| 58>    C        9.69324        -5.17826         1.37801
| 59>    C       10.77069        -4.37298         1.08526
| 60>    S       10.58121        -2.65164         1.45224
| 61>    C       12.13088        -2.25314         2.36381
| 62>    C       11.78571        -1.49410         3.62909
| 63>    C       11.93517        -4.94485         0.52248
| 64>    S       13.33038        -3.99609        -0.03494
| 65>    C       12.53488        -2.93049        -1.30605
| 66>    C       13.57154        -1.99090        -1.88638
| 67>    C       12.04818        -6.31287         0.41816
| 68>    C       11.84261        -9.59294         0.42857
| 69>    C       13.08732        -9.47248        -0.13399
| 70>    C       13.96533       -10.50021        -0.50457
| 71>    S       15.54349        -9.99317        -1.03162
| 72>    C       16.10936       -11.61595        -1.27160
| 73>    C       15.07961       -12.53633        -0.95970
| 74>    C       13.86521       -11.91619        -0.54367
| 75>    C       12.75678       -12.73290        -0.29156
| 76>    C       12.85060       -14.10531        -0.37331
| 77>    S       11.35660       -15.00487        -0.05756
| 78>    C       11.26100       -16.15623        -1.49087
| 79>    C        9.86625       -16.10564        -2.08107
| 80>    C       14.08998       -14.71562        -0.67122
| 81>    S       14.34460       -16.47458        -0.67611
| 82>    C       13.96723       -16.86781         1.08096
| 83>    C       14.13269       -18.35684         1.30357
| 84>    C       15.17071       -13.93133        -1.00062
| 85>    C       17.40774       -11.89458        -1.69320
| 86>    C       18.36161       -10.93784        -1.94697
| 87>    C       19.66365       -11.25494        -2.33263
| 88>    C       20.72017       -10.38834        -2.50381
| 89>    C       21.89989       -10.81951        -3.28419
| 90>    O       22.15913       -11.93933        -3.66307
| 91>    C       22.67463        -9.57823        -3.54047
| 92>    C       22.04622        -8.50365        -2.88608
| 93>    C       22.54479        -7.22056        -3.03200
| 94>    C       23.68772        -7.01954        -3.80441
| 95>    C       24.31871        -8.10296        -4.43635
| 96>    C       23.80480        -9.39818        -4.30589
| 97>    C       25.50084        -7.93273        -5.20069
| 98>    N       26.47436        -7.90907        -5.80329
| 99>    C       24.23847        -5.64237        -4.03186
|100>    O       24.80417        -5.33957        -5.04341
|101>    O       24.05783        -4.75772        -3.04291
|102>    C       20.90783        -9.01753        -2.11718
|103>    C       20.32899        -8.34758        -1.06359
|104>    C       19.42357        -8.90627        -0.13989
|105>    N       18.71611        -9.30092         0.67420
|106>    C       20.69253        -7.03634        -0.70134
|107>    N       20.97447        -5.96903        -0.38253
|108>    H       -1.99614        -1.93776        -1.73105
|109>    H       -2.86698        -0.21683        -2.25583
|110>    H        2.81394        -1.16847        -2.75484
|111>    H        0.80346        -5.29104         1.55308
|112>    H        0.98383        -6.64810         2.99852
|113>    H       -0.55163        -8.26422         3.47762
|114>    H       -0.48227        -6.94282         4.67580
|115>    H       -1.55515        -9.76205         5.20287
|116>    H       -2.54145        -8.31127         4.97955
|117>    H       -1.48377        -8.45587         6.38864
|118>    H        5.79611        -7.87961         6.25755
|119>    H        5.29238        -8.97007         7.56719
|120>    H        3.69770        -6.55653         6.54987
|121>    H        4.57012        -6.63773         8.08475
|122>    H        3.16086        -7.67154         7.81043
|123>    H        5.70030        -7.95457         3.80397
|124>    H        7.08587        -5.43820         0.90089
|125>    H        6.87781        -8.23496         2.11482
|126>    H        8.82055        -4.72760         1.82071
|127>    H       12.76454        -1.65778         1.70775
|128>    H       12.62232        -3.19718         2.58805
|129>    H       11.26509        -0.56930         3.39113
|130>    H       12.69868        -1.25107         4.16856
|131>    H       11.14746        -2.09402         4.27408
|132>    H       11.72200        -2.38199        -0.83298
|133>    H       12.13217        -3.59921        -2.06696
|134>    H       13.97918        -1.34351        -1.11310
|135>    H       13.11295        -1.37118        -2.65371
|136>    H       14.39061        -2.55090        -2.33206
|137>    H       12.97968        -6.70355         0.04846
|138>    H       11.47220       -10.58429         0.64200
|139>    H       13.48128        -8.48407        -0.31359
|140>    H       11.79110       -12.31609        -0.06482
|141>    H       11.50316       -17.15709        -1.13588
|142>    H       12.01054       -15.83294        -2.20979
|143>    H        9.12641       -16.39847        -1.33947
|144>    H        9.80226       -16.78840        -2.92567
|145>    H        9.63162       -15.10068        -2.42492
|146>    H       12.94914       -16.54426         1.29217
|147>    H       14.66845       -16.29385         1.68684
|148>    H       13.44215       -18.91768         0.67761
|149>    H       13.93090       -18.59477         2.34565
|150>    H       15.14624       -18.66988         1.06316
|151>    H       16.09791       -14.41290        -1.26710
|152>    H       17.68237       -12.93615        -1.79183
|153>    H       18.07845        -9.89931        -1.84888
|154>    H       19.87316       -12.28508        -2.60143
|155>    H       22.02978        -6.37854        -2.59438
|156>    H       24.28132       -10.23386        -4.79540
|157>    H       23.60957        -5.11643        -2.26401
|158> *
|159> 
|160>                          ****END OF INPUT****
================================================================================

                       ****************************
                       * Single Point Calculation *
                       ****************************

---------------------------------
CARTESIAN COORDINATES (ANGSTROEM)
---------------------------------
  C     -0.952760   -1.740990   -1.925680
  C     -0.581140   -0.830580   -2.915330
  C     -1.602030   -0.095180   -3.732500
  O     -1.371220    0.282930   -4.846020
  O     -2.792880    0.118350   -3.160130
  C      0.774030   -0.619210   -3.214110
  C      1.189690    0.318280   -4.193520
  N      1.646770    1.068400   -4.928720
  C      1.770330   -1.320980   -2.525390
  C      1.383700   -2.214890   -1.553720
  C      0.030700   -2.427150   -1.234070
  C     -0.048050   -3.426030   -0.163710
  C     -1.212200   -3.817130    0.463800
  C     -2.472100   -3.262870    0.169990
  N     -3.512450   -2.816190   -0.026610
  C     -1.309800   -4.773640    1.491320
  N     -1.465640   -5.545480    2.330590
  C      1.292630   -3.859490    0.115420
  C      2.221660   -3.105290   -0.715140
  O      3.438870   -3.175850   -0.733750
  C      1.636270   -4.838180    1.035810
  C      2.866700   -5.349400    1.400230
  S      4.418690   -4.898180    0.746040
  C      5.253840   -6.080190    1.704490
  C      4.375860   -6.761890    2.578560
  C      3.023630   -6.366880    2.391920
  C      2.006560   -6.948460    3.148900
  C      2.315640   -7.890780    4.111190
  S      1.138380   -8.666180    5.139060
  C     -0.468560   -8.023210    4.536800
  C     -1.580910   -8.682050    5.329220
  C      3.670890   -8.233110    4.339620
  S      4.043620   -9.404090    5.625200
  C      4.940020   -8.302300    6.782560
  C      4.033920   -7.224260    7.341380
  C      4.678780   -7.686870    3.589920
  C      6.629970   -6.237270    1.469290
  C      7.379430   -7.348470    1.751620
  C      8.743340   -7.507420    1.463850
  S      9.382010   -9.113810    1.333350
  C     10.943060   -8.575860    0.775120
  C     10.988250   -7.158960    0.767980
  C      9.757560   -6.562800    1.183540
  C      9.693240   -5.178260    1.378010
  C     10.770690   -4.372980    1.085260
  S     10.581210   -2.651640    1.452240
  C     12.130880   -2.253140    2.363810
  C     11.785710   -1.494100    3.629090
  C     11.935170   -4.944850    0.522480
  S     13.330380   -3.996090   -0.034940
  C     12.534880   -2.930490   -1.306050
  C     13.571540   -1.990900   -1.886380
  C     12.048180   -6.312870    0.418160
  C     11.842610   -9.592940    0.428570
  C     13.087320   -9.472480   -0.133990
  C     13.965330  -10.500210   -0.504570
  S     15.543490   -9.993170   -1.031620
  C     16.109360  -11.615950   -1.271600
  C     15.079610  -12.536330   -0.959700
  C     13.865210  -11.916190   -0.543670
  C     12.756780  -12.732900   -0.291560
  C     12.850600  -14.105310   -0.373310
  S     11.356600  -15.004870   -0.057560
  C     11.261000  -16.156230   -1.490870
  C      9.866250  -16.105640   -2.081070
  C     14.089980  -14.715620   -0.671220
  S     14.344600  -16.474580   -0.676110
  C     13.967230  -16.867810    1.080960
  C     14.132690  -18.356840    1.303570
  C     15.170710  -13.931330   -1.000620
  C     17.407740  -11.894580   -1.693200
  C     18.361610  -10.937840   -1.946970
  C     19.663650  -11.254940   -2.332630
  C     20.720170  -10.388340   -2.503810
  C     21.899890  -10.819510   -3.284190
  O     22.159130  -11.939330   -3.663070
  C     22.674630   -9.578230   -3.540470
  C     22.046220   -8.503650   -2.886080
  C     22.544790   -7.220560   -3.032000
  C     23.687720   -7.019540   -3.804410
  C     24.318710   -8.102960   -4.436350
  C     23.804800   -9.398180   -4.305890
  C     25.500840   -7.932730   -5.200690
  N     26.474360   -7.909070   -5.803290
  C     24.238470   -5.642370   -4.031860
  O     24.804170   -5.339570   -5.043410
  O     24.057830   -4.757720   -3.042910
  C     20.907830   -9.017530   -2.117180
  C     20.328990   -8.347580   -1.063590
  C     19.423570   -8.906270   -0.139890
  N     18.716110   -9.300920    0.674200
  C     20.692530   -7.036340   -0.701340
  N     20.974470   -5.969030   -0.382530
  H     -1.996140   -1.937760   -1.731050
  H     -2.866980   -0.216830   -2.255830
  H      2.813940   -1.168470   -2.754840
  H      0.803460   -5.291040    1.553080
  H      0.983830   -6.648100    2.998520
  H     -0.551630   -8.264220    3.477620
  H     -0.482270   -6.942820    4.675800
  H     -1.555150   -9.762050    5.202870
  H     -2.541450   -8.311270    4.979550
  H     -1.483770   -8.455870    6.388640
  H      5.796110   -7.879610    6.257550
  H      5.292380   -8.970070    7.567190
  H      3.697700   -6.556530    6.549870
  H      4.570120   -6.637730    8.084750
  H      3.160860   -7.671540    7.810430
  H      5.700300   -7.954570    3.803970
  H      7.085870   -5.438200    0.900890
  H      6.877810   -8.234960    2.114820
  H      8.820550   -4.727600    1.820710
  H     12.764540   -1.657780    1.707750
  H     12.622320   -3.197180    2.588050
  H     11.265090   -0.569300    3.391130
  H     12.698680   -1.251070    4.168560
  H     11.147460   -2.094020    4.274080
  H     11.722000   -2.381990   -0.832980
  H     12.132170   -3.599210   -2.066960
  H     13.979180   -1.343510   -1.113100
  H     13.112950   -1.371180   -2.653710
  H     14.390610   -2.550900   -2.332060
  H     12.979680   -6.703550    0.048460
  H     11.472200  -10.584290    0.642000
  H     13.481280   -8.484070   -0.313590
  H     11.791100  -12.316090   -0.064820
  H     11.503160  -17.157090   -1.135880
  H     12.010540  -15.832940   -2.209790
  H      9.126410  -16.398470   -1.339470
  H      9.802260  -16.788400   -2.925670
  H      9.631620  -15.100680   -2.424920
  H     12.949140  -16.544260    1.292170
  H     14.668450  -16.293850    1.686840
  H     13.442150  -18.917680    0.677610
  H     13.930900  -18.594770    2.345650
  H     15.146240  -18.669880    1.063160
  H     16.097910  -14.412900   -1.267100
  H     17.682370  -12.936150   -1.791830
  H     18.078450   -9.899310   -1.848880
  H     19.873160  -12.285080   -2.601430
  H     22.029780   -6.378540   -2.594380
  H     24.281320  -10.233860   -4.795400
  H     23.609570   -5.116430   -2.264010

----------------------------
CARTESIAN COORDINATES (A.U.)
----------------------------
  NO LB      ZA    FRAG     MASS         X           Y           Z
   0 C     6.0000    0    12.011   -1.800455   -3.289994   -3.639008
   1 C     6.0000    0    12.011   -1.098195   -1.569569   -5.509175
   2 C     6.0000    0    12.011   -3.027398   -0.179864   -7.053403
   3 O     8.0000    0    15.999   -2.591230    0.534660   -9.157651
   4 O     8.0000    0    15.999   -5.277778    0.223649   -5.971780
   5 C     6.0000    0    12.011    1.462705   -1.170137   -6.073788
   6 C     6.0000    0    12.011    2.248188    0.601462   -7.924604
   7 N     7.0000    0    14.007    3.111944    2.018983   -9.313931
   8 C     6.0000    0    12.011    3.345439   -2.496290   -4.772295
   9 C     6.0000    0    12.011    2.614814   -4.185536   -2.936105
  10 C     6.0000    0    12.011    0.058015   -4.586649   -2.332054
  11 C     6.0000    0    12.011   -0.090801   -6.474258   -0.309367
  12 C     6.0000    0    12.011   -2.290726   -7.213330    0.876455
  13 C     6.0000    0    12.011   -4.671592   -6.165931    0.321235
  14 N     7.0000    0    14.007   -6.637569   -5.321828   -0.050286
  15 C     6.0000    0    12.011   -2.475163   -9.020872    2.818186
  16 N     7.0000    0    14.007   -2.769658  -10.479438    4.404177
  17 C     6.0000    0    12.011    2.442717   -7.293379    0.218112
  18 C     6.0000    0    12.011    4.198329   -5.868148   -1.351419
  19 O     8.0000    0    15.999    6.498523   -6.001487   -1.386587
  20 C     6.0000    0    12.011    3.092102   -9.142835    1.957397
  21 C     6.0000    0    12.011    5.417278  -10.108901    2.646051
  22 S    16.0000    0    32.060    8.350114   -9.256219    1.409811
  23 C     6.0000    0    12.011    9.928319  -11.489894    3.221019
  24 C     6.0000    0    12.011    8.269177  -12.778120    4.872772
  25 C     6.0000    0    12.011    5.713833  -12.031660    4.520074
  26 C     6.0000    0    12.011    3.791849  -13.130686    5.950559
  27 C     6.0000    0    12.011    4.375925  -14.911413    7.769023
  28 S    16.0000    0    32.060    2.151226  -16.376707    9.711416
  29 C     6.0000    0    12.011   -0.885450  -15.161670    8.573310
  30 C     6.0000    0    12.011   -2.987487  -16.406697   10.070766
  31 C     6.0000    0    12.011    6.936977  -15.558323    8.200693
  32 S    16.0000    0    32.060    7.641334  -17.771155   10.630087
  33 C     6.0000    0    12.011    9.335285  -15.689073   12.817181
  34 C     6.0000    0    12.011    7.623004  -13.651873   13.873198
  35 C     6.0000    0    12.011    8.841613  -14.526079    6.783966
  36 C     6.0000    0    12.011   12.528828  -11.786732    2.776556
  37 C     6.0000    0    12.011   13.945102  -13.886596    3.310082
  38 C     6.0000    0    12.011   16.522518  -14.186968    2.766276
  39 S    16.0000    0    32.060   17.729429  -17.222605    2.519666
  40 C     6.0000    0    12.011   20.679386  -16.206027    1.464765
  41 C     6.0000    0    12.011   20.764783  -13.528474    1.451272
  42 C     6.0000    0    12.011   18.439116  -12.401895    2.236566
  43 C     6.0000    0    12.011   18.317569   -9.785493    2.604062
  44 C     6.0000    0    12.011   20.353654   -8.263735    2.050844
  45 S    16.0000    0    32.060   19.995589   -5.010873    2.744336
  46 C     6.0000    0    12.011   22.924041   -4.257818    4.466954
  47 C     6.0000    0    12.011   22.271764   -2.823440    6.857986
  48 C     6.0000    0    12.011   22.554203   -9.344412    0.987344
  49 S    16.0000    0    32.060   25.190767   -7.551516   -0.066027
  50 C     6.0000    0    12.011   23.687490   -5.537824   -2.468077
  51 C     6.0000    0    12.011   25.646494   -3.762256   -3.564742
  52 C     6.0000    0    12.011   22.767761  -11.929595    0.790208
  53 C     6.0000    0    12.011   22.379290  -18.128029    0.809880
  54 C     6.0000    0    12.011   24.731451  -17.900393   -0.253204
  55 C     6.0000    0    12.011   26.390649  -19.842521   -0.953499
  56 S    16.0000    0    32.060   29.372939  -18.884355   -1.949479
  57 C     6.0000    0    12.011   30.442279  -21.950964   -2.402976
  58 C     6.0000    0    12.011   28.496333  -23.690230   -1.813570
  59 C     6.0000    0    12.011   26.201450  -22.518336   -1.027387
  60 C     6.0000    0    12.011   24.106821  -24.061694   -0.550969
  61 C     6.0000    0    12.011   24.284115  -26.655173   -0.705454
  62 S    16.0000    0    32.060   21.460864  -28.355095   -0.108773
  63 C     6.0000    0    12.011   21.280206  -30.530850   -2.817336
  64 C     6.0000    0    12.011   18.644510  -30.435249   -3.932652
  65 C     6.0000    0    12.011   26.626203  -27.808492   -1.268422
  66 S    16.0000    0    32.060   27.107366  -31.132444   -1.277663
  67 C     6.0000    0    12.011   26.394240  -31.875541    2.042718
  68 C     6.0000    0    12.011   26.706914  -34.689400    2.463390
  69 C     6.0000    0    12.011   28.668487  -26.326398   -1.890898
  70 C     6.0000    0    12.011   32.895861  -22.477499   -3.199684
  71 C     6.0000    0    12.011   34.698414  -20.669522   -3.679240
  72 C     6.0000    0    12.011   37.158913  -21.268754   -4.408032
  73 C     6.0000    0    12.011   39.155447  -19.631118   -4.731515
  74 C     6.0000    0    12.011   41.384794  -20.445911   -6.206220
  75 O     8.0000    0    15.999   41.874687  -22.562064   -6.922199
  76 C     6.0000    0    12.011   42.848841  -18.100232   -6.690519
  77 C     6.0000    0    12.011   41.661318  -16.069570   -5.453901
  78 C     6.0000    0    12.011   42.603479  -13.644881   -5.729650
  79 C     6.0000    0    12.011   44.763304  -13.265008   -7.189293
  80 C     6.0000    0    12.011   45.955702  -15.312375   -8.383487
  81 C     6.0000    0    12.011   44.984553  -17.759986   -8.136953
  82 C     6.0000    0    12.011   48.189604  -14.990687   -9.827880
  83 N     7.0000    0    14.007   50.029290  -14.945976  -10.966629
  84 C     6.0000    0    12.011   45.804070  -10.662534   -7.619111
  85 O     8.0000    0    15.999   46.873088  -10.090325   -9.530664
  86 O     8.0000    0    15.999   45.462710   -8.990788   -5.750267
  87 C     6.0000    0    12.011   39.510073  -17.040662   -4.000890
  88 C     6.0000    0    12.011   38.416224  -15.774640   -2.009894
  89 C     6.0000    0    12.011   36.705228  -16.830411   -0.264354
  90 N     7.0000    0    14.007   35.368322  -17.576192    1.274053
  91 C     6.0000    0    12.011   39.103215  -13.296756   -1.325341
  92 N     7.0000    0    14.007   39.636004  -11.279832   -0.722877
  93 H     1.0000    0     1.008   -3.772158   -3.661836   -3.271210
  94 H     1.0000    0     1.008   -5.417807   -0.409749   -4.262901
  95 H     1.0000    0     1.008    5.317576   -2.208088   -5.205893
  96 H     1.0000    0     1.008    1.518319   -9.998617    2.934896
  97 H     1.0000    0     1.008    1.859169  -12.563088    5.666382
  98 H     1.0000    0     1.008   -1.042430  -15.617113    6.571749
  99 H     1.0000    0     1.008   -0.911358  -13.120028    8.835981
 100 H     1.0000    0     1.008   -2.938808  -18.447601    9.831999
 101 H     1.0000    0     1.008   -4.802644  -15.706024    9.409986
 102 H     1.0000    0     1.008   -2.803919  -15.979279   12.072780
 103 H     1.0000    0     1.008   10.953061  -14.890305   11.825056
 104 H     1.0000    0     1.008   10.001149  -16.950976   14.299917
 105 H     1.0000    0     1.008    6.987640  -12.390046   12.377461
 106 H     1.0000    0     1.008    8.636275  -12.543492   15.277963
 107 H     1.0000    0     1.008    5.973160  -14.497110   14.759574
 108 H     1.0000    0     1.008   10.772006  -15.031959    7.188462
 109 H     1.0000    0     1.008   13.390354  -10.276709    1.702435
 110 H     1.0000    0     1.008   12.997177  -15.561819    3.996431
 111 H     1.0000    0     1.008   16.668424   -8.933869    3.440643
 112 H     1.0000    0     1.008   24.121485   -3.132750    3.227180
 113 H     1.0000    0     1.008   23.852728   -6.041795    4.890706
 114 H     1.0000    0     1.008   21.287935   -1.075821    6.408307
 115 H     1.0000    0     1.008   23.997027   -2.364180    7.877437
 116 H     1.0000    0     1.008   21.065646   -3.957124    8.076841
 117 H     1.0000    0     1.008   22.151370   -4.501309   -1.574104
 118 H     1.0000    0     1.008   22.926479   -6.801521   -3.905988
 119 H     1.0000    0     1.008   26.416822   -2.538866   -2.103454
 120 H     1.0000    0     1.008   24.779884   -2.591155   -5.014785
 121 H     1.0000    0     1.008   27.194312   -4.820502   -4.406955
 122 H     1.0000    0     1.008   24.528041  -12.667874    0.091576
 123 H     1.0000    0     1.008   21.679316  -20.001409    1.213204
 124 H     1.0000    0     1.008   25.475927  -16.032569   -0.592599
 125 H     1.0000    0     1.008   22.281950  -23.274037   -0.122492
 126 H     1.0000    0     1.008   21.737822  -32.422201   -2.146502
 127 H     1.0000    0     1.008   22.696631  -29.919920   -4.175898
 128 H     1.0000    0     1.008   17.246415  -30.988617   -2.531231
 129 H     1.0000    0     1.008   18.523587  -31.725478   -5.528715
 130 H     1.0000    0     1.008   18.201124  -28.536150   -4.582435
 131 H     1.0000    0     1.008   24.470328  -31.264120    2.441847
 132 H     1.0000    0     1.008   27.719353  -30.790914    3.187666
 133 H     1.0000    0     1.008   25.401982  -35.749234    1.280497
 134 H     1.0000    0     1.008   26.325586  -35.139023    4.432636
 135 H     1.0000    0     1.008   28.622246  -35.280960    2.009081
 136 H     1.0000    0     1.008   30.420641  -27.236434   -2.394472
 137 H     1.0000    0     1.008   33.414837  -24.445781   -3.386068
 138 H     1.0000    0     1.008   34.163319  -18.706985   -3.493877
 139 H     1.0000    0     1.008   37.554830  -23.215437   -4.915990
 140 H     1.0000    0     1.008   41.630251  -12.053694   -4.902668
 141 H     1.0000    0     1.008   45.885045  -19.339193   -9.061993
 142 H     1.0000    0     1.008   44.615621   -9.668651   -4.278359

--------------------------------
INTERNAL COORDINATES (ANGSTROEM)
--------------------------------
 C      0   0   0     0.000000000000     0.00000000     0.00000000
 C      1   0   0     1.395118244093     0.00000000     0.00000000
 C      2   1   0     1.500265430182   121.66807068     0.00000000
 O      3   2   1     1.198401943673   121.98544479   207.85889680
 O      3   2   1     1.338404348581   116.79003784    27.66663434
 C      2   1   3     1.403720945986   120.42492306   182.75185976
 C      6   2   1     1.418063709359   121.97407999   181.35139834
 N      7   6   2     1.145478581554   173.30418308   162.87459213
 C      6   2   1     1.399796435665   120.45848091     0.14174487
 C      9   6   2     1.375754496231   118.24393909   359.90218026
 C      1   2   3     1.384316982956   119.24993381   177.71707955
 C     11   1   2     1.466162796725   131.62599449   180.04745888
 C     12  11   1     1.379120456160   124.80030814   354.43569788
 C     13  12  11     1.407436134857   123.29669223   357.99472523
 N     14  13  12     1.149131282709   177.74538359   212.96360715
 C     13  12  11     1.407208048051   125.70026390   179.94807689
 N     16  13  12     1.150824584418   176.17879458   182.08475891
 C     12  11   1     1.436392700796   107.29710425   176.35859515
 C     18  12  11     1.456620847887   109.16234360     2.69834733
 O     19  18  12     1.219395436190   127.98072296   178.22653307
 C     18  12  11     1.386737292280   124.97669363   182.46681627
 C     21  18  12     1.381342032119   131.07296094   179.89368640
 S     22  21  18     1.743627541822   126.73367618   358.81746790
 C     23  22  21     1.735871413757    92.57136256   183.17531710
 C     24  23  22     1.414058745350   111.76770279   356.43141655
 C     25  24  23     1.421053610037   112.06341651     3.68118204
 C     26  25  24     1.394878274868   120.44161128   178.87100626
 C     27  26  25     1.381846399894   119.94369030     1.64664080
 S     28  27  26     1.744621163605   124.22433301   178.84280406
 C     29  28  27     1.832589340824   104.01322131     3.83757653
 C     30  29  28     1.516351583407   108.60614560   177.63645821
 C     28  27  26     1.416358943312   119.41642644     1.47692617
 S     32  28  27     1.778436883811   118.44181518   177.76724311
 C     33  32  28     1.832199861833    99.39340925   246.42649549
 C     34  33  32     1.515079946405   111.60918732    65.02205135
 C     32  28  27     1.369770228798   121.29248955   357.43729916
 C     24  23  22     1.404893925996   117.06235506   174.37764635
 C     37  24  23     1.369732076174   126.30997453   203.10121403
 C     38  37  24     1.402970834871   125.56014442   177.44192046
 S     39  38  37     1.733614273995   118.59191949   202.59693537
 C     40  39  38     1.742953825521    93.90326259   172.66641517
 C     41  40  39     1.417638432641   109.79435088     3.41961726
 C     39  38  37     1.414044853921   131.47202602    19.24215311
 C     43  39  38     1.399609465137   126.89347120    13.44223357
 C     44  43  39     1.376617936611   120.87420689   178.68552495
 S     45  44  43     1.770194448754   116.16527521   182.87367012
 C     46  45  44     1.841531760193   102.88348899   131.66486879
 C     47  46  45     1.515327531889   109.27086987   228.39733240
 C     45  44  43     1.414132347307   119.51002955     2.96524764
 S     49  45  44     1.776928118439   123.74419471   174.21876044
 C     50  49  45     1.839577191123   100.74896758   300.85335012
 C     51  50  49     1.514686843080   109.15381932   178.15740091
 C     49  45  44     1.376638167021   119.97493648   352.28562470
 C     41  40  39     1.401334660743   115.47536716   184.11552365
 C     54  41  40     1.371235701585   128.34461655   174.40150001
 C     55  54  41     1.401591969655   127.78441778   181.61484046
 S     56  55  54     1.739385020546   115.76870057   186.50342628
 C     57  56  55     1.735285044510    93.73653800   178.26833311
 C     58  57  56     1.415897601135   109.89286001     0.62418822
 C     56  55  54     1.420053585186   133.96899715     6.01841549
 C     60  56  55     1.399711306341   129.24840917     5.14982512
 C     61  60  56     1.378040080331   121.09786610   180.28346134
 S     62  61  60     1.772270367664   115.94700845   181.13015636
 C     63  62  61     1.840963542741   102.85643002   130.39768023
 C     64  63  62     1.515329320841   109.27836139   227.97218734
 C     62  61  60     1.413255620403   120.15186103     2.16999589
 S     66  62  61     1.777300069797   123.61482144   175.11124226
 C     67  66  62     1.839655656556   100.34243681   298.29308634
 C     68  67  66     1.514642718465   109.15367298   180.22810238
 C     66  62  61     1.375351772093   119.56001065   353.98737532
 C     58  57  56     1.393259437901   122.19184699   181.45564497
 C     71  58  57     1.374633993978   124.28628813     0.59886690
 C     72  71  58     1.394487076742   122.73097312   178.18702569
 C     73  72  71     1.377146565475   127.41642162   185.77178480
 C     74  73  72     1.478729113699   119.61472043   197.94345649
 O     75  74  73     1.210269500731   127.29276100   348.78097984
 C     75  74  73     1.485488991679   105.27664709   167.00734285
 C     77  75  74     1.406359689624   108.97501133     3.53786035
 C     78  77  75     1.384263211748   119.88458534   183.30953074
 C     79  78  77     1.394028419151   119.16747232   358.46346815
 C     80  79  78     1.404028290349   120.43624769     0.56206797
 C     77  75  74     1.376797010383   129.29424428   185.37020580
 C     81  80  79     1.417965170729   121.64442263   181.57618066
 N     83  81  80     1.145175858111   174.17889571   159.75049165
 C     80  79  78     1.500551989736   121.14803898   177.83500557
 O     85  80  79     1.197888864837   122.23018599   211.74308148
 O     85  80  79     1.339126033874   116.41358725    31.34424509
 C     74  73  72     1.436599835932   131.85260838    13.66808636
 C     88  74  73     1.376205157744   127.99636910    27.16272538
 C     89  88  74     1.408950525214   125.39169726     0.36546871
 N     90  89  88     1.148473248361   175.43573288   151.77686444
 C     89  88  74     1.408096847415   122.79853050   173.42485243
 N     92  89  88     1.149034645170   178.62319190   190.37697399
 H      1   2   3     1.079463336200   120.28633319     0.26217993
 H      5   3   2     0.967261563591   114.37402826     1.04006690
 H      9   6   2     1.079364829286   120.84654030   179.56581725
 H     21  18  12     1.079918019389   115.00910017     0.66162975
 H     27  26  25     1.076478948656   120.03928472   180.32411977
 H     30  29  28     1.089425865950   107.98445500    57.35590153
 H     30  29  28     1.089381253832   108.48523220   298.13354138
 H     31  30  29     1.087670860187   110.69211846   300.03056623
 H     31  30  29     1.087374824474   109.37808374   180.16998530
 H     31  30  29     1.087641626824   110.68024845    60.38661670
 H     34  33  32     1.089583601336   108.25934669   301.54826923
 H     34  33  32     1.088907057283   104.16448264   185.27892930
 H     35  34  33     1.088758614845   110.66659691   295.27967625
 H     35  34  33     1.088175922266   109.92540266   175.37861213
 H     35  34  33     1.087336684059   110.28019790    55.38789774
 H     36  32  28     1.077489583662   119.32635932   178.77137018
 H     37  24  23     1.081404750729   114.72902501    15.11649558
 H     38  37  24     1.081388637124   118.71555389     5.51742894
 H     44  43  39     1.077341896382   120.53900787     2.68436584
 H     47  46  45     1.089216805232   108.04011592   107.27950579
 H     47  46  45     1.087661883491   107.12478800   349.25616288
 H     48  47  46     1.087623641707   110.62615649   300.12324896
 H     48  47  46     1.087936433207   109.55947818   180.33098543
 H     48  47  46     1.087786361838   110.63993588    60.43112858
 H     51  50  49     1.088770576981   108.32757772    56.68862672
 H     51  50  49     1.090112751324   106.66154316   298.70824948
 H     52  51  50     1.087771180028   110.68925551   298.70345267
 H     52  51  50     1.087728364712   109.58177263   178.84527125
 H     52  51  50     1.087706912408   110.67048018    58.89751485
 H     53  49  45     1.075639903685   117.26259708   184.23761554
 H     54  41  40     1.079597496987   113.41154305   354.71337649
 H     55  54  41     1.079080613161   118.69520766     2.76676797
 H     61  60  56     1.075955141305   121.51082013     2.71257497
 H     64  63  62     1.089210771752   108.02250168   106.81604206
 H     64  63  62     1.087737377357   107.03249907   348.88163404
 H     65  64  63     1.087696278609   110.58044836   300.10130506
 H     65  64  63     1.087936164350   109.60637764   180.29973830
 H     65  64  63     1.087763145634   110.64025832    60.35853662
 H     68  67  66     1.088945138517   108.27173719    58.73530373
 H     68  67  66     1.090059697631   106.64040715   300.74768834
 H     69  68  67     1.087755909568   110.66782061   298.74093585
 H     69  68  67     1.087777833659   109.60686288   178.85457193
 H     69  68  67     1.087692333429   110.62464857    58.92714027
 H     70  66  62     1.078249087781   118.69924818   182.62762556
 H     71  58  57     1.081673508366   117.17858198   178.44815921
 H     72  71  58     1.080900455454   118.04596529   357.65449301
 H     73  72  71     1.085051288972   117.68996495    10.54027360
 H     79  78  77     1.079696366994   120.55352522   175.49126304
 H     82  77  75     1.079375936780   120.88207284   357.42642218
 H     87  85  80     0.967623429698   114.33426619     1.92138458

---------------------------
INTERNAL COORDINATES (A.U.)
---------------------------
 C      0   0   0     0.000000000000     0.00000000     0.00000000
 C      1   0   0     2.636391405772     0.00000000     0.00000000
 C      2   1   0     2.835090791234   121.66807068     0.00000000
 O      3   2   1     2.264651471902   121.98544479   207.85889680
 O      3   2   1     2.529217675267   116.79003784    27.66663434
 C      2   1   3     2.652648156363   120.42492306   182.75185976
 C      6   2   1     2.679752051140   121.97407999   181.35139834
 N      7   6   2     2.164640811410   173.30418308   162.87459213
 C      6   2   1     2.645231906646   120.45848091     0.14174487
 C      9   6   2     2.599799225388   118.24393909   359.90218026
 C      1   2   3     2.615979980323   119.24993381   177.71707955
 C     11   1   2     2.770646153554   131.62599449   180.04745888
 C     12  11   1     2.606159967832   124.80030814   354.43569788
 C     13  12  11     2.659668845864   123.29669223   357.99472523
 N     14  13  12     2.171543416241   177.74538359   212.96360715
 C     13  12  11     2.659237824267   125.70026390   179.94807689
 N     16  13  12     2.174743292733   176.17879458   182.08475891
 C     12  11   1     2.714388825268   107.29710425   176.35859515
 C     18  12  11     2.752614483467   109.16234360     2.69834733
 O     19  18  12     2.304323423352   127.98072296   178.22653307
 C     18  12  11     2.620553702105   124.97669363   182.46681627
 C     21  18  12     2.610358137980   131.07296094   179.89368640
 S     22  21  18     3.294978533606   126.73367618   358.81746790
 C     23  22  21     3.280321575704    92.57136256   183.17531710
 C     24  23  22     2.672183765987   111.76770279   356.43141655
 C     25  24  23     2.685402144591   112.06341651     3.68118204
 C     26  25  24     2.635937929658   120.44161128   178.87100626
 C     27  26  25     2.611311254945   119.94369030     1.64664080
 S     28  27  26     3.296856206657   124.22433301   178.84280406
 C     29  28  27     3.463091970100   104.01322131     3.83757653
 C     30  29  28     2.865489215377   108.60614560   177.63645821
 C     28  27  26     2.676530510190   119.41642644     1.47692617
 S     32  28  27     3.360758656867   118.44181518   177.76724311
 C     33  32  28     3.462355961472    99.39340925   246.42649549
 C     34  33  32     2.863086169702   111.60918732    65.02205135
 C     32  28  27     2.588490598826   121.29248955   357.43729916
 C     24  23  22     2.654864767342   117.06235506   174.37764635
 C     37  24  23     2.588418500816   126.30997453   203.10121403
 C     38  37  24     2.651230651786   125.56014442   177.44192046
 S     39  38  37     3.276056199708   118.59191949   202.59693537
 C     40  39  38     3.293705394306    93.90326259   172.66641517
 C     41  40  39     2.678948394612   109.79435088     3.41961726
 C     39  38  37     2.672157514991   131.47202602    19.24215311
 C     43  39  38     2.644878583552   126.89347120    13.44223357
 C     44  43  39     2.601430891239   120.87420689   178.68552495
 S     45  44  43     3.345182711933   116.16527521   182.87367012
 C     46  45  44     3.479990693683   102.88348899   131.66486879
 C     47  46  45     2.863554038461   109.27086987   228.39733240
 C     45  44  43     2.672322853529   119.51002955     2.96524764
 S     49  45  44     3.357907503514   123.74419471   174.21876044
 C     50  49  45     3.476297093431   100.74896758   300.85335012
 C     51  50  49     2.862343312075   109.15381932   178.15740091
 C     49  45  44     2.601469121174   119.97493648   352.28562470
 C     41  40  39     2.648138730776   115.47536716   184.11552365
 C     54  41  40     2.591259941050   128.34461655   174.40150001
 C     55  54  41     2.648624974150   127.78441778   181.61484046
 S     56  55  54     3.286961330277   115.76870057   186.50342628
 C     57  56  55     3.279213498413    93.73653800   178.26833311
 C     58  57  56     2.675658699821   109.89286001     0.62418822
 C     56  55  54     2.683512371495   133.96899715     6.01841549
 C     60  56  55     2.645071035538   129.24840917     5.14982512
 C     61  60  56     2.604118353393   121.09786610   180.28346134
 S     62  61  60     3.349105630149   115.94700845   181.13015636
 C     63  62  61     3.478916918313   102.85643002   130.39768023
 C     64  63  62     2.863557419090   109.27836139   227.97218734
 C     62  61  60     2.670666079786   120.15186103     2.16999589
 S     66  62  61     3.358610389715   123.61482144   175.11124226
 C     67  66  62     3.476445371611   100.34243681   298.29308634
 C     68  67  66     2.862259928637   109.15367298   180.22810238
 C     66  62  61     2.599038187059   119.56001065   353.98737532
 C     58  57  56     2.632878771134   122.19184699   181.45564497
 C     71  58  57     2.597681782997   124.28628813     0.59886690
 C     72  71  58     2.635198672335   122.73097312   178.18702569
 C     73  72  71     2.602429855018   127.41642162   185.77178480
 C     74  73  72     2.794393051147   119.61472043   197.94345649
 O     75  74  73     2.287077904619   127.29276100   348.78097984
 C     75  74  73     2.807167369228   105.27664709   167.00734285
 C     77  75  74     2.657634659176   108.97501133     3.53786035
 C     78  77  75     2.615878367467   119.88458534   183.30953074
 C     79  78  77     2.634331935098   119.16747232   358.46346815
 C     80  79  78     2.653228953037   120.43624769     0.56206797
 C     77  75  74     2.601769291626   129.29424428   185.37020580
 C     81  80  79     2.679565840116   121.64442263   181.57618066
 N     83  81  80     2.164068747008   174.17889571   159.75049165
 C     80  79  78     2.835632310311   121.14803898   177.83500557
 O     85  80  79     2.263681893415   122.23018599   211.74308148
 O     85  80  79     2.530581462827   116.41358725    31.34424509
 C     74  73  72     2.714780253948   131.85260838    13.66808636
 C     88  74  73     2.600650852225   127.99636910    27.16272538
 C     89  88  74     2.662530628898   125.39169726     0.36546871
 N     90  89  88     2.170299911537   175.43573288   151.77686444
 C     89  88  74     2.660917411652   122.79853050   173.42485243
 N     92  89  88     2.171360797758   178.62319190   190.37697399
 H      1   2   3     2.039890077027   120.28633319     0.26217993
 H      5   3   2     1.827859455055   114.37402826     1.04006690
 H      9   6   2     2.039703925938   120.84654030   179.56581725
 H     21  18  12     2.040749303731   115.00910017     0.66162975
 H     27  26  25     2.034250401892   120.03928472   180.32411977
 H     30  29  28     2.058716529855   107.98445500    57.35590153
 H     30  29  28     2.058632225170   108.48523220   298.13354138
 H     31  30  29     2.055400049600   110.69211846   300.03056623
 H     31  30  29     2.054840623177   109.37808374   180.16998530
 H     31  30  29     2.055344806550   110.68024845    60.38661670
 H     34  33  32     2.059014606536   108.25934669   301.54826923
 H     34  33  32     2.057736123558   104.16448264   185.27892930
 H     35  34  33     2.057455608005   110.66659691   295.27967625
 H     35  34  33     2.056354478610   109.92540266   175.37861213
 H     35  34  33     2.054768548237   110.28019790    55.38789774
 H     36  32  28     2.036160225274   119.32635932   178.77137018
 H     37  24  23     2.043558818800   114.72902501    15.11649558
 H     38  37  24     2.043528368498   118.71555389     5.51742894
 H     44  43  39     2.035881136761   120.53900787     2.68436584
 H     47  46  45     2.058321462353   108.04011592   107.27950579
 H     47  46  45     2.055383086104   107.12478800   349.25616288
 H     48  47  46     2.055310819604   110.62615649   300.12324896
 H     48  47  46     2.055901909877   109.55947818   180.33098543
 H     48  47  46     2.055618316088   110.63993588    60.43112858
 H     51  50  49     2.057478213166   108.32757772    56.68862672
 H     51  50  49     2.060014555098   106.66154316   298.70824948
 H     52  51  50     2.055589626626   110.68925551   298.70345267
 H     52  51  50     2.055508717405   109.58177263   178.84527125
 H     52  51  50     2.055468178424   110.67048018    58.89751485
 H     53  49  45     2.032664836683   117.26259708   184.23761554
 H     54  41  40     2.040143604172   113.41154305   354.71337649
 H     55  54  41     2.039166835298   118.69520766     2.76676797
 H     61  60  56     2.033260549450   121.51082013     2.71257497
 H     64  63  62     2.058310060728   108.02250168   106.81604206
 H     64  63  62     2.055525748835   107.03249907   348.88163404
 H     65  64  63     2.055448083456   110.58044836   300.10130506
 H     65  64  63     2.055901401810   109.60637764   180.29973830
 H     65  64  63     2.055574443821   110.64025832    60.35853662
 H     68  67  66     2.057808086662   108.27173719    58.73530373
 H     68  67  66     2.059914298148   106.64040715   300.74768834
 H     69  68  67     2.055560769638   110.66782061   298.74093585
 H     69  68  67     2.055602200166   109.60686288   178.85457193
 H     69  68  67     2.055440628146   110.62464857    58.92714027
 H     70  66  62     2.037595480056   118.69924818   182.62762556
 H     71  58  57     2.044066697129   117.17858198   178.44815921
 H     72  71  58     2.042605838838   118.04596529   357.65449301
 H     73  72  71     2.050449777416   117.68996495    10.54027360
 H     79  78  77     2.040330441408   120.55352522   175.49126304
 H     82  77  75     2.039724916059   120.88207284   357.42642218
 H     87  85  80     1.828543282894   114.33426619     1.92138458

---------------------
BASIS SET INFORMATION
---------------------
There are 5 groups of distinct atoms

 Group   1 Type C   : 7s4p1d contracted to 3s2p1d pattern {511/31/1}
 Group   2 Type O   : 7s4p1d contracted to 3s2p1d pattern {511/31/1}
 Group   3 Type N   : 7s4p1d contracted to 3s2p1d pattern {511/31/1}
 Group   4 Type S   : 10s7p1d contracted to 4s3p1d pattern {5311/511/1}
 Group   5 Type H   : 4s1p contracted to 2s1p pattern {31/1}

Atom   0C    basis set group =>   1
Atom   1C    basis set group =>   1
Atom   2C    basis set group =>   1
Atom   3O    basis set group =>   2
Atom   4O    basis set group =>   2
Atom   5C    basis set group =>   1
Atom   6C    basis set group =>   1
Atom   7N    basis set group =>   3
Atom   8C    basis set group =>   1
Atom   9C    basis set group =>   1
Atom  10C    basis set group =>   1
Atom  11C    basis set group =>   1
Atom  12C    basis set group =>   1
Atom  13C    basis set group =>   1
Atom  14N    basis set group =>   3
Atom  15C    basis set group =>   1
Atom  16N    basis set group =>   3
Atom  17C    basis set group =>   1
Atom  18C    basis set group =>   1
Atom  19O    basis set group =>   2
Atom  20C    basis set group =>   1
Atom  21C    basis set group =>   1
Atom  22S    basis set group =>   4
Atom  23C    basis set group =>   1
Atom  24C    basis set group =>   1
Atom  25C    basis set group =>   1
Atom  26C    basis set group =>   1
Atom  27C    basis set group =>   1
Atom  28S    basis set group =>   4
Atom  29C    basis set group =>   1
Atom  30C    basis set group =>   1
Atom  31C    basis set group =>   1
Atom  32S    basis set group =>   4
Atom  33C    basis set group =>   1
Atom  34C    basis set group =>   1
Atom  35C    basis set group =>   1
Atom  36C    basis set group =>   1
Atom  37C    basis set group =>   1
Atom  38C    basis set group =>   1
Atom  39S    basis set group =>   4
Atom  40C    basis set group =>   1
Atom  41C    basis set group =>   1
Atom  42C    basis set group =>   1
Atom  43C    basis set group =>   1
Atom  44C    basis set group =>   1
Atom  45S    basis set group =>   4
Atom  46C    basis set group =>   1
Atom  47C    basis set group =>   1
Atom  48C    basis set group =>   1
Atom  49S    basis set group =>   4
Atom  50C    basis set group =>   1
Atom  51C    basis set group =>   1
Atom  52C    basis set group =>   1
Atom  53C    basis set group =>   1
Atom  54C    basis set group =>   1
Atom  55C    basis set group =>   1
Atom  56S    basis set group =>   4
Atom  57C    basis set group =>   1
Atom  58C    basis set group =>   1
Atom  59C    basis set group =>   1
Atom  60C    basis set group =>   1
Atom  61C    basis set group =>   1
Atom  62S    basis set group =>   4
Atom  63C    basis set group =>   1
Atom  64C    basis set group =>   1
Atom  65C    basis set group =>   1
Atom  66S    basis set group =>   4
Atom  67C    basis set group =>   1
Atom  68C    basis set group =>   1
Atom  69C    basis set group =>   1
Atom  70C    basis set group =>   1
Atom  71C    basis set group =>   1
Atom  72C    basis set group =>   1
Atom  73C    basis set group =>   1
Atom  74C    basis set group =>   1
Atom  75O    basis set group =>   2
Atom  76C    basis set group =>   1
Atom  77C    basis set group =>   1
Atom  78C    basis set group =>   1
Atom  79C    basis set group =>   1
Atom  80C    basis set group =>   1
Atom  81C    basis set group =>   1
Atom  82C    basis set group =>   1
Atom  83N    basis set group =>   3
Atom  84C    basis set group =>   1
Atom  85O    basis set group =>   2
Atom  86O    basis set group =>   2
Atom  87C    basis set group =>   1
Atom  88C    basis set group =>   1
Atom  89C    basis set group =>   1
Atom  90N    basis set group =>   3
Atom  91C    basis set group =>   1
Atom  92N    basis set group =>   3
Atom  93H    basis set group =>   5
Atom  94H    basis set group =>   5
Atom  95H    basis set group =>   5
Atom  96H    basis set group =>   5
Atom  97H    basis set group =>   5
Atom  98H    basis set group =>   5
Atom  99H    basis set group =>   5
Atom 100H    basis set group =>   5
Atom 101H    basis set group =>   5
Atom 102H    basis set group =>   5
Atom 103H    basis set group =>   5
Atom 104H    basis set group =>   5
Atom 105H    basis set group =>   5
Atom 106H    basis set group =>   5
Atom 107H    basis set group =>   5
Atom 108H    basis set group =>   5
Atom 109H    basis set group =>   5
Atom 110H    basis set group =>   5
Atom 111H    basis set group =>   5
Atom 112H    basis set group =>   5
Atom 113H    basis set group =>   5
Atom 114H    basis set group =>   5
Atom 115H    basis set group =>   5
Atom 116H    basis set group =>   5
Atom 117H    basis set group =>   5
Atom 118H    basis set group =>   5
Atom 119H    basis set group =>   5
Atom 120H    basis set group =>   5
Atom 121H    basis set group =>   5
Atom 122H    basis set group =>   5
Atom 123H    basis set group =>   5
Atom 124H    basis set group =>   5
Atom 125H    basis set group =>   5
Atom 126H    basis set group =>   5
Atom 127H    basis set group =>   5
Atom 128H    basis set group =>   5
Atom 129H    basis set group =>   5
Atom 130H    basis set group =>   5
Atom 131H    basis set group =>   5
Atom 132H    basis set group =>   5
Atom 133H    basis set group =>   5
Atom 134H    basis set group =>   5
Atom 135H    basis set group =>   5
Atom 136H    basis set group =>   5
Atom 137H    basis set group =>   5
Atom 138H    basis set group =>   5
Atom 139H    basis set group =>   5
Atom 140H    basis set group =>   5
Atom 141H    basis set group =>   5
Atom 142H    basis set group =>   5
---------------------------------
AUXILIARY/J BASIS SET INFORMATION
---------------------------------
There are 5 groups of distinct atoms

 Group   1 Type C   : 12s5p4d2f1g contracted to 6s4p3d1f1g pattern {711111/2111/211/2/1}
 Group   2 Type O   : 12s5p4d2f1g contracted to 6s4p3d1f1g pattern {711111/2111/211/2/1}
 Group   3 Type N   : 12s5p4d2f1g contracted to 6s4p3d1f1g pattern {711111/2111/211/2/1}
 Group   4 Type S   : 14s5p5d2f1g contracted to 8s4p3d1f1g pattern {71111111/2111/311/2/1}
 Group   5 Type H   : 5s2p1d contracted to 3s1p1d pattern {311/2/1}

Atom   0C    basis set group =>   1
Atom   1C    basis set group =>   1
Atom   2C    basis set group =>   1
Atom   3O    basis set group =>   2
Atom   4O    basis set group =>   2
Atom   5C    basis set group =>   1
Atom   6C    basis set group =>   1
Atom   7N    basis set group =>   3
Atom   8C    basis set group =>   1
Atom   9C    basis set group =>   1
Atom  10C    basis set group =>   1
Atom  11C    basis set group =>   1
Atom  12C    basis set group =>   1
Atom  13C    basis set group =>   1
Atom  14N    basis set group =>   3
Atom  15C    basis set group =>   1
Atom  16N    basis set group =>   3
Atom  17C    basis set group =>   1
Atom  18C    basis set group =>   1
Atom  19O    basis set group =>   2
Atom  20C    basis set group =>   1
Atom  21C    basis set group =>   1
Atom  22S    basis set group =>   4
Atom  23C    basis set group =>   1
Atom  24C    basis set group =>   1
Atom  25C    basis set group =>   1
Atom  26C    basis set group =>   1
Atom  27C    basis set group =>   1
Atom  28S    basis set group =>   4
Atom  29C    basis set group =>   1
Atom  30C    basis set group =>   1
Atom  31C    basis set group =>   1
Atom  32S    basis set group =>   4
Atom  33C    basis set group =>   1
Atom  34C    basis set group =>   1
Atom  35C    basis set group =>   1
Atom  36C    basis set group =>   1
Atom  37C    basis set group =>   1
Atom  38C    basis set group =>   1
Atom  39S    basis set group =>   4
Atom  40C    basis set group =>   1
Atom  41C    basis set group =>   1
Atom  42C    basis set group =>   1
Atom  43C    basis set group =>   1
Atom  44C    basis set group =>   1
Atom  45S    basis set group =>   4
Atom  46C    basis set group =>   1
Atom  47C    basis set group =>   1
Atom  48C    basis set group =>   1
Atom  49S    basis set group =>   4
Atom  50C    basis set group =>   1
Atom  51C    basis set group =>   1
Atom  52C    basis set group =>   1
Atom  53C    basis set group =>   1
Atom  54C    basis set group =>   1
Atom  55C    basis set group =>   1
Atom  56S    basis set group =>   4
Atom  57C    basis set group =>   1
Atom  58C    basis set group =>   1
Atom  59C    basis set group =>   1
Atom  60C    basis set group =>   1
Atom  61C    basis set group =>   1
Atom  62S    basis set group =>   4
Atom  63C    basis set group =>   1
Atom  64C    basis set group =>   1
Atom  65C    basis set group =>   1
Atom  66S    basis set group =>   4
Atom  67C    basis set group =>   1
Atom  68C    basis set group =>   1
Atom  69C    basis set group =>   1
Atom  70C    basis set group =>   1
Atom  71C    basis set group =>   1
Atom  72C    basis set group =>   1
Atom  73C    basis set group =>   1
Atom  74C    basis set group =>   1
Atom  75O    basis set group =>   2
Atom  76C    basis set group =>   1
Atom  77C    basis set group =>   1
Atom  78C    basis set group =>   1
Atom  79C    basis set group =>   1
Atom  80C    basis set group =>   1
Atom  81C    basis set group =>   1
Atom  82C    basis set group =>   1
Atom  83N    basis set group =>   3
Atom  84C    basis set group =>   1
Atom  85O    basis set group =>   2
Atom  86O    basis set group =>   2
Atom  87C    basis set group =>   1
Atom  88C    basis set group =>   1
Atom  89C    basis set group =>   1
Atom  90N    basis set group =>   3
Atom  91C    basis set group =>   1
Atom  92N    basis set group =>   3
Atom  93H    basis set group =>   5
Atom  94H    basis set group =>   5
Atom  95H    basis set group =>   5
Atom  96H    basis set group =>   5
Atom  97H    basis set group =>   5
Atom  98H    basis set group =>   5
Atom  99H    basis set group =>   5
Atom 100H    basis set group =>   5
Atom 101H    basis set group =>   5
Atom 102H    basis set group =>   5
Atom 103H    basis set group =>   5
Atom 104H    basis set group =>   5
Atom 105H    basis set group =>   5
Atom 106H    basis set group =>   5
Atom 107H    basis set group =>   5
Atom 108H    basis set group =>   5
Atom 109H    basis set group =>   5
Atom 110H    basis set group =>   5
Atom 111H    basis set group =>   5
Atom 112H    basis set group =>   5
Atom 113H    basis set group =>   5
Atom 114H    basis set group =>   5
Atom 115H    basis set group =>   5
Atom 116H    basis set group =>   5
Atom 117H    basis set group =>   5
Atom 118H    basis set group =>   5
Atom 119H    basis set group =>   5
Atom 120H    basis set group =>   5
Atom 121H    basis set group =>   5
Atom 122H    basis set group =>   5
Atom 123H    basis set group =>   5
Atom 124H    basis set group =>   5
Atom 125H    basis set group =>   5
Atom 126H    basis set group =>   5
Atom 127H    basis set group =>   5
Atom 128H    basis set group =>   5
Atom 129H    basis set group =>   5
Atom 130H    basis set group =>   5
Atom 131H    basis set group =>   5
Atom 132H    basis set group =>   5
Atom 133H    basis set group =>   5
Atom 134H    basis set group =>   5
Atom 135H    basis set group =>   5
Atom 136H    basis set group =>   5
Atom 137H    basis set group =>   5
Atom 138H    basis set group =>   5
Atom 139H    basis set group =>   5
Atom 140H    basis set group =>   5
Atom 141H    basis set group =>   5
Atom 142H    basis set group =>   5


           ************************************************************
           *        Program running with 6 parallel MPI-processes     *
           *              working on a common directory               *
           ************************************************************
------------------------------------------------------------------------------
                           ORCA GTO INTEGRAL CALCULATION
                           -- RI-GTO INTEGRALS CHOSEN --
------------------------------------------------------------------------------

                         BASIS SET STATISTICS AND STARTUP INFO

Gaussian basis set:
 # of primitive gaussian shells          ... 1420
 # of primitive gaussian functions       ... 2690
 # of contracted shells                  ...  726
 # of contracted basis functions         ... 1588
 Highest angular momentum                ...    2
 Maximum contraction depth               ...    5
Auxiliary gaussian basis set:
 # of primitive gaussian shells          ... 2659
 # of primitive gaussian functions       ... 7373
 # of contracted shells                  ... 1663
 # of contracted aux-basis functions     ... 5125
 Highest angular momentum                ...    4
 Maximum contraction depth               ...    7
Ratio of auxiliary to basis functions    ...  3.23
Integral package used                  ... LIBINT
 One Electron integrals                  ... done
 Ordering auxiliary basis shells         ... done
 Integral threshhold             Thresh  ...  2.500e-11
 Primitive cut-off               TCut    ...  2.500e-12
 Pre-screening matrix                    ... done
 Shell pair data                         ... 
 Ordering of the shell pairs             ... done (   0.013 sec) 61767 of 263901 pairs
 Determination of significant pairs      ... done (   0.000 sec)
 Creation of shell pair data             ... done (   0.006 sec)
 Storage of shell pair data              ... done (   0.008 sec)
 Shell pair data done in (   0.028 sec)
 Computing two index integrals           ... done
 Cholesky decomposition of the V-matrix  ... done


Timings:
 Total evaluation time                   ...   4.131 sec (  0.069 min)
 One electron matrix time                ...   0.861 sec (  0.014 min) = 20.8%
 Schwartz matrix evaluation time         ...   1.039 sec (  0.017 min) = 25.2%
 Two index repulsion integral time       ...   0.433 sec (  0.007 min) = 10.5%
 Cholesky decomposition of V             ...   1.753 sec (  0.029 min) = 42.4%
 Three index repulsion integral time     ...   0.000 sec (  0.000 min) =  0.0%



           ************************************************************
           *        Program running with 6 parallel MPI-processes     *
           *              working on a common directory               *
           ************************************************************
-------------------------------------------------------------------------------
                                 ORCA SCF
-------------------------------------------------------------------------------

------------
SCF SETTINGS
------------
Hamiltonian:
 Density Functional     Method          .... DFT(GTOs)
 Exchange Functional    Exchange        .... WB88
 Correlation Functional Correlation     .... LYP
 LDA part of GGA corr.  LDAOpt          .... VWN-5
 Gradients option       PostSCFGGA      .... off
 Hybrid DFT is turned on
   Fraction HF Exchange ScalHFX         ....  0.190000
   Scaling of DF-GGA-X  ScalDFX         ....  0.350000
   Scaling of DF-GGA-C  ScalDFC         ....  0.810000
   Scaling of DF-LDA-C  ScalLDAC        ....  1.000000
   Perturbative correction              ....  0.000000
   Density functional embedding theory  .... OFF
 Long-range corrected/Screened/Range-Separated Hybrid DFT is turned on
   Amount of maximum screened exact exchange              ....  0.460000
   Range separation parameter mu (erf(mu*r12)/r12)        ....  0.330000
 RI-approximation to the Coulomb term is turned on
   Number of auxiliary basis functions  .... 5125
   RIJ-COSX (HFX calculated with COS-X)).... on


General Settings:
 Integral files         IntName         .... xtbopt
 Hartree-Fock type      HFTyp           .... RHF
 Total Charge           Charge          ....    0
 Multiplicity           Mult            ....    1
 Number of Electrons    NEL             ....  716
 Basis Dimension        Dim             .... 1588
 Nuclear Repulsion      ENuc            ....  16650.7924505199 Eh

Convergence Acceleration:
 DIIS                   CNVDIIS         .... on
   Start iteration      DIISMaxIt       ....    12
   Startup error        DIISStart       ....  0.200000
   # of expansion vecs  DIISMaxEq       ....     5
   Bias factor          DIISBfac        ....   1.050
   Max. coefficient     DIISMaxC        ....  10.000
 Newton-Raphson         CNVNR           .... off
 SOSCF                  CNVSOSCF        .... on
   Start iteration      SOSCFMaxIt      ....   150
   Startup grad/error   SOSCFStart      ....  0.003300
 Level Shifting         CNVShift        .... on
   Level shift para.    LevelShift      ....    0.2500
   Turn off err/grad.   ShiftErr        ....    0.0010
 Zerner damping         CNVZerner       .... off
 Static damping         CNVDamp         .... on
   Fraction old density DampFac         ....    0.7000
   Max. Damping (<1)    DampMax         ....    0.9800
   Min. Damping (>=0)   DampMin         ....    0.0000
   Turn off err/grad.   DampErr         ....    0.1000
 Fernandez-Rico         CNVRico         .... off

SCF Procedure:
 Maximum # iterations   MaxIter         ....   125
 SCF integral mode      SCFMode         .... Direct
   Integral package                     .... LIBINT
 Reset frequency        DirectResetFreq ....    20
 Integral Threshold     Thresh          ....  2.500e-11 Eh
 Primitive CutOff       TCut            ....  2.500e-12 Eh

Convergence Tolerance:
 Convergence Check Mode ConvCheckMode   .... Total+1el-Energy
 Convergence forced     ConvForced      .... 1
 Energy Change          TolE            ....  1.000e-08 Eh
 1-El. energy change                    ....  1.000e-05 Eh
 Orbital Gradient       TolG            ....  1.000e-05
 Orbital Rotation angle TolX            ....  1.000e-05
 DIIS Error             TolErr          ....  5.000e-07


Diagonalization of the overlap matrix:
Smallest eigenvalue                        ... 2.029e-04
Time for diagonalization                   ...    0.694 sec
Threshold for overlap eigenvalues          ... 1.000e-08
Number of eigenvalues below threshold      ... 0
Time for construction of square roots      ...    0.559 sec
Total time needed                          ...    1.255 sec

-------------------
DFT GRID GENERATION
-------------------

General Integration Accuracy     IntAcc      ...  4.670
Radial Grid Type                 RadialGrid  ... Gauss-Chebyshev
Angular Grid (max. acc.)         AngularGrid ... Lebedev-302
Angular grid pruning method      GridPruning ... 3 (G Style)
Weight generation scheme         WeightScheme... Becke
Basis function cutoff            BFCut       ...    1.0000e-11
Integration weight cutoff        WCut        ...    1.0000e-14
Grids for H and He will be reduced by one unit

# of grid points (after initial pruning)     ... 753122 (   0.0 sec)
# of grid points (after weights+screening)   ... 645085 (  13.5 sec)
nearest neighbour list constructed           ...    0.0 sec
Grid point re-assignment to atoms done       ...    0.1 sec
Grid point division into batches done        ...    2.4 sec
Reduced shell lists constructed in    3.6 sec

Total number of grid points                  ...   645085
Total number of batches                      ...    10144
Average number of points per batch           ...       63
Average number of grid points per atom       ...     4511
Average number of shells per batch           ...    86.39 (11.90%)
Average number of basis functions per batch  ...   183.42 (11.55%)
Average number of large shells per batch     ...    53.07 (61.43%)
Average number of large basis fcns per batch ...   114.70 (62.53%)
Maximum spatial batch extension              ...  19.04, 25.89, 19.78 au
Average spatial batch extension              ...   0.34,  0.38,  0.38 au

Time for grid setup =   17.487 sec

------------------------------
INITIAL GUESS: MODEL POTENTIAL
------------------------------
Loading Hartree-Fock densities                     ... done
Calculating cut-offs                               ... done
Setting up the integral package                    ... done
Initializing the effective Hamiltonian             ... done
Starting the Coulomb interaction                   ... done (   2.4 sec)
Reading the grid                                   ... done
Mapping shells                                     ... done
Starting the XC term evaluation                    ... done (   1.7 sec)
  promolecular density results
     # of electrons  =    715.975028860
     EX              =   -695.387370349
     EC              =    -24.926402085
     EX+EC           =   -720.313772434
Transforming the Hamiltonian                       ... done (   0.6 sec)
Diagonalizing the Hamiltonian                      ... done (   0.7 sec)
Back transforming the eigenvectors                 ... done (   0.3 sec)
Now organizing SCF variables                       ... done
                      ------------------
                      INITIAL GUESS DONE (  23.2 sec)
                      ------------------
--------------------
COSX GRID GENERATION
--------------------

General Integration Accuracy     IntAcc      ...  3.340
Radial Grid Type                 RadialGrid  ... Gauss-Chebyshev
Angular Grid (max. acc.)         AngularGrid ... Lebedev-50
Angular grid pruning method      GridPruning ... 3 (G Style)
Weight generation scheme         WeightScheme... Becke
Basis function cutoff            BFCut       ...    1.0000e-11
Integration weight cutoff        WCut        ...    1.0000e-14
Grids for H and He will be reduced by one unit

# of grid points (after initial pruning)     ...  70990 (   0.0 sec)
# of grid points (after weights+screening)   ...  63428 (   1.3 sec)
nearest neighbour list constructed           ...    0.0 sec
Grid point re-assignment to atoms done       ...    0.0 sec
Grid point division into batches done        ...    0.0 sec
Reduced shell lists constructed in    0.2 sec

Total number of grid points                  ...    63428
Total number of batches                      ...     1072
Average number of points per batch           ...       59
Average number of grid points per atom       ...      444
Average number of shells per batch           ...   105.34 (14.51%)
Average number of basis functions per batch  ...   225.71 (14.21%)
Average number of large shells per batch     ...    64.50 (61.23%)
Average number of large basis fcns per batch ...   141.29 (62.60%)
Maximum spatial batch extension              ...  15.94, 25.24, 24.66 au
Average spatial batch extension              ...   0.65,  0.94,  0.94 au

Overlap Fitting                  UseSFitting ... on
Constructing numerical overlap ... done (      0.2 sec)
Inverting numerical overlap    ... done (      0.2 sec)
Obtaining analytic overlap     ... done (      0.0 sec)
Final contraction and storage  ... done (      1.2 sec)


General Integration Accuracy     IntAcc      ...  3.670
Radial Grid Type                 RadialGrid  ... Gauss-Chebyshev
Angular Grid (max. acc.)         AngularGrid ... Lebedev-50
Angular grid pruning method      GridPruning ... 3 (G Style)
Weight generation scheme         WeightScheme... Becke
Basis function cutoff            BFCut       ...    1.0000e-11
Integration weight cutoff        WCut        ...    1.0000e-14
Grids for H and He will be reduced by one unit

# of grid points (after initial pruning)     ...  89078 (   0.0 sec)
# of grid points (after weights+screening)   ...  79290 (   1.6 sec)
nearest neighbour list constructed           ...    0.0 sec
Grid point re-assignment to atoms done       ...    0.0 sec
Grid point division into batches done        ...    0.0 sec
Reduced shell lists constructed in    0.2 sec

Total number of grid points                  ...    79290
Total number of batches                      ...     1314
Average number of points per batch           ...       60
Average number of grid points per atom       ...      554
Average number of shells per batch           ...   103.84 (14.30%)
Average number of basis functions per batch  ...   222.05 (13.98%)
Average number of large shells per batch     ...    63.55 (61.21%)
Average number of large basis fcns per batch ...   139.07 (62.63%)
Maximum spatial batch extension              ...  17.17, 27.71, 27.71 au
Average spatial batch extension              ...   0.59,  0.88,  0.86 au

Overlap Fitting                  UseSFitting ... on
Constructing numerical overlap ... done (      0.2 sec)
Inverting numerical overlap    ... done (      0.2 sec)
Obtaining analytic overlap     ... done (      0.0 sec)
Final contraction and storage  ... done (      1.2 sec)


General Integration Accuracy     IntAcc      ...  4.010
Radial Grid Type                 RadialGrid  ... Gauss-Chebyshev
Angular Grid (max. acc.)         AngularGrid ... Lebedev-110
Angular grid pruning method      GridPruning ... 3 (G Style)
Weight generation scheme         WeightScheme... Becke
Basis function cutoff            BFCut       ...    1.0000e-11
Integration weight cutoff        WCut        ...    1.0000e-14
Grids for H and He will be reduced by one unit

# of grid points (after initial pruning)     ... 171124 (   0.0 sec)
# of grid points (after weights+screening)   ... 150992 (   3.2 sec)
nearest neighbour list constructed           ...    0.0 sec
Grid point re-assignment to atoms done       ...    0.0 sec
Grid point division into batches done        ...    0.1 sec
Reduced shell lists constructed in    0.5 sec

Total number of grid points                  ...   150992
Total number of batches                      ...     2437
Average number of points per batch           ...       61
Average number of grid points per atom       ...     1056
Average number of shells per batch           ...    96.38 (13.28%)
Average number of basis functions per batch  ...   206.06 (12.98%)
Average number of large shells per batch     ...    59.52 (61.75%)
Average number of large basis fcns per batch ...   129.66 (62.92%)
Maximum spatial batch extension              ...  18.28, 24.23, 19.44 au
Average spatial batch extension              ...   0.54,  0.67,  0.65 au

Overlap Fitting                  UseSFitting ... on
Constructing numerical overlap ... done (      0.4 sec)
Inverting numerical overlap    ... done (      0.2 sec)
Obtaining analytic overlap     ... done (      0.0 sec)
Final contraction and storage  ... done (      1.2 sec)

Time for X-Grid setup             =   12.296 sec
--------------
SCF ITERATIONS
--------------
ITER       Energy         Delta-E        Max-DP      RMS-DP      [F,P]     Damp
               ***  Starting incremental Fock matrix formation  ***
  0  -7129.7302624601   0.000000000000 0.08205559  0.00083531  0.2381567 0.7000
  1  -7130.5808365036  -0.850574043532 0.04863656  0.00058638  0.1000469 0.7000
                               ***Turning on DIIS***
  2  -7130.9351860257  -0.354349522113 0.11182033  0.00106365  0.0428569 0.0000
  3  -7131.5275919462  -0.592405920475 0.06010968  0.00042464  0.0557894 0.0000
  4  -7131.6340744501  -0.106482503887 0.01577141  0.00012982  0.0224131 0.0000
  5  -7131.6422862804  -0.008211830300 0.00745611  0.00005221  0.0069493 0.0000
  6  -7131.6437400479  -0.001453767500 0.00286423  0.00003087  0.0015052 0.0000
  7  -7131.6443425038  -0.000602455930 0.00422863  0.00004803  0.0008583 0.0000
               *** Restarting incremental Fock matrix formation ***
                                   *** Resetting DIIS ***
                      *** Initiating the SOSCF procedure ***
                           *** Shutting down DIIS ***
                      *** Re-Reading the Fockian *** 
                      *** Removing any level shift *** 
ITER      Energy       Delta-E        Grad      Rot      Max-DP    RMS-DP
  8  -7131.64495135  -0.0006088424  0.000914  0.000914  0.001742  0.000016
               *** Restarting incremental Fock matrix formation ***
  9  -7131.64502843  -0.0000770853  0.001388  0.010983  0.002266  0.000022
 10  -7131.64503975  -0.0000113157  0.001578  0.004437  0.001615  0.000014
 11  -7131.64516831  -0.0001285630  0.000126  0.002725  0.000804  0.000009
 12  -7131.64517473  -0.0000064183  0.000182  0.001216  0.000544  0.000004
 13  -7131.64517983  -0.0000051027  0.000102  0.000350  0.000251  0.000002
 14  -7131.64518021  -0.0000003761  0.000062  0.000288  0.000117  0.000001
 15  -7131.64518077  -0.0000005656  0.000016  0.000175  0.000058  0.000001
 16  -7131.64518078  -0.0000000079  0.000012  0.000050  0.000029  0.000000
 17  -7131.64518080  -0.0000000222  0.000006  0.000040  0.000018  0.000000
 18  -7131.64518082  -0.0000000169  0.000004  0.000026  0.000008  0.000000
                  ***Gradient check signals convergence***
              ***Rediagonalizing the Fockian in SOSCF/NRSCF***

               *****************************************************
[...]
  26   30099.6    332.2   0.103894912   1.13634   0.71689   0.55315  -0.56252
  27   30158.9    331.6   0.020575126   0.22460  -0.26616  -0.23255   0.31572
  28   30488.7    328.0   0.006704752   0.07240  -0.17558  -0.17352   0.10705
  29   30723.0    325.5   0.023747485   0.25447   0.10509   0.46628   0.16125
  30   31348.3    319.0   0.024313154   0.25533  -0.01347   0.49362  -0.10717
  31   31470.8    317.8   0.109369383   1.14410   0.82959   0.59972  -0.31018
  32   31713.1    315.3   0.026772618   0.27793  -0.51988   0.02345   0.08427
  33   31912.0    313.4   0.004401464   0.04541  -0.17549  -0.06675  -0.10077
  34   32235.8    310.2   0.001999256   0.02042  -0.00368  -0.11213  -0.08849
  35   32353.8    309.1   0.037658339   0.38319   0.01577  -0.43077   0.44428
  36   32733.1    305.5   0.025359010   0.25505  -0.23236  -0.22027  -0.39056
  37   32878.7    304.1   0.040617619   0.40670  -0.45307   0.43537   0.10903
  38   33083.0    302.3   0.134095634   1.33440  -0.00098   1.11138  -0.31501
  39   33387.3    299.5   0.157403615   1.55206   0.84051   0.33682  -0.85566
  40   33529.7    298.2   0.007705782   0.07566  -0.10083  -0.05076   0.25083
  41   33902.8    295.0   0.258510980   2.51026   0.73530   1.16694  -0.77965
  42   33990.6    294.2   0.257129975   2.49040   0.01972  -1.01429   1.20881
  43   34062.8    293.6   0.104759155   1.01248  -0.46527  -0.69820   0.55545
  44   34375.3    290.9   0.075308982   0.72123   0.62700   0.34330  -0.45853
  45   34515.1    289.7   0.008384001   0.07997  -0.01279  -0.00337   0.28248
  46   34735.8    287.9   0.369020278   3.49742  -1.63914  -0.27572   0.85710
  47   34810.4    287.3   0.023613804   0.22332   0.00672  -0.44875  -0.14798
  48   34833.6    287.1   0.013943163   0.13178   0.12668   0.32015   0.11504
  49   35083.4    285.0   0.084249935   0.79057  -0.54486  -0.59177   0.37884
  50   35263.7    283.6   0.020873491   0.19487  -0.05395  -0.23077  -0.37243
  51   35547.9    281.3   0.080943165   0.74962   0.01278   0.71999   0.48069
  52   35646.6    280.5   0.027300272   0.25213  -0.20558  -0.40470  -0.21467
  53   35819.5    279.2   0.104979894   0.96486   0.63017   0.17888  -0.73195
  54   35968.1    278.0   0.079020996   0.72327  -0.50552   0.67448  -0.11314
  55   36186.9    276.3   0.044943043   0.40887  -0.44027  -0.38595   0.25705
  56   36443.5    274.4   0.040111015   0.36234   0.40140  -0.09683  -0.43800
  57   36520.3    273.8   0.021586148   0.19459   0.12416  -0.39536  -0.15121
  58   36631.6    273.0   0.008304716   0.07464   0.08868   0.17651  -0.18872
  59   36838.7    271.5   0.023652995   0.21138  -0.04043   0.38819  -0.24300
  60   37117.8    269.4   0.064814723   0.57487   0.13214   0.74514  -0.04658
  61   37160.6    269.1   0.015506038   0.13737  -0.06650  -0.23073   0.28233
  62   37291.2    268.2   0.076695673   0.67708  -0.26376  -0.41009   0.66282
  63   37387.0    267.5   0.019549686   0.17215   0.39173  -0.12760  -0.04907
  64   37588.2    266.0   0.005059138   0.04431   0.07830  -0.13344  -0.14274
  65   37675.9    265.4   0.009765657   0.08533   0.04387   0.27156  -0.09831
  66   37884.4    264.0   0.015693725   0.13638  -0.11369  -0.12927   0.32671
  67   38054.4    262.8   0.065581169   0.56735  -0.23009  -0.71416   0.06618
  68   38323.7    260.9   0.065954686   0.56657   0.28682  -0.51719  -0.46564
  69   38419.1    260.3   0.149720201   1.28295  -0.48059  -0.52692   0.87997
  70   38487.2    259.8   0.135081492   1.15546   0.64284  -0.08400  -0.85742
  71   38571.9    259.3   0.120223196   1.02611   0.81333  -0.41253  -0.44093
  72   38688.5    258.5   0.001139194   0.00969  -0.06441  -0.05617  -0.04890
  73   38847.2    257.4   0.181473714   1.53790  -0.80218  -0.58145   0.74587
  74   38942.3    256.8   0.002944106   0.02489  -0.09364  -0.12504   0.02201
  75   39078.7    255.9   0.007629350   0.06427  -0.01621  -0.01205   0.25271
  76   39283.0    254.6   0.011556423   0.09685  -0.12706  -0.27385   0.07558
  77   39469.2    253.4   0.159512372   1.33049   0.97915   0.36157  -0.49094
  78   39596.4    252.5   0.039655165   0.32970  -0.56009  -0.08881   0.09010
  79   39655.5    252.2   0.012126386   0.10067   0.09485   0.20236  -0.22522
  80   39802.9    251.2   0.054440827   0.45028  -0.36404  -0.42418   0.37126
  81   40265.4    248.4   0.027600753   0.22567   0.37032   0.23251  -0.18565
  82   40318.0    248.0   0.019142253   0.15630  -0.27828   0.11531   0.25606

-----------------------------------------------------------------------------
         ABSORPTION SPECTRUM VIA TRANSITION VELOCITY DIPOLE MOMENTS
-----------------------------------------------------------------------------
State   Energy  Wavelength   fosc         P2         PX        PY        PZ  
        (cm-1)    (nm)                  (au**2)     (au)      (au)      (au) 
-----------------------------------------------------------------------------
   0    8724.8   1146.2   4.045147224   0.24121   0.46432  -0.14473  -0.06838
   1   14605.8    684.7   0.383157545   0.03825  -0.05263   0.15335  -0.10937
   2   15781.7    633.6   0.028126619   0.00303   0.00632   0.02762  -0.04723
   3   18296.9    546.5   0.095757410   0.01197   0.03021   0.05189   0.09149
   4   18959.0    527.5   0.060702044   0.00787   0.03151   0.07923  -0.02441
   5   19857.2    503.6   0.144441917   0.01960   0.01175   0.09883   0.09847
   6   20856.8    479.5   0.145836776   0.02079   0.08578   0.09890  -0.06040
   7   21514.0    464.8   0.148483982   0.02183  -0.06417  -0.13306   0.00320
   8   21874.3    457.2   0.222583127   0.03328  -0.14257  -0.10545  -0.04278
   9   21906.0    456.5   0.055260041   0.00827   0.03890  -0.02866   0.07706
  10   23099.3    432.9   0.149383497   0.02358   0.14601  -0.03002  -0.03692
  11   23748.2    421.1   0.011406563   0.00185  -0.02496   0.02427  -0.02528
  12   24026.6    416.2   0.068892937   0.01131  -0.07999   0.06733  -0.01952
  13   25220.8    396.5   0.657321988   0.11330  -0.12278  -0.30925   0.05094
  14   25610.4    390.5   0.116663073   0.02042   0.07651   0.04908  -0.11026
  15   26046.6    383.9   0.007436554   0.00132   0.01455  -0.00672   0.03266
  16   26773.9    373.5   0.094883388   0.01736  -0.02350  -0.11704   0.05578
  17   27436.7    364.5   0.027910271   0.00523   0.05934  -0.04005   0.01045
  18   27798.4    359.7   0.053414391   0.01015   0.04237   0.08133  -0.04169
  19   28063.1    356.3   0.028321709   0.00543   0.03782  -0.02906  -0.05618
  20   28164.2    355.1   0.005866238   0.00113  -0.01491   0.00061   0.03011
  21   28777.4    347.5   0.018938835   0.00372   0.04213  -0.02850  -0.03373
  22   28860.5    346.5   0.006752575   0.00133  -0.00603  -0.03316   0.01401
  23   29447.8    339.6   0.018723079   0.00377   0.03639   0.01410  -0.04738
  24   29740.9    336.2   0.004802541   0.00098   0.02980  -0.00527  -0.00778
  25   29892.8    334.5   0.050170097   0.01025  -0.06731   0.03251   0.06828
  26   30099.6    332.2   0.100951179   0.02077   0.09735   0.07188  -0.07825
  27   30158.9    331.6   0.020610207   0.00425  -0.03815  -0.03171   0.04227
  28   30488.7    328.0   0.006108729   0.00127  -0.02113  -0.02450   0.01503
  29   30723.0    325.5   0.023956667   0.00503   0.01150   0.06619   0.02274
  30   31348.3    319.0   0.021460820   0.00460  -0.00605   0.06596  -0.01452
  31   31470.8    317.8   0.099342920   0.02137   0.11329   0.08283  -0.04090
  32   31713.1    315.3   0.022242712   0.00482  -0.06849   0.00053   0.01138
  33   31912.0    313.4   0.003429083   0.00075  -0.02274  -0.01114  -0.01034
  34   32235.8    310.2   0.001813081   0.00040  -0.00815  -0.01427  -0.01137
  35   32353.8    309.1   0.032432330   0.00717   0.00512  -0.06018   0.05936
  36   32733.1    305.5   0.023895567   0.00535  -0.03482  -0.03678  -0.05273
  37   32878.7    304.1   0.037058032   0.00833  -0.06283   0.06441   0.01523
  38   33083.0    302.3   0.113658518   0.02570  -0.00085   0.15477  -0.04178
  39   33387.3    299.5   0.142798445   0.03258   0.12297   0.04955  -0.12250
  40   33529.7    298.2   0.006889833   0.00158  -0.01217  -0.00521   0.03746
  41   33902.8    295.0   0.241198585   0.05589   0.11422   0.17124  -0.11627
  42   33990.6    294.2   0.224159317   0.05207   0.00428  -0.14538   0.17584
  43   34062.8    293.6   0.094536019   0.02201  -0.07093  -0.10218   0.08085
  44   34375.3    290.9   0.068256012   0.01604   0.09324   0.05053  -0.06920
  45   34515.1    289.7   0.007216238   0.00170  -0.00149  -0.00136   0.04121
  46   34735.8    287.9   0.330668991   0.07850  -0.24552  -0.03949   0.12909
  47   34810.4    287.3   0.024964130   0.00594   0.00501  -0.07400  -0.02095
  48   34833.6    287.1   0.012075943   0.00287   0.01734   0.04791   0.01670
  49   35083.4    285.0   0.077100477   0.01849  -0.08049  -0.09274   0.05837
  50   35263.7    283.6   0.018952029   0.00457  -0.00451  -0.03085  -0.05996
  51   35547.9    281.3   0.067119207   0.01631   0.00527   0.10460   0.07307
  52   35646.6    280.5   0.022377447   0.00545  -0.02826  -0.05808  -0.03577
  53   35819.5    279.2   0.094645002   0.02317   0.09959   0.02571  -0.11221
  54   35968.1    278.0   0.074983484   0.01843  -0.07929   0.10801  -0.02189
  55   36186.9    276.3   0.041400272   0.01024  -0.06970  -0.06096   0.04080
  56   36443.5    274.4   0.030035811   0.00748   0.05697  -0.01309  -0.06375
  57   36520.3    273.8   0.017332400   0.00433   0.01850  -0.05830  -0.02419
  58   36631.6    273.0   0.006575650   0.00165   0.01241   0.02504  -0.02942
  59   36838.7    271.5   0.018513789   0.00466  -0.00938   0.05716  -0.03614
  60   37117.8    269.4   0.055544827   0.01409   0.02255   0.11628  -0.00781
  61   37160.6    269.1   0.013209797   0.00335  -0.01026  -0.03426   0.04556
  62   37291.2    268.2   0.066414443   0.01693  -0.04308  -0.06309   0.10531
  63   37387.0    267.5   0.017081464   0.00436   0.06145  -0.02345  -0.00617
  64   37588.2    266.0   0.006154052   0.00158   0.01936  -0.02354  -0.02553
  65   37675.9    265.4   0.008651205   0.00223   0.01010   0.04310  -0.01637
  66   37884.4    264.0   0.013588888   0.00352  -0.01867  -0.01851   0.05317
  67   38054.4    262.8   0.059465219   0.01547  -0.03935  -0.11764   0.00885
  68   38323.7    260.9   0.050332110   0.01318   0.04288  -0.07906  -0.07137
  69   38419.1    260.3   0.125580267   0.03297  -0.07760  -0.08378   0.14119
  70   38487.2    259.8   0.116016364   0.03052   0.10330  -0.01627  -0.13993
  71   38571.9    259.3   0.101592190   0.02678   0.12998  -0.07035  -0.07026
  72   38688.5    258.5   0.000939752   0.00025  -0.00970  -0.00870  -0.00887
  73   38847.2    257.4   0.144668954   0.03841  -0.12286  -0.09480   0.11970
  74   38942.3    256.8   0.002208264   0.00059  -0.01433  -0.01899   0.00469
  75   39078.7    255.9   0.005796828   0.00155  -0.00096  -0.00696   0.03872
  76   39283.0    254.6   0.009474839   0.00254  -0.02098  -0.04402   0.01287
  77   39469.2    253.4   0.129856660   0.03503   0.15916   0.05823  -0.07940
  78   39596.4    252.5   0.031119199   0.00842  -0.08953  -0.01338   0.01507
  79   39655.5    252.2   0.010032194   0.00272   0.01312   0.03316  -0.03805
  80   39802.9    251.2   0.044680600   0.01215  -0.06235  -0.06740   0.06103
  81   40265.4    248.4   0.023871146   0.00657   0.06346   0.03971  -0.03107
  82   40318.0    248.0   0.013183415   0.00363  -0.04366   0.01637   0.03819

-------------------------------------------------------------------
                             CD SPECTRUM
-------------------------------------------------------------------
State   Energy Wavelength       R         MX        MY        MZ   
        (cm-1)   (nm)       (1e40*cgs)   (au)      (au)      (au)  
-------------------------------------------------------------------
   0    8724.8   1146.2    564.73435  -1.95991  -2.43264  -6.12573
   1   14605.8    684.7    -1654.44785  -1.71113  -0.06385  -4.34660
   2   15781.7    633.6     18.70768  -0.44834  -0.52240  -0.22485
   3   18296.9    546.5    701.49933   0.62856   1.58188  -3.87455
   4   18959.0    527.5    -133.42237  -0.01876   0.09032  -1.68510
   5   19857.2    503.6    407.55852   1.24817   1.71326  -3.65963
   6   20856.8    479.5    -157.40922  -0.62049  -0.75684  -3.12477
   7   21514.0    464.8     62.13863   0.11763   0.16205   4.43123
   8   21874.3    457.2    909.87549   0.49314   0.01986   7.80959
   9   21906.0    456.5    239.46558   0.48786   0.35583  -1.41300
  10   23099.3    432.9      4.12560  -0.74997  -1.10505  -2.03530
  11   23748.2    421.1     87.07933  -0.15601  -0.95210   0.85951
  12   24026.6    416.2    -93.62378  -0.22826   0.26153  -0.66919
  13   25220.8    396.5    -1008.33412   0.56121  -0.25906   9.60434
  14   25610.4    390.5     38.72019  -1.49378  -2.04611  -1.78655
  15   26046.6    383.9     31.65575   0.26351   0.47233  -0.55900
  16   26773.9    373.5    -200.02288   0.10034  -0.15304   1.58432
  17   27436.7    364.5     -7.11635  -0.20968  -0.59771  -0.64598
  18   27798.4    359.7    -98.29816  -0.64500  -0.42135  -2.67281
  19   28063.1    356.3     54.10434  -0.70875  -1.39130   0.65562
  20   28164.2    355.1      1.87167   0.46627   0.32309   0.20235
  21   28777.4    347.5    -20.05556  -0.70981  -1.38961  -0.11543
  22   28860.5    346.5     16.93492   0.30129   0.50372   0.71547
  23   29447.8    339.6     68.63061  -0.22363   0.15007   0.69195
  24   29740.9    336.2      5.65295   0.10785   0.47202   0.33203
  25   29892.8    334.5    -50.54970   1.12295   2.59030   0.35575
  26   30099.6    332.2    149.91593  -1.31629  -2.27964  -2.78857
  27   30158.9    331.6     -2.98470   0.14797   0.55520   0.57378
  28   30488.7    328.0      5.90158   0.06213   0.89471   1.31825
  29   30723.0    325.5    -66.71843   0.22202   1.31737  -2.19879
  30   31348.3    319.0     28.63533  -0.29837  -0.60447  -1.61312
  31   31470.8    317.8     70.96111  -0.98252  -1.58594  -4.72359
  32   31713.1    315.3     10.58015   0.44024   0.55389   2.02912
  33   31912.0    313.4     46.95041   0.18525   0.25243   1.48676
  34   32235.8    310.2    -15.84986  -0.29408  -0.86801   0.35227
  35   32353.8    309.1    -59.19086   0.82685   0.53834   1.05783
  36   32733.1    305.5     73.70923  -0.62206  -0.91205   1.68508
  37   32878.7    304.1    -29.00655   0.31615   0.85891  -0.98735
  38   33083.0    302.3    -291.83438  -0.26114   0.25684  -3.02322
  39   33387.3    299.5    104.91430  -1.45243  -2.25014  -1.79230
  40   33529.7    298.2     37.80267   0.49605   1.49597  -0.13721
  41   33902.8    295.0    -269.92488  -1.24769  -1.24584  -4.51016
  42   33990.6    294.2    288.67646   0.86951  -1.02212  -1.88493
  43   34062.8    293.6    -25.12430   0.57019   0.88448   1.78131
  44   34375.3    290.9    -42.20600  -1.06555  -0.99059  -2.58917
  45   34515.1    289.7    -124.85249   1.29630   2.60838   1.96480
  46   34735.8    287.9     85.21305   2.01633   3.40957   4.53113
  47   34810.4    287.3    -23.90197  -0.32388  -0.65358   1.28204
  48   34833.6    287.1    164.53117   0.01149  -1.44536  -2.05763
  49   35083.4    285.0     -0.24969   0.52340   0.59406   1.68352
  50   35263.7    283.6     62.06317  -0.71477  -1.07448   1.47629
  51   35547.9    281.3     22.77975   0.74969   2.39792  -3.81265
  52   35646.6    280.5     45.39810  -0.32976  -0.57123   2.28987
  53   35819.5    279.2    107.07341  -1.31755  -2.59015  -1.14676
  54   35968.1    278.0    -64.14956  -0.13765  -0.03129  -1.97688
  55   36186.9    276.3    -116.70914   0.19372  -0.64559   1.28863
  56   36443.5    274.4     25.58151  -0.81319  -2.71073   0.10179
  57   36520.3    273.8    -34.11873  -0.14632  -0.99018   1.51162
  58   36631.6    273.0     -5.06743  -0.55476  -1.16793  -1.46700
  59   36838.7    271.5     10.17208  -0.01165  -0.13340  -0.03358
  60   37117.8    269.4    -11.58832   0.04579  -0.11401  -2.74953
  61   37160.6    269.1     10.98780   0.30454  -0.10994  -0.18322
  62   37291.2    268.2     58.05587   0.97476   1.08226   0.68592
  63   37387.0    267.5    -20.19462  -0.20059  -0.97162  -0.82064
  64   37588.2    266.0    -32.19875  -0.53960  -1.19754  -0.13348
  65   37675.9    265.4    -40.62019   0.00600   0.46741  -0.45907
  66   37884.4    264.0     59.63053   0.56420   0.66540  -0.31468
  67   38054.4    262.8    -128.29074   0.15092  -0.45267   3.86368
  68   38323.7    260.9    -32.14878  -1.02469  -2.32348   1.65663
  69   38419.1    260.3    139.33632   1.12579   0.62490   0.31729
  70   38487.2    259.8    202.26273  -1.91809  -4.38614  -0.00761
  71   38571.9    259.3    -161.53326  -1.63323  -3.76870  -1.04085
  72   38688.5    258.5     49.82283   0.60834   1.25770   2.07667
  73   38847.2    257.4     65.41677   1.68514   2.95387   3.74306
  74   38942.3    256.8      0.01350  -0.06848   0.08092   0.16579
  75   39078.7    255.9    -19.78331   0.68044   1.34111   0.43970
  76   39283.0    254.6    -55.69546  -0.13389  -0.64764   0.55451
  77   39469.2    253.4     58.92443  -0.51680   0.18315  -0.38667
  78   39596.4    252.5     -9.38691   0.07626  -0.75447   0.17234
  79   39655.5    252.2    -15.95278  -0.28696  -0.00342  -0.42441
  80   39802.9    251.2    -64.00954   0.64643   0.39131   1.81236
  81   40265.4    248.4     33.56633  -0.63027  -1.30654  -2.12646
  82   40318.0    248.0    -11.58532   0.57230   1.08244   0.32647

sTD-DFT done

Total run time:        7.940 sec

           *** ORCA-CIS/TD-DFT FINISHED WITHOUT ERROR ***

-------------------------   --------------------
FINAL SINGLE POINT ENERGY     -7131.641405236995
-------------------------   --------------------


                            ***************************************
                            *     ORCA property calculations      *
                            ***************************************

                                    ---------------------
                                    Active property flags
                                    ---------------------
   (+) Dipole Moment


------------------------------------------------------------------------------
                       ORCA ELECTRIC PROPERTIES CALCULATION
------------------------------------------------------------------------------

Dipole Moment Calculation                       ... on
Quadrupole Moment Calculation                   ... off
Polarizability Calculation                      ... off
GBWName                                         ... xtbopt.gbw
Electron density file                           ... xtbopt.scfp
The origin for moment calculation is the CENTER OF MASS  = (19.264845, -14.024472 -0.170389)

-------------
DIPOLE MOMENT
-------------
                                X             Y             Z
Electronic contribution:     22.47603      41.34302     -50.39163
Nuclear contribution   :    -24.19467     -45.83462      54.87644
                        -----------------------------------------
Total Dipole Moment    :     -1.71864      -4.49160       4.48481
                        -----------------------------------------
Magnitude (a.u.)       :      6.57585
Magnitude (Debye)      :     16.71447



--------------------
Rotational spectrum 
--------------------
 
Rotational constants in cm-1:     0.000576     0.000156     0.000135 
Rotational constants in MHz :    17.265994     4.685090     4.056453 

 Dipole components along the rotational axes: 
x,y,z [a.u.] :    -1.070575     6.119231     2.156532 
x,y,z [Debye]:    -2.721185    15.553850     5.481468 

 

Timings for individual modules:

Sum of individual times         ...     1129.733 sec (=  18.829 min)
GTO integral calculation        ...        4.846 sec (=   0.081 min)   0.4 %
SCF iterations                  ...     1116.199 sec (=  18.603 min)  98.8 %
CIS module                      ...        8.688 sec (=   0.145 min)   0.8 %
                             ****ORCA TERMINATED NORMALLY****
TOTAL RUN TIME: 0 days 0 hours 18 minutes 50 seconds 944 msec
