
                                 *****************
                                 * O   R   C   A *
                                 *****************

           --- An Ab Initio, DFT and Semiempirical electronic structure package ---

                  #######################################################
                  #                        -***-                        #
                  #          Department of theory and spectroscopy      #
                  #               Directorship: Frank Neese             #
                  #        Max Planck Institute fuer Kohlenforschung    #
                  #                Kaiser Wilhelm Platz 1               #
                  #                 D-45470 Muelheim/Ruhr               #
                  #                      Germany                        #
                  #                                                     #
                  #                  All rights reserved                #
                  #                        -***-                        #
                  #######################################################


                         Program Version 4.2.0 -  RELEASE  -


 With contributions from (in alphabetic order):
   Daniel Aravena         : Magnetic Suceptibility
   Michael Atanasov       : Ab Initio Ligand Field Theory (pilot matlab implementation)
   Alexander A. Auer      : GIAO ZORA, VPT2
   Ute Becker             : Parallelization
   Giovanni Bistoni       : ED, misc. LED, open-shell LED, HFLED
   Martin Brehm           : Molecular dynamics
   Dmytro Bykov           : SCF Hessian
   Vijay G. Chilkuri      : MRCI spin determinant printing, contributions to CSF-ICE
   Dipayan Datta          : RHF DLPNO-CCSD density
   Achintya Kumar Dutta   : EOM-CC, STEOM-CC
   Dmitry Ganyushin       : Spin-Orbit,Spin-Spin,Magnetic field MRCI
   Miquel Garcia          : C-PCM Hessian, Gaussian charge scheme
   Yang Guo               : DLPNO-NEVPT2, CIM, IAO-localization
   Andreas Hansen         : Spin unrestricted coupled pair/coupled cluster methods
   Benjamin Helmich-Paris : CASSCF linear response (MC-RPA)
   Lee Huntington         : MR-EOM, pCC
   Robert Izsak           : Overlap fitted RIJCOSX, COSX-SCS-MP3, EOM
   Christian Kollmar      : KDIIS, OOCD, Brueckner-CCSD(T), CCSD density
   Simone Kossmann        : Meta GGA functionals, TD-DFT gradient, OOMP2, MP2 Hessian
   Martin Krupicka        : AUTO-CI
   Lucas Lang             : DCDCAS
   Dagmar Lenk            : GEPOL surface, SMD
   Dimitrios Liakos       : Extrapolation schemes; Compound Job, initial MDCI parallelization
   Dimitrios Manganas     : Further ROCIS development; embedding schemes
   Dimitrios Pantazis     : SARC Basis sets
   Taras Petrenko         : DFT Hessian,TD-DFT gradient, ASA, ECA, R-Raman, ABS, FL, XAS/XES, NRVS
   Peter Pinski           : DLPNO-MP2, DLPNO-MP2 Gradient
   Christoph Reimann      : Effective Core Potentials
   Marius Retegan         : Local ZFS, SOC
   Christoph Riplinger    : Optimizer, TS searches, QM/MM, DLPNO-CCSD(T), (RO)-DLPNO pert. Triples
   Tobias Risthaus        : Range-separated hybrids, TD-DFT gradient, RPA, STAB
   Michael Roemelt        : Original ROCIS implementation
   Masaaki Saitow         : Open-shell DLPNO-CCSD energy and density
   Barbara Sandhoefer     : DKH picture change effects
   Avijit Sen             : IP-ROCIS
   Kantharuban Sivalingam : CASSCF convergence, NEVPT2, FIC-MRCI
   Bernardo de Souza      : ESD, SOC TD-DFT
   Georgi Stoychev        : AutoAux, RI-MP2 NMR
   Willem Van den Heuvel  : Paramagnetic NMR
   Boris Wezisla          : Elementary symmetry handling
   Frank Wennmohs         : Technical directorship


 We gratefully acknowledge several colleagues who have allowed us to
 interface, adapt or use parts of their codes:
   Stefan Grimme, W. Hujo, H. Kruse,             : VdW corrections, initial TS optimization,
                  C. Bannwarth                     DFT functionals, gCP, sTDA/sTD-DF
   Ed Valeev, F. Pavosevic, A. Kumar             : LibInt (2-el integral package), F12 methods
   Garnet Chan, S. Sharma, J. Yang, R. Olivares  : DMRG
   Ulf Ekstrom                                   : XCFun DFT Library
   Mihaly Kallay                                 : mrcc  (arbitrary order and MRCC methods)
   Andreas Klamt, Michael Diedenhofen            : otool_cosmo (COSMO solvation model)
   Jiri Pittner, Ondrej Demel                    : Mk-CCSD
   Frank Weinhold                                : gennbo (NPA and NBO analysis)
   Christopher J. Cramer and Donald G. Truhlar   : smd solvation model
   Lars Goerigk                                  : TD-DFT with DH, B97 family of functionals
   V. Asgeirsson, H. Jonsson                     : NEB implementation
   FAccTs GmbH                                   : IRC, NEB, NEB-TS, Multilevel, MM, QM/MM, CI optimization
   S Lehtola, MJT Oliveira, MAL Marques          : LibXC Library


 Your calculation uses the libint2 library for the computation of 2-el integrals
 For citations please refer to: http://libint.valeyev.net

 Your ORCA version has been built with support for libXC version: 4.2.3
 For citations please refer to: https://tddft.org/programs/libxc/

 This ORCA versions uses:
   CBLAS   interface :  Fast vector & matrix operations
   LAPACKE interface :  Fast linear algebra routines
   SCALAPACK package :  Parallel linear algebra routines


XCFun DFT library Copyright 2009-2010 Ulf Ekstrom and contributors.
See http://admol.org/xcfun for more information. This is free soft-
ware; see the source code for copying conditions. There is ABSOLUTELY
NO WARRANTY; not even for MERCHANTABILITY or FITNESS FOR A PARTICULAR
PURPOSE. For details see the documentation. Scientific users of this 
library should cite U. Ekstrom, L. Visscher, R. Bast, A. J. Thorvald-
sen and K. Ruud; J.Chem.Theor.Comp. 2010, DOI: 10.1021/ct100117s
XCFun Version 0.99 
----- Orbital basis set information -----
Your calculation utilizes the basis: def2-SVP
   F. Weigend and R. Ahlrichs, Phys. Chem. Chem. Phys. 7, 3297 (2005).

----- AuxJ basis set information -----
Your calculation utilizes the auxiliary basis: def2/J
   F. Weigend, Phys. Chem. Chem. Phys. 8, 1057 (2006).

================================================================================
                                        WARNINGS
                       Please study these warnings very carefully!
================================================================================

INFO   : Checking CIS options ...

WARNING: CIS/ROCIS methods need fully converged wavefunctions
  ===> : Setting SCFConvForced true
         You can overwrite this default with %scf ConvForced false 


INFO   : the flag for use of LIBINT has been found!

================================================================================
                                       INPUT FILE
================================================================================
NAME = xtbopt.inp
|  1> # ORCA input file
|  2> # SCF done       -184.460075479722          0.000707562311
|  3> ! CAM-B3LYP def2-SVP def2/J RIJCOSX Grid4 TightSCF
|  4> %maxcore 5000
|  5> %tddft
|  6>     Mode sTDDFT
|  7>     Ethresh 5.0
|  8>     maxcore 5000
|  9> end
| 10> 
| 11> %pal
| 12>   nprocs 6
| 13>   end
| 14> * xyz 0 1
| 15>    C        1.27537        -2.46063        -0.11535
| 16>    F        2.24280        -2.13876        -0.97772
| 17>    C        1.21268        -1.83094         1.12425
| 18>    F        2.10656        -0.89785         1.45614
| 19>    C        0.20344        -2.19138         2.01188
| 20>    F        0.11966        -1.59509         3.20334
| 21>    C       -0.72246        -3.16186         1.65687
| 22>    F       -1.69472        -3.44416         2.53338
| 23>    C       -0.69153        -3.81449         0.41523
| 24>    C        0.34318        -3.43149        -0.45240
| 25>    F        0.47904        -4.03361        -1.64141
| 26>    C       -1.66289        -4.83391         0.04524
| 27>    C       -2.15564        -4.94691        -1.22638
| 28>    C       -3.06748        -5.91902        -1.64739
| 29>    C       -3.48267        -6.99804        -0.73452
| 30>    C       -3.13398        -7.06586         0.56777
| 31>    S       -2.13821        -5.91541         1.35522
| 32>    C       -4.28514        -7.86833        -1.51765
| 33>    C       -4.37480        -7.37342        -2.81922
| 34>    C       -5.16944        -8.19566        -3.64877
| 35>    C       -5.64919        -9.27059        -2.97130
| 36>    S       -5.16501        -9.33038        -1.30841
| 37>    C       -3.64130        -6.13863        -2.90905
| 38>    C       -3.58995        -5.37080        -4.10395
| 39>    C       -3.29570        -4.05596        -4.23020
| 40>    C       -3.27835        -3.36594        -5.47216
| 41>    C       -3.05682        -2.03300        -5.67659
| 42>    C       -3.11021        -1.63555        -7.03171
| 43>    C       -3.37717        -2.71826        -7.91019
| 44>    S       -3.56037        -4.20072        -6.98942
| 45>    C       -3.46144        -2.53030        -9.27903
| 46>    O       -3.69719        -3.44373       -10.25656
| 47>    C       -3.89350        -4.79802        -9.93137
| 48>    C       -3.28394        -1.21012        -9.74443
| 49>    C       -3.03210        -0.12577        -8.86598
| 50>    C       -2.93058        -0.31669        -7.49803
| 51>    O       -2.68424         0.60024        -6.52451
| 52>    C       -2.41636         1.93798        -6.86820
| 53>    S       -2.90092         1.36187        -9.78661
| 54>    C       -3.16846         0.52082       -11.30085
| 55>    C       -3.34848        -0.81778       -11.10144
| 56>    C       -3.18826         1.25415       -12.53054
| 57>    C       -3.19409         0.64909       -13.75866
| 58>    C       -3.23575         1.32669       -14.98095
| 59>    C       -3.28634         2.79296       -15.03427
| 60>    C       -3.27146         3.59270       -13.94678
| 61>    S       -3.20851         3.00533       -12.33646
| 62>    C       -3.33399         3.11008       -16.41729
| 63>    C       -3.30572         1.93956       -17.17999
| 64>    C       -3.36201         2.22701       -18.56399
| 65>    C       -3.42539         3.56244       -18.80474
| 66>    S       -3.42061         4.53598       -17.37456
| 67>    C       -3.23564         0.80943       -16.28513
| 68>    C       -3.15853        -0.57849       -16.58334
| 69>    C       -3.07823        -1.12851       -17.81358
| 70>    C       -2.96417        -2.54185       -18.09705
| 71>    C       -2.87772        -2.95828       -19.39987
| 72>    O       -2.74516        -4.24300       -19.78413
| 73>    C       -2.67063        -5.21888       -18.85270
| 74>    C       -2.50670        -6.53328       -19.29399
| 75>    C       -2.42505        -7.55176       -18.37156
| 76>    C       -2.50611        -7.27920       -17.00719
| 77>    C       -2.66977        -5.98473       -16.57362
| 78>    C       -2.75430        -4.93191       -17.48971
| 79>    C       -2.92883        -3.54742       -17.02140
| 80>    O       -3.03305        -3.30275       -15.82805
| 81>    C       -2.91768        -2.05407       -20.59524
| 82>    H       -1.81145        -4.23393        -1.95941
| 83>    H       -3.47350        -7.85584         1.21911
| 84>    H       -5.37606        -8.00770        -4.68676
| 85>    H       -6.27514       -10.05734        -3.34500
| 86>    H       -3.86976        -5.90634        -5.00414
| 87>    H       -3.09754        -3.44140        -3.36412
| 88>    H       -2.86142        -1.33486        -4.88348
| 89>    H       -4.77376        -4.93884        -9.29855
| 90>    H       -3.01774        -5.22786        -9.43816
| 91>    H       -4.05178        -5.29992       -10.88502
| 92>    H       -2.21242         2.44180        -5.92418
| 93>    H       -3.27417         2.41289        -7.35170
| 94>    H       -1.54104         2.02114        -7.51767
| 95>    H       -3.54022        -1.52908       -11.88225
| 96>    H       -3.15912        -0.43026       -13.77520
| 97>    H       -3.29768         4.66901       -14.01354
| 98>    H       -3.36295         1.50119       -19.35642
| 99>    H       -3.47693         4.05587       -19.75584
|100>    H       -3.14847        -1.23650       -15.72937
|101>    H       -3.07797        -0.47908       -18.67393
|102>    H       -2.44562        -6.72276       -20.35414
|103>    H       -2.29656        -8.56894       -18.70956
|104>    H       -2.43971        -8.08702       -16.29454
|105>    H       -2.73614        -5.74029       -15.52427
|106>    H       -2.08198        -1.35631       -20.58243
|107>    H       -3.84577        -1.48601       -20.62211
|108>    H       -2.85182        -2.66297       -21.49344
|109> *
|110> 
|111>                          ****END OF INPUT****
================================================================================

                       ****************************
                       * Single Point Calculation *
                       ****************************

---------------------------------
CARTESIAN COORDINATES (ANGSTROEM)
---------------------------------
  C      1.275370   -2.460630   -0.115350
  F      2.242800   -2.138760   -0.977720
  C      1.212680   -1.830940    1.124250
  F      2.106560   -0.897850    1.456140
  C      0.203440   -2.191380    2.011880
  F      0.119660   -1.595090    3.203340
  C     -0.722460   -3.161860    1.656870
  F     -1.694720   -3.444160    2.533380
  C     -0.691530   -3.814490    0.415230
  C      0.343180   -3.431490   -0.452400
  F      0.479040   -4.033610   -1.641410
  C     -1.662890   -4.833910    0.045240
  C     -2.155640   -4.946910   -1.226380
  C     -3.067480   -5.919020   -1.647390
  C     -3.482670   -6.998040   -0.734520
  C     -3.133980   -7.065860    0.567770
  S     -2.138210   -5.915410    1.355220
  C     -4.285140   -7.868330   -1.517650
  C     -4.374800   -7.373420   -2.819220
  C     -5.169440   -8.195660   -3.648770
  C     -5.649190   -9.270590   -2.971300
  S     -5.165010   -9.330380   -1.308410
  C     -3.641300   -6.138630   -2.909050
  C     -3.589950   -5.370800   -4.103950
  C     -3.295700   -4.055960   -4.230200
  C     -3.278350   -3.365940   -5.472160
  C     -3.056820   -2.033000   -5.676590
  C     -3.110210   -1.635550   -7.031710
  C     -3.377170   -2.718260   -7.910190
  S     -3.560370   -4.200720   -6.989420
  C     -3.461440   -2.530300   -9.279030
  O     -3.697190   -3.443730  -10.256560
  C     -3.893500   -4.798020   -9.931370
  C     -3.283940   -1.210120   -9.744430
  C     -3.032100   -0.125770   -8.865980
  C     -2.930580   -0.316690   -7.498030
  O     -2.684240    0.600240   -6.524510
  C     -2.416360    1.937980   -6.868200
  S     -2.900920    1.361870   -9.786610
  C     -3.168460    0.520820  -11.300850
  C     -3.348480   -0.817780  -11.101440
  C     -3.188260    1.254150  -12.530540
  C     -3.194090    0.649090  -13.758660
  C     -3.235750    1.326690  -14.980950
  C     -3.286340    2.792960  -15.034270
  C     -3.271460    3.592700  -13.946780
  S     -3.208510    3.005330  -12.336460
  C     -3.333990    3.110080  -16.417290
  C     -3.305720    1.939560  -17.179990
  C     -3.362010    2.227010  -18.563990
  C     -3.425390    3.562440  -18.804740
  S     -3.420610    4.535980  -17.374560
  C     -3.235640    0.809430  -16.285130
  C     -3.158530   -0.578490  -16.583340
  C     -3.078230   -1.128510  -17.813580
  C     -2.964170   -2.541850  -18.097050
  C     -2.877720   -2.958280  -19.399870
  O     -2.745160   -4.243000  -19.784130
  C     -2.670630   -5.218880  -18.852700
  C     -2.506700   -6.533280  -19.293990
  C     -2.425050   -7.551760  -18.371560
  C     -2.506110   -7.279200  -17.007190
  C     -2.669770   -5.984730  -16.573620
  C     -2.754300   -4.931910  -17.489710
  C     -2.928830   -3.547420  -17.021400
  O     -3.033050   -3.302750  -15.828050
  C     -2.917680   -2.054070  -20.595240
  H     -1.811450   -4.233930   -1.959410
  H     -3.473500   -7.855840    1.219110
  H     -5.376060   -8.007700   -4.686760
  H     -6.275140  -10.057340   -3.345000
  H     -3.869760   -5.906340   -5.004140
  H     -3.097540   -3.441400   -3.364120
  H     -2.861420   -1.334860   -4.883480
  H     -4.773760   -4.938840   -9.298550
  H     -3.017740   -5.227860   -9.438160
  H     -4.051780   -5.299920  -10.885020
  H     -2.212420    2.441800   -5.924180
  H     -3.274170    2.412890   -7.351700
  H     -1.541040    2.021140   -7.517670
  H     -3.540220   -1.529080  -11.882250
  H     -3.159120   -0.430260  -13.775200
  H     -3.297680    4.669010  -14.013540
  H     -3.362950    1.501190  -19.356420
  H     -3.476930    4.055870  -19.755840
  H     -3.148470   -1.236500  -15.729370
  H     -3.077970   -0.479080  -18.673930
  H     -2.445620   -6.722760  -20.354140
  H     -2.296560   -8.568940  -18.709560
  H     -2.439710   -8.087020  -16.294540
  H     -2.736140   -5.740290  -15.524270
  H     -2.081980   -1.356310  -20.582430
  H     -3.845770   -1.486010  -20.622110
  H     -2.851820   -2.662970  -21.493440

----------------------------
CARTESIAN COORDINATES (A.U.)
----------------------------
  NO LB      ZA    FRAG     MASS         X           Y           Z
   0 C     6.0000    0    12.011    2.410100   -4.649917   -0.217980
   1 F     9.0000    0    18.998    4.238278   -4.041671   -1.847623
   2 C     6.0000    0    12.011    2.291633   -3.459975    2.124525
   3 F     9.0000    0    18.998    3.980821   -1.696691    2.751706
   4 C     6.0000    0    12.011    0.384446   -4.141108    3.801902
   5 F     9.0000    0    18.998    0.226125   -3.014283    6.053435
   6 C     6.0000    0    12.011   -1.365252   -5.975049    3.131031
   7 F     9.0000    0    18.998   -3.202557   -6.508519    4.787394
   8 C     6.0000    0    12.011   -1.306802   -7.208341    0.784671
   9 C     6.0000    0    12.011    0.648516   -6.484576   -0.854912
  10 F     9.0000    0    18.998    0.905254   -7.622418   -3.101815
  11 C     6.0000    0    12.011   -3.142407   -9.134766    0.085491
  12 C     6.0000    0    12.011   -4.073569   -9.348305   -2.317522
  13 C     6.0000    0    12.011   -5.796697  -11.185327   -3.113116
  14 C     6.0000    0    12.011   -6.581293  -13.224379   -1.388042
  15 C     6.0000    0    12.011   -5.922364  -13.352540    1.072930
  16 S    16.0000    0    32.060   -4.040631  -11.178505    2.560995
  17 C     6.0000    0    12.011   -8.097741  -14.868989   -2.867943
  18 C     6.0000    0    12.011   -8.267174  -13.933744   -5.327554
  19 C     6.0000    0    12.011   -9.768826  -15.487553   -6.895176
  20 C     6.0000    0    12.011  -10.675422  -17.518876   -5.614943
  21 S    16.0000    0    32.060   -9.760454  -17.631863   -2.472537
  22 C     6.0000    0    12.011   -6.881060  -11.600330   -5.497308
  23 C     6.0000    0    12.011   -6.784022  -10.149341   -7.755342
  24 C     6.0000    0    12.011   -6.227970   -7.664654   -7.993919
  25 C     6.0000    0    12.011   -6.195184   -6.360705  -10.340884
  26 C     6.0000    0    12.011   -5.776553   -3.841813  -10.727200
  27 C     6.0000    0    12.011   -5.877445   -3.090742  -13.288006
  28 C     6.0000    0    12.011   -6.381926   -5.136767  -14.948093
  29 S    16.0000    0    32.060   -6.728124   -7.938210  -13.208090
  30 C     6.0000    0    12.011   -6.541174   -4.781574  -17.534825
  31 O     8.0000    0    15.999   -6.986677   -6.507707  -19.382089
  32 C     6.0000    0    12.011   -7.357649   -9.066944  -18.767569
  33 C     6.0000    0    12.011   -6.205747   -2.286795  -18.414304
  34 C     6.0000    0    12.011   -5.729839   -0.237671  -16.754274
  35 C     6.0000    0    12.011   -5.537994   -0.598457  -14.169223
  36 O     8.0000    0    15.999   -5.072478    1.134289  -12.329537
  37 C     6.0000    0    12.011   -4.566259    3.662251  -12.979017
  38 S    16.0000    0    32.060   -5.481944    2.573561  -18.494013
  39 C     6.0000    0    12.011   -5.987522    0.984207  -21.355512
  40 C     6.0000    0    12.011   -6.327710   -1.545380  -20.978681
  41 C     6.0000    0    12.011   -6.024938    2.370000  -23.679289
  42 C     6.0000    0    12.011   -6.035955    1.226602  -26.000099
  43 C     6.0000    0    12.011   -6.114681    2.507081  -28.309893
  44 C     6.0000    0    12.011   -6.210283    5.277930  -28.410653
  45 C     6.0000    0    12.011   -6.182163    6.789219  -26.355595
  46 S    16.0000    0    32.060   -6.063205    5.679251  -23.312531
  47 C     6.0000    0    12.011   -6.300328    5.877199  -31.024182
  48 C     6.0000    0    12.011   -6.246905    3.665237  -32.465476
  49 C     6.0000    0    12.011   -6.353278    4.208439  -35.080857
  50 C     6.0000    0    12.011   -6.473049    6.732036  -35.535809
  51 S    16.0000    0    32.060   -6.464016    8.571760  -32.833160
  52 C     6.0000    0    12.011   -6.114473    1.529601  -30.774436
  53 C     6.0000    0    12.011   -5.968757   -1.093188  -31.337971
  54 C     6.0000    0    12.011   -5.817012   -2.132575  -33.662788
  55 C     6.0000    0    12.011   -5.601470   -4.803400  -34.198468
  56 C     6.0000    0    12.011   -5.438103   -5.590339  -36.660441
  57 O     8.0000    0    15.999   -5.187601   -8.018108  -37.386587
  58 C     6.0000    0    12.011   -5.046759   -9.862254  -35.626440
  59 C     6.0000    0    12.011   -4.736976  -12.346110  -36.460357
  60 C     6.0000    0    12.011   -4.582680  -14.270758  -34.717217
  61 C     6.0000    0    12.011   -4.735862  -13.755694  -32.138931
  62 C     6.0000    0    12.011   -5.045134  -11.309501  -31.319603
  63 C     6.0000    0    12.011   -5.204873   -9.319959  -33.050762
  64 C     6.0000    0    12.011   -5.534687   -6.703652  -32.165784
  65 O     8.0000    0    15.999   -5.731634   -6.241293  -29.910680
  66 C     6.0000    0    12.011   -5.513616   -3.881630  -38.919363
  67 H     1.0000    0     1.008   -3.423144   -8.000968   -3.702748
  68 H     1.0000    0     1.008   -6.563964  -14.845386    2.303784
  69 H     1.0000    0     1.008  -10.159281  -15.132360   -8.856693
  70 H     1.0000    0     1.008  -11.858296  -19.005618   -6.321134
  71 H     1.0000    0     1.008   -7.312787  -11.161365   -9.456454
  72 H     1.0000    0     1.008   -5.853502   -6.503304   -6.357265
  73 H     1.0000    0     1.008   -5.407300   -2.522520   -9.228440
  74 H     1.0000    0     1.008   -9.021099   -9.333055  -17.571713
  75 H     1.0000    0     1.008   -5.702702   -9.879224  -17.835538
  76 H     1.0000    0     1.008   -7.656755  -10.015397  -20.569707
  77 H     1.0000    0     1.008   -4.180868    4.614333  -11.195078
  78 H     1.0000    0     1.008   -6.187285    4.559701  -13.892700
  79 H     1.0000    0     1.008   -2.912144    3.819401  -14.206337
  80 H     1.0000    0     1.008   -6.690046   -2.889542  -22.454198
  81 H     1.0000    0     1.008   -5.969872   -0.813074  -26.031355
  82 H     1.0000    0     1.008   -6.231712    8.823150  -26.481753
  83 H     1.0000    0     1.008   -6.355055    2.836838  -36.578333
  84 H     1.0000    0     1.008   -6.570445    7.664484  -37.333127
  85 H     1.0000    0     1.008   -5.949746   -2.336646  -29.724202
  86 H     1.0000    0     1.008   -5.816520   -0.905330  -35.288614
  87 H     1.0000    0     1.008   -4.621552  -12.704175  -38.463750
  88 H     1.0000    0     1.008   -4.339869  -16.192950  -35.355944
  89 H     1.0000    0     1.008   -4.610384  -15.282253  -30.792218
  90 H     1.0000    0     1.008   -5.170555  -10.847576  -29.336619
  91 H     1.0000    0     1.008   -3.934372   -2.563054  -38.895156
  92 H     1.0000    0     1.008   -7.267452   -2.808152  -38.970140
  93 H     1.0000    0     1.008   -5.389159   -5.032284  -40.616715

--------------------------------
INTERNAL COORDINATES (ANGSTROEM)
--------------------------------
 C      0   0   0     0.000000000000     0.00000000     0.00000000
 F      1   0   0     1.335366286342     0.00000000     0.00000000
 C      1   2   0     1.391778607466   119.91803828     0.00000000
 F      3   1   2     1.334102460308   120.51956566     0.54514468
 C      3   1   2     1.391534903659   118.92138727   180.60394580
 F      5   3   1     1.334974825268   119.94200001   180.37882766
 C      5   3   1     1.387499311892   120.12894992   359.86700353
 F      7   5   3     1.339123809698   117.67632601   181.81751439
 C      7   5   3     1.403051129289   122.48402891   359.97258692
 C      1   2   3     1.387497761512   119.90180312   180.63671386
 F     10   1   2     1.339683251407   117.51323787     1.46682333
 C      9   7   5     1.455901777628   122.40393394   179.91334656
 C     12   9   7     1.368425733060   122.29088539   142.54158257
 C     13  12   9     1.397747995098   124.90623555   178.66777618
 C     14  13  12     1.473091488469   120.44055145   354.50998908
 C     15  14  13     1.349867961172   124.18387195     6.35907432
 S     16  15  14     1.713233958892   124.04388460   359.24147141
 C     15  14  13     1.419385564919   105.45954666   186.01119832
 C     18  15  14     1.395370663516   109.48174831   359.70261415
 C     19  18  15     1.412686996365   112.17557655   180.30144160
 C     20  19  18     1.358160582663   111.49659925   359.87435605
 S     18  15  14     1.719169217093   138.04280829   180.04174038
 C     14  13  12     1.403311761548   130.27035517   180.04763624
 C     23  14  13     1.421262024188   131.03717016   352.39432283
 C     24  23  14     1.353265070339   127.67599972   339.27418360
 C     25  24  23     1.420877638820   123.78243051   180.50397148
 C     26  25  24     1.366600237597   127.32973822   176.53705227
 C     27  26  25     1.413211664614   114.30719108   180.37428334
 C     28  27  26     1.419597018911   112.70540120   359.59744911
 S     26  25  24     1.754557162477   121.52355043   356.62481852
 C     29  28  27     1.384251906302   121.32022218   180.31730391
 O     31  29  28     1.358490827463   129.11094479   179.47906576
 C     32  31  29     1.406551654331   120.34867281   359.85414231
 C     31  29  28     1.411020425933   116.45819046   359.28383698
 C     34  31  29     1.418066539553   122.23942812     0.00000000
 C     35  34  31     1.384934640804   121.29725070     0.84672899
 O     36  35  34     1.359847495457   128.86217214   179.39930814
 C     37  36  35     1.406922463429   120.04892327   356.29602236
 S     35  34  31     1.754377541722   109.67059119   181.21119603
 C     39  35  34     1.752673823534    92.00873483   359.62127917
 C     40  39  35     1.365291730181   111.37222270     0.09786929
 C     40  39  35     1.431887713824   119.88828237   179.51227722
 C     42  40  39     1.369091058659   122.96208042   170.09778082
 C     43  42  40     1.398166713844   124.76002629   178.87702352
 C     44  43  42     1.468111059627   121.11810219   359.61189842
 C     45  44  43     1.349977770965   124.19630395     1.30407989
 S     46  45  44     1.715254127469   123.62946791   359.28847690
 C     45  44  43     1.419711216163   105.04786966   180.65875831
 C     48  45  44     1.397364502662   110.11587938   359.58827561
 C     49  48  45     1.414656165505   111.28282854   179.57372033
 C     50  49  48     1.358436922275   112.02397758     0.17088381
 S     48  45  44     1.719610330075   136.81936680   179.35840049
 C     44  43  42     1.403012256575   129.34220208   179.48221863
 C     53  44  43     1.421688110170   123.70432868   358.47652317
 C     54  53  44     1.349985388069   126.30812847   184.01995159
 C     55  54  53     1.445992697112   125.56088677   178.22837230
 C     56  55  54     1.370484403341   119.23085609   180.65633396
 O     57  56  55     1.347491513740   124.54088911   178.79657140
 C     58  57  56     1.351095237280   119.83320587   359.07659784
 C     59  58  57     1.396158038690   117.94151679   181.26106547
 C     60  59  58     1.376533812807   119.45367714   179.90478874
 C     61  60  59     1.393687617115   120.52181377     0.06581312
 C     62  61  60     1.374925496672   119.98372588     0.04148749
 C     59  58  57     1.395383169563   121.43519967     1.28091342
 C     64  59  58     1.471933265165   120.75199376     0.05728942
 O     65  64  59     1.222623997720   120.58923083   178.28566595
 C     57  56  55     1.499367187383   124.95706538   358.76152344
 H     13  12   9     1.078953297136   117.50929471   358.89273164
 H     16  15  14     1.078696447755   122.54956271   178.43389377
 H     20  19  18     1.074915822797   124.98700375   179.94160678
 H     21  20  19     1.072585966252   127.79907862   180.06058071
 H     24  23  14     1.084176537193   114.95295390   162.53275449
 H     25  24  23     1.080299007497   121.18599658   357.67082950
 H     27  26  25     1.074525054012   123.55806084     0.14157313
 H     33  32  31     1.093228746603   111.73002038    61.92713604
 H     33  32  31     1.093148712344   111.78356353   298.86099455
 H     33  32  31     1.089221965855   105.16072734   180.38693760
 H     38  37  36     1.089311652559   105.29052768   182.52313851
 H     38  37  36     1.093229049285   111.81979985    64.02405311
 H     38  37  36     1.093120290224   111.71190369   301.00408499
 H     41  40  39     1.073487854473   124.53906149   179.19884814
 H     43  42  40     1.080043006088   117.08158375   358.57718839
 H     46  45  44     1.078697178127   122.75003915   179.24522233
 H     50  49  48     1.074597999672   125.74863052   180.55339361
 H     51  50  49     1.072716526628   127.70283782   180.03515526
 H     54  53  44     1.078120180963   115.47980799     2.96099997
 H     55  54  53     1.077943187278   118.80929154   359.49248570
 H     60  59  58     1.078680425010   118.85966468     0.00000000
 H     61  60  59     1.079541028632   119.63004836   180.10638823
 H     62  61  60     1.079283157888   119.76560984   180.05711627
 H     63  62  61     1.079486596952   121.80608934   179.99680297
 H     67  57  56     1.088773440023   110.89435749    61.79846875
 H     67  57  56     1.088469204250   110.92442265   300.93407819
 H     67  57  56     1.087133841622   108.62107968   181.30515774

---------------------------
INTERNAL COORDINATES (A.U.)
---------------------------
 C      0   0   0     0.000000000000     0.00000000     0.00000000
 F      1   0   0     2.523476569659     0.00000000     0.00000000
 C      1   2   0     2.630080407161   119.91803828     0.00000000
 F      3   1   2     2.521088284573   120.51956566     0.54514468
 C      3   1   2     2.629619873707   118.92138727   180.60394580
 F      5   3   1     2.522736815436   119.94200001   180.37882766
 C      5   3   1     2.621993710480   120.12894992   359.86700353
 F      7   5   3     2.530577259742   117.67632601   181.81751439
 C      7   5   3     2.651382386246   122.48402891   359.97258692
 C      1   2   3     2.621990780686   119.90180312   180.63671386
 F     10   1   2     2.531634451360   117.51323787     1.46682333
 C      9   7   5     2.751255637606   122.40393394   179.91334656
 C     12   9   7     2.585949870093   122.29088539   142.54158257
 C     13  12   9     2.641360914972   124.90623555   178.66777618
 C     14  13  12     2.783739483417   120.44055145   354.50998908
 C     15  14  13     2.550880763571   124.18387195     6.35907432
 S     16  15  14     3.237542985639   124.04388460   359.24147141
 C     15  14  13     2.682249996138   105.45954666   186.01119832
 C     18  15  14     2.636868409352   109.48174831   359.70261415
 C     19  18  15     2.669591536082   112.17557655   180.30144160
 C     20  19  18     2.566551547120   111.49659925   359.87435605
 S     18  15  14     3.248758998173   138.04280829   180.04174038
 C     14  13  12     2.651874909837   130.27035517   180.04763624
 C     23  14  13     2.685795990259   131.03717016   352.39432283
 C     24  23  14     2.557300369543   127.67599972   339.27418360
 C     25  24  23     2.685069607183   123.78243051   180.50397148
 C     26  25  24     2.582500183610   127.32973822   176.53705227
 C     27  26  25     2.670583015383   114.30719108   180.37428334
 C     28  27  26     2.682649586272   112.70540120   359.59744911
 S     26  25  24     3.315632523392   121.52355043   356.62481852
 C     29  28  27     2.615857003269   121.32022218   180.31730391
 O     31  29  28     2.567175619348   129.11094479   179.47906576
 C     32  31  29     2.657997419899   120.34867281   359.85414231
 C     31  29  28     2.666442174382   116.45819046   359.28383698
 C     34  31  29     2.679757399433   122.23942812     0.00000000
 C     35  34  31     2.617147184501   121.29725070     0.84672899
 O     36  35  34     2.569739350312   128.86217214   179.39930814
 C     37  36  35     2.658698147542   120.04892327   356.29602236
 S     35  34  31     3.315293089357   109.67059119   181.21119603
 C     39  35  34     3.312073528571    92.00873483   359.62127917
 C     40  39  35     2.580027462949   111.37222270     0.09786929
 C     40  39  35     2.705875633654   119.88828237   179.51227722
 C     42  40  39     2.587207153266   122.96208042   170.09778082
 C     43  42  40     2.642152178729   124.76002629   178.87702352
 C     44  43  42     2.774327836877   121.11810219   359.61189842
 C     45  44  43     2.551088274006   124.19630395     1.30407989
 S     46  45  44     3.241360550995   123.62946791   359.28847690
 C     45  44  43     2.682865387805   105.04786966   180.65875831
 C     48  45  44     2.640636219294   110.11587938   359.58827561
 C     49  48  45     2.673312726467   111.28282854   179.57372033
 C     50  49  48     2.567073753307   112.02397758     0.17088381
 S     48  45  44     3.249592580903   136.81936680   179.35840049
 C     44  43  42     2.651308927462   129.34220208   179.48221863
 C     53  44  43     2.686601176074   123.70432868   358.47652317
 C     54  53  44     2.551102668246   126.30812847   184.01995159
 C     55  54  53     2.732530189191   125.56088677   178.22837230
 C     56  55  54     2.589840193124   119.23085609   180.65633396
 O     57  56  55     2.546389928751   124.54088911   178.79657140
 C     58  57  56     2.553199979304   119.83320587   359.07659784
 C     59  58  57     2.638356332798   117.94151679   181.26106547
 C     60  59  58     2.601271920287   119.45367714   179.90478874
 C     61  60  59     2.633687912585   120.52181377     0.06581312
 C     62  61  60     2.598232643257   119.98372588     0.04148749
 C     59  58  57     2.636892042357   121.43519967     1.28091342
 C     64  59  58     2.781550758571   120.75199376     0.05728942
 O     65  64  59     2.310424520450   120.58923083   178.28566595
 C     57  56  55     2.833393358341   124.95706538   358.76152344
 H     13  12   9     2.038926242878   117.50929471   358.89273164
 H     16  15  14     2.038440867891   122.54956271   178.43389377
 H     20  19  18     2.031296522106   124.98700375   179.94160678
 H     21  20  19     2.026893731303   127.79907862   180.06058071
 H     24  23  14     2.048796736118   114.95295390   162.53275449
 H     25  24  23     2.041469266917   121.18599658   357.67082950
 H     27  26  25     2.030558076120   123.55806084     0.14157313
 H     33  32  31     2.065902932810   111.73002038    61.92713604
 H     33  32  31     2.065751689979   111.78356353   298.86099455
 H     33  32  31     2.058331214516   105.16072734   180.38693760
 H     38  37  36     2.058500697825   105.29052768   182.52313851
 H     38  37  36     2.065903504795   111.81979985    64.02405311
 H     38  37  36     2.065697979956   111.71190369   301.00408499
 H     41  40  39     2.028598053044   124.53906149   179.19884814
 H     43  42  40     2.040985494364   117.08158375   358.57718839
 H     46  45  44     2.038442248094   122.75003915   179.24522233
 H     50  49  48     2.030695923441   125.74863052   180.55339361
 H     51  50  49     2.027140454657   127.70283782   180.03515526
 H     54  53  44     2.037351881474   115.47980799     2.96099997
 H     55  54  53     2.037017411882   118.80929154   359.49248570
 H     60  59  58     2.038410589291   118.85966468     0.00000000
 H     61  60  59     2.040036894446   119.63004836   180.10638823
 H     62  61  60     2.039549589361   119.76560984   180.05711627
 H     63  62  61     2.039934033479   121.80608934   179.99680297
 H     67  57  56     2.057483623531   110.89435749    61.79846875
 H     67  57  56     2.056908701239   110.92442265   300.93407819
 H     67  57  56     2.054385231583   108.62107968   181.30515774

---------------------
BASIS SET INFORMATION
---------------------
There are 5 groups of distinct atoms

 Group   1 Type C   : 7s4p1d contracted to 3s2p1d pattern {511/31/1}
 Group   2 Type F   : 7s4p1d contracted to 3s2p1d pattern {511/31/1}
 Group   3 Type S   : 10s7p1d contracted to 4s3p1d pattern {5311/511/1}
 Group   4 Type O   : 7s4p1d contracted to 3s2p1d pattern {511/31/1}
 Group   5 Type H   : 4s1p contracted to 2s1p pattern {31/1}

Atom   0C    basis set group =>   1
Atom   1F    basis set group =>   2
Atom   2C    basis set group =>   1
Atom   3F    basis set group =>   2
Atom   4C    basis set group =>   1
Atom   5F    basis set group =>   2
Atom   6C    basis set group =>   1
Atom   7F    basis set group =>   2
Atom   8C    basis set group =>   1
Atom   9C    basis set group =>   1
Atom  10F    basis set group =>   2
Atom  11C    basis set group =>   1
Atom  12C    basis set group =>   1
Atom  13C    basis set group =>   1
Atom  14C    basis set group =>   1
Atom  15C    basis set group =>   1
Atom  16S    basis set group =>   3
Atom  17C    basis set group =>   1
Atom  18C    basis set group =>   1
Atom  19C    basis set group =>   1
Atom  20C    basis set group =>   1
Atom  21S    basis set group =>   3
Atom  22C    basis set group =>   1
Atom  23C    basis set group =>   1
Atom  24C    basis set group =>   1
Atom  25C    basis set group =>   1
Atom  26C    basis set group =>   1
Atom  27C    basis set group =>   1
Atom  28C    basis set group =>   1
Atom  29S    basis set group =>   3
Atom  30C    basis set group =>   1
Atom  31O    basis set group =>   4
Atom  32C    basis set group =>   1
Atom  33C    basis set group =>   1
Atom  34C    basis set group =>   1
Atom  35C    basis set group =>   1
Atom  36O    basis set group =>   4
Atom  37C    basis set group =>   1
Atom  38S    basis set group =>   3
Atom  39C    basis set group =>   1
Atom  40C    basis set group =>   1
Atom  41C    basis set group =>   1
Atom  42C    basis set group =>   1
Atom  43C    basis set group =>   1
Atom  44C    basis set group =>   1
Atom  45C    basis set group =>   1
Atom  46S    basis set group =>   3
Atom  47C    basis set group =>   1
Atom  48C    basis set group =>   1
Atom  49C    basis set group =>   1
Atom  50C    basis set group =>   1
Atom  51S    basis set group =>   3
Atom  52C    basis set group =>   1
Atom  53C    basis set group =>   1
Atom  54C    basis set group =>   1
Atom  55C    basis set group =>   1
Atom  56C    basis set group =>   1
Atom  57O    basis set group =>   4
Atom  58C    basis set group =>   1
Atom  59C    basis set group =>   1
Atom  60C    basis set group =>   1
Atom  61C    basis set group =>   1
Atom  62C    basis set group =>   1
Atom  63C    basis set group =>   1
Atom  64C    basis set group =>   1
Atom  65O    basis set group =>   4
Atom  66C    basis set group =>   1
Atom  67H    basis set group =>   5
Atom  68H    basis set group =>   5
Atom  69H    basis set group =>   5
Atom  70H    basis set group =>   5
Atom  71H    basis set group =>   5
Atom  72H    basis set group =>   5
Atom  73H    basis set group =>   5
Atom  74H    basis set group =>   5
Atom  75H    basis set group =>   5
Atom  76H    basis set group =>   5
Atom  77H    basis set group =>   5
Atom  78H    basis set group =>   5
Atom  79H    basis set group =>   5
Atom  80H    basis set group =>   5
Atom  81H    basis set group =>   5
Atom  82H    basis set group =>   5
Atom  83H    basis set group =>   5
Atom  84H    basis set group =>   5
Atom  85H    basis set group =>   5
Atom  86H    basis set group =>   5
Atom  87H    basis set group =>   5
Atom  88H    basis set group =>   5
Atom  89H    basis set group =>   5
Atom  90H    basis set group =>   5
Atom  91H    basis set group =>   5
Atom  92H    basis set group =>   5
Atom  93H    basis set group =>   5
---------------------------------
AUXILIARY/J BASIS SET INFORMATION
---------------------------------
There are 5 groups of distinct atoms

 Group   1 Type C   : 12s5p4d2f1g contracted to 6s4p3d1f1g pattern {711111/2111/211/2/1}
 Group   2 Type F   : 12s5p4d2f1g contracted to 6s4p3d1f1g pattern {711111/2111/211/2/1}
 Group   3 Type S   : 14s5p5d2f1g contracted to 8s4p3d1f1g pattern {71111111/2111/311/2/1}
 Group   4 Type O   : 12s5p4d2f1g contracted to 6s4p3d1f1g pattern {711111/2111/211/2/1}
 Group   5 Type H   : 5s2p1d contracted to 3s1p1d pattern {311/2/1}

Atom   0C    basis set group =>   1
Atom   1F    basis set group =>   2
Atom   2C    basis set group =>   1
Atom   3F    basis set group =>   2
Atom   4C    basis set group =>   1
Atom   5F    basis set group =>   2
Atom   6C    basis set group =>   1
Atom   7F    basis set group =>   2
Atom   8C    basis set group =>   1
Atom   9C    basis set group =>   1
Atom  10F    basis set group =>   2
Atom  11C    basis set group =>   1
Atom  12C    basis set group =>   1
Atom  13C    basis set group =>   1
Atom  14C    basis set group =>   1
Atom  15C    basis set group =>   1
Atom  16S    basis set group =>   3
Atom  17C    basis set group =>   1
Atom  18C    basis set group =>   1
Atom  19C    basis set group =>   1
Atom  20C    basis set group =>   1
Atom  21S    basis set group =>   3
Atom  22C    basis set group =>   1
Atom  23C    basis set group =>   1
Atom  24C    basis set group =>   1
Atom  25C    basis set group =>   1
Atom  26C    basis set group =>   1
Atom  27C    basis set group =>   1
Atom  28C    basis set group =>   1
Atom  29S    basis set group =>   3
Atom  30C    basis set group =>   1
Atom  31O    basis set group =>   4
Atom  32C    basis set group =>   1
Atom  33C    basis set group =>   1
Atom  34C    basis set group =>   1
Atom  35C    basis set group =>   1
Atom  36O    basis set group =>   4
Atom  37C    basis set group =>   1
Atom  38S    basis set group =>   3
Atom  39C    basis set group =>   1
Atom  40C    basis set group =>   1
Atom  41C    basis set group =>   1
Atom  42C    basis set group =>   1
Atom  43C    basis set group =>   1
Atom  44C    basis set group =>   1
Atom  45C    basis set group =>   1
Atom  46S    basis set group =>   3
Atom  47C    basis set group =>   1
Atom  48C    basis set group =>   1
Atom  49C    basis set group =>   1
Atom  50C    basis set group =>   1
Atom  51S    basis set group =>   3
Atom  52C    basis set group =>   1
Atom  53C    basis set group =>   1
Atom  54C    basis set group =>   1
Atom  55C    basis set group =>   1
Atom  56C    basis set group =>   1
Atom  57O    basis set group =>   4
Atom  58C    basis set group =>   1
Atom  59C    basis set group =>   1
Atom  60C    basis set group =>   1
Atom  61C    basis set group =>   1
Atom  62C    basis set group =>   1
Atom  63C    basis set group =>   1
Atom  64C    basis set group =>   1
Atom  65O    basis set group =>   4
Atom  66C    basis set group =>   1
Atom  67H    basis set group =>   5
Atom  68H    basis set group =>   5
Atom  69H    basis set group =>   5
Atom  70H    basis set group =>   5
Atom  71H    basis set group =>   5
Atom  72H    basis set group =>   5
Atom  73H    basis set group =>   5
Atom  74H    basis set group =>   5
Atom  75H    basis set group =>   5
Atom  76H    basis set group =>   5
Atom  77H    basis set group =>   5
Atom  78H    basis set group =>   5
Atom  79H    basis set group =>   5
Atom  80H    basis set group =>   5
Atom  81H    basis set group =>   5
Atom  82H    basis set group =>   5
Atom  83H    basis set group =>   5
Atom  84H    basis set group =>   5
Atom  85H    basis set group =>   5
Atom  86H    basis set group =>   5
Atom  87H    basis set group =>   5
Atom  88H    basis set group =>   5
Atom  89H    basis set group =>   5
Atom  90H    basis set group =>   5
Atom  91H    basis set group =>   5
Atom  92H    basis set group =>   5
Atom  93H    basis set group =>   5


           ************************************************************
           *        Program running with 6 parallel MPI-processes     *
           *              working on a common directory               *
           ************************************************************
------------------------------------------------------------------------------
                           ORCA GTO INTEGRAL CALCULATION
                           -- RI-GTO INTEGRALS CHOSEN --
------------------------------------------------------------------------------

                         BASIS SET STATISTICS AND STARTUP INFO

Gaussian basis set:
 # of primitive gaussian shells          ...  975
 # of primitive gaussian functions       ... 1869
 # of contracted shells                  ...  495
 # of contracted basis functions         ... 1097
 Highest angular momentum                ...    2
 Maximum contraction depth               ...    5
Auxiliary gaussian basis set:
 # of primitive gaussian shells          ... 1842
 # of primitive gaussian functions       ... 5164
 # of contracted shells                  ... 1152
 # of contracted aux-basis functions     ... 3592
 Highest angular momentum                ...    4
 Maximum contraction depth               ...    7
Ratio of auxiliary to basis functions    ...  3.27
Integral package used                  ... LIBINT
 One Electron integrals                  ... done
 Ordering auxiliary basis shells         ... done
 Integral threshhold             Thresh  ...  2.500e-11
 Primitive cut-off               TCut    ...  2.500e-12
 Pre-screening matrix                    ... done
 Shell pair data                         ... 
 Ordering of the shell pairs             ... done (   0.007 sec) 39114 of 122760 pairs
 Determination of significant pairs      ... done (   0.000 sec)
 Creation of shell pair data             ... done (   0.006 sec)
 Storage of shell pair data              ... done (   0.007 sec)
 Shell pair data done in (   0.020 sec)
 Computing two index integrals           ... done
 Cholesky decomposition of the V-matrix  ... done


Timings:
 Total evaluation time                   ...   1.914 sec (  0.032 min)
 One electron matrix time                ...   0.435 sec (  0.007 min) = 22.7%
 Schwartz matrix evaluation time         ...   0.596 sec (  0.010 min) = 31.1%
 Two index repulsion integral time       ...   0.365 sec (  0.006 min) = 19.0%
 Cholesky decomposition of V             ...   0.484 sec (  0.008 min) = 25.3%
 Three index repulsion integral time     ...   0.000 sec (  0.000 min) =  0.0%



           ************************************************************
           *        Program running with 6 parallel MPI-processes     *
           *              working on a common directory               *
           ************************************************************
-------------------------------------------------------------------------------
                                 ORCA SCF
-------------------------------------------------------------------------------

------------
SCF SETTINGS
------------
Hamiltonian:
 Density Functional     Method          .... DFT(GTOs)
 Exchange Functional    Exchange        .... WB88
 Correlation Functional Correlation     .... LYP
 LDA part of GGA corr.  LDAOpt          .... VWN-5
 Gradients option       PostSCFGGA      .... off
 Hybrid DFT is turned on
   Fraction HF Exchange ScalHFX         ....  0.190000
   Scaling of DF-GGA-X  ScalDFX         ....  0.350000
   Scaling of DF-GGA-C  ScalDFC         ....  0.810000
   Scaling of DF-LDA-C  ScalLDAC        ....  1.000000
   Perturbative correction              ....  0.000000
   Density functional embedding theory  .... OFF
 Long-range corrected/Screened/Range-Separated Hybrid DFT is turned on
   Amount of maximum screened exact exchange              ....  0.460000
   Range separation parameter mu (erf(mu*r12)/r12)        ....  0.330000
 RI-approximation to the Coulomb term is turned on
   Number of auxiliary basis functions  .... 3592
   RIJ-COSX (HFX calculated with COS-X)).... on


General Settings:
 Integral files         IntName         .... xtbopt
 Hartree-Fock type      HFTyp           .... RHF
 Total Charge           Charge          ....    0
 Multiplicity           Mult            ....    1
 Number of Electrons    NEL             ....  512
 Basis Dimension        Dim             .... 1097
 Nuclear Repulsion      ENuc            ....  10086.3166246602 Eh

Convergence Acceleration:
 DIIS                   CNVDIIS         .... on
   Start iteration      DIISMaxIt       ....    12
   Startup error        DIISStart       ....  0.200000
   # of expansion vecs  DIISMaxEq       ....     5
   Bias factor          DIISBfac        ....   1.050
   Max. coefficient     DIISMaxC        ....  10.000
 Newton-Raphson         CNVNR           .... off
 SOSCF                  CNVSOSCF        .... on
   Start iteration      SOSCFMaxIt      ....   150
   Startup grad/error   SOSCFStart      ....  0.003300
 Level Shifting         CNVShift        .... on
   Level shift para.    LevelShift      ....    0.2500
   Turn off err/grad.   ShiftErr        ....    0.0010
 Zerner damping         CNVZerner       .... off
 Static damping         CNVDamp         .... on
   Fraction old density DampFac         ....    0.7000
   Max. Damping (<1)    DampMax         ....    0.9800
   Min. Damping (>=0)   DampMin         ....    0.0000
   Turn off err/grad.   DampErr         ....    0.1000
 Fernandez-Rico         CNVRico         .... off

SCF Procedure:
 Maximum # iterations   MaxIter         ....   125
 SCF integral mode      SCFMode         .... Direct
   Integral package                     .... LIBINT
 Reset frequency        DirectResetFreq ....    20
 Integral Threshold     Thresh          ....  2.500e-11 Eh
 Primitive CutOff       TCut            ....  2.500e-12 Eh

Convergence Tolerance:
 Convergence Check Mode ConvCheckMode   .... Total+1el-Energy
 Convergence forced     ConvForced      .... 1
 Energy Change          TolE            ....  1.000e-08 Eh
 1-El. energy change                    ....  1.000e-05 Eh
 Orbital Gradient       TolG            ....  1.000e-05
 Orbital Rotation angle TolX            ....  1.000e-05
 DIIS Error             TolErr          ....  5.000e-07


Diagonalization of the overlap matrix:
Smallest eigenvalue                        ... 1.330e-04
Time for diagonalization                   ...    0.174 sec
Threshold for overlap eigenvalues          ... 1.000e-08
Number of eigenvalues below threshold      ... 0
Time for construction of square roots      ...    0.139 sec
Total time needed                          ...    0.317 sec

-------------------
DFT GRID GENERATION
-------------------

General Integration Accuracy     IntAcc      ...  4.670
Radial Grid Type                 RadialGrid  ... Gauss-Chebyshev
Angular Grid (max. acc.)         AngularGrid ... Lebedev-302
Angular grid pruning method      GridPruning ... 3 (G Style)
Weight generation scheme         WeightScheme... Becke
Basis function cutoff            BFCut       ...    1.0000e-11
Integration weight cutoff        WCut        ...    1.0000e-14
Grids for H and He will be reduced by one unit

# of grid points (after initial pruning)     ... 511946 (   0.0 sec)
# of grid points (after weights+screening)   ... 441692 (   4.9 sec)
nearest neighbour list constructed           ...    0.0 sec
Grid point re-assignment to atoms done       ...    0.1 sec
Grid point division into batches done        ...    1.3 sec
Reduced shell lists constructed in    2.3 sec

Total number of grid points                  ...   441692
Total number of batches                      ...     6946
Average number of points per batch           ...       63
Average number of grid points per atom       ...     4699
Average number of shells per batch           ...    72.77 (14.70%)
Average number of basis functions per batch  ...   159.35 (14.53%)
Average number of large shells per batch     ...    45.65 (62.74%)
Average number of large basis fcns per batch ...   102.09 (64.07%)
Maximum spatial batch extension              ...  19.11, 17.07, 19.20 au
Average spatial batch extension              ...   0.38,  0.38,  0.37 au

Time for grid setup =    7.459 sec

------------------------------
INITIAL GUESS: MODEL POTENTIAL
------------------------------
Loading Hartree-Fock densities                     ... done
Calculating cut-offs                               ... done
Setting up the integral package                    ... done
Initializing the effective Hamiltonian             ... done
Starting the Coulomb interaction                   ... done (   1.0 sec)
Reading the grid                                   ... done
Mapping shells                                     ... done
Starting the XC term evaluation                    ... done (   1.1 sec)
  promolecular density results
     # of electrons  =    511.986467104
     EX              =   -506.451350206
     EC              =    -18.004219513
     EX+EC           =   -524.455569719
Transforming the Hamiltonian                       ... done (   0.1 sec)
Diagonalizing the Hamiltonian                      ... done (   0.2 sec)
Back transforming the eigenvectors                 ... done (   0.0 sec)
Now organizing SCF variables                       ... done
                      ------------------
                      INITIAL GUESS DONE (  10.0 sec)
                      ------------------
--------------------
COSX GRID GENERATION
--------------------

General Integration Accuracy     IntAcc      ...  3.340
Radial Grid Type                 RadialGrid  ... Gauss-Chebyshev
Angular Grid (max. acc.)         AngularGrid ... Lebedev-50
Angular grid pruning method      GridPruning ... 3 (G Style)
Weight generation scheme         WeightScheme... Becke
Basis function cutoff            BFCut       ...    1.0000e-11
Integration weight cutoff        WCut        ...    1.0000e-14
Grids for H and He will be reduced by one unit

# of grid points (after initial pruning)     ...  48256 (   0.0 sec)
# of grid points (after weights+screening)   ...  43496 (   0.5 sec)
nearest neighbour list constructed           ...    0.0 sec
Grid point re-assignment to atoms done       ...    0.0 sec
Grid point division into batches done        ...    0.0 sec
Reduced shell lists constructed in    0.1 sec

Total number of grid points                  ...    43496
Total number of batches                      ...      729
Average number of points per batch           ...       59
Average number of grid points per atom       ...      463
Average number of shells per batch           ...    90.48 (18.28%)
Average number of basis functions per batch  ...   198.85 (18.13%)
Average number of large shells per batch     ...    56.53 (62.48%)
Average number of large basis fcns per batch ...   128.35 (64.54%)
Maximum spatial batch extension              ...  15.34, 19.38, 16.24 au
Average spatial batch extension              ...   0.79,  0.84,  0.69 au

Overlap Fitting                  UseSFitting ... on
Constructing numerical overlap ... done (      0.1 sec)
Inverting numerical overlap    ... done (      0.1 sec)
Obtaining analytic overlap     ... done (      0.0 sec)
Final contraction and storage  ... done (      0.1 sec)


General Integration Accuracy     IntAcc      ...  3.670
Radial Grid Type                 RadialGrid  ... Gauss-Chebyshev
Angular Grid (max. acc.)         AngularGrid ... Lebedev-50
Angular grid pruning method      GridPruning ... 3 (G Style)
Weight generation scheme         WeightScheme... Becke
Basis function cutoff            BFCut       ...    1.0000e-11
Integration weight cutoff        WCut        ...    1.0000e-14
Grids for H and He will be reduced by one unit

# of grid points (after initial pruning)     ...  60154 (   0.0 sec)
# of grid points (after weights+screening)   ...  53943 (   0.6 sec)
nearest neighbour list constructed           ...    0.0 sec
Grid point re-assignment to atoms done       ...    0.0 sec
Grid point division into batches done        ...    0.0 sec
Reduced shell lists constructed in    0.2 sec

Total number of grid points                  ...    53943
Total number of batches                      ...      893
Average number of points per batch           ...       60
Average number of grid points per atom       ...      574
Average number of shells per batch           ...    89.74 (18.13%)
Average number of basis functions per batch  ...   196.99 (17.96%)
Average number of large shells per batch     ...    55.92 (62.31%)
Average number of large basis fcns per batch ...   126.64 (64.29%)
Maximum spatial batch extension              ...  17.91, 20.86, 16.60 au
Average spatial batch extension              ...   0.77,  0.78,  0.63 au

Overlap Fitting                  UseSFitting ... on
Constructing numerical overlap ... done (      0.1 sec)
Inverting numerical overlap    ... done (      0.1 sec)
Obtaining analytic overlap     ... done (      0.0 sec)
Final contraction and storage  ... done (      0.1 sec)


General Integration Accuracy     IntAcc      ...  4.010
Radial Grid Type                 RadialGrid  ... Gauss-Chebyshev
Angular Grid (max. acc.)         AngularGrid ... Lebedev-110
Angular grid pruning method      GridPruning ... 3 (G Style)
Weight generation scheme         WeightScheme... Becke
Basis function cutoff            BFCut       ...    1.0000e-11
Integration weight cutoff        WCut        ...    1.0000e-14
Grids for H and He will be reduced by one unit

# of grid points (after initial pruning)     ... 117082 (   0.0 sec)
# of grid points (after weights+screening)   ... 103897 (   1.2 sec)
nearest neighbour list constructed           ...    0.0 sec
Grid point re-assignment to atoms done       ...    0.0 sec
Grid point division into batches done        ...    0.1 sec
Reduced shell lists constructed in    0.3 sec

Total number of grid points                  ...   103897
Total number of batches                      ...     1676
Average number of points per batch           ...       61
Average number of grid points per atom       ...     1105
Average number of shells per batch           ...    81.90 (16.54%)
Average number of basis functions per batch  ...   180.01 (16.41%)
Average number of large shells per batch     ...    51.53 (62.92%)
Average number of large basis fcns per batch ...   116.22 (64.56%)
Maximum spatial batch extension              ...  18.89, 20.27, 18.47 au
Average spatial batch extension              ...   0.61,  0.62,  0.56 au

Overlap Fitting                  UseSFitting ... on
Constructing numerical overlap ... done (      0.1 sec)
Inverting numerical overlap    ... done (      0.1 sec)
Obtaining analytic overlap     ... done (      0.0 sec)
Final contraction and storage  ... done (      0.1 sec)

Time for X-Grid setup             =    3.634 sec
--------------
SCF ITERATIONS
--------------
ITER       Energy         Delta-E        Max-DP      RMS-DP      [F,P]     Damp
               ***  Starting incremental Fock matrix formation  ***
  0  -5181.5596429508   0.000000000000 0.08647674  0.00099485  0.2413187 0.7000
  1  -5182.1263704859  -0.566727535142 0.05595259  0.00070418  0.1041949 0.7000
                               ***Turning on DIIS***
  2  -5182.3675105246  -0.241140038701 0.13472994  0.00124047  0.0452397 0.0000
  3  -5182.7199856513  -0.352475126670 0.05350356  0.00060290  0.0522275 0.0000
  4  -5182.8200070673  -0.100021416065 0.01256966  0.00016105  0.0118022 0.0000
  5  -5182.8247925118  -0.004785444506 0.00881610  0.00006868  0.0123941 0.0000
  6  -5182.8258791210  -0.001086609178 0.00392073  0.00003402  0.0037804 0.0000
                      *** Initiating the SOSCF procedure ***
                           *** Shutting down DIIS ***
                      *** Re-Reading the Fockian *** 
                      *** Removing any level shift *** 
ITER      Energy       Delta-E        Grad      Rot      Max-DP    RMS-DP
  7  -5182.82622048  -0.0003413620  0.001332  0.001332  0.001649  0.000020
               *** Restarting incremental Fock matrix formation ***
  8  -5182.82634566  -0.0001251782  0.000924  0.005756  0.001513  0.000023
  9  -5182.82644324  -0.0000975758  0.000467  0.007301  0.002595  0.000029
 10  -5182.82645383  -0.0000105918  0.000626  0.002428  0.001337  0.000011
 11  -5182.82647530  -0.0000214680  0.000160  0.000814  0.000675  0.000004
 12  -5182.82647538  -0.0000000856  0.000094  0.000235  0.000274  0.000002
 13  -5182.82647649  -0.0000011071  0.000019  0.000089  0.000124  0.000001
 14  -5182.82647645   0.0000000434  0.000019  0.000034  0.000049  0.000000
 15  -5182.82647651  -0.0000000595  0.000004  0.000028  0.000022  0.000000
                  ***Gradient check signals convergence***
              ***Rediagonalizing the Fockian in SOSCF/NRSCF***

               *****************************************************
               *                     SUCCESS                       *
               *           SCF CONVERGED AFTER  16 CYCLES          *
               *****************************************************

Setting up the final grid:

General Integration Accuracy     IntAcc      ...  5.010
Radial Grid Type                 RadialGrid  ... Gauss-Chebyshev
Angular Grid (max. acc.)         AngularGrid ... Lebedev-434
Angular grid pruning method      GridPruning ... 3 (G Style)
Weight generation scheme         WeightScheme... Becke
Basis function cutoff            BFCut       ...    1.0000e-11
Integration weight cutoff        WCut        ...    1.0000e-14
Grids for H and He will be reduced by one unit

# of grid points (after initial pruning)     ... 904878 (   0.0 sec)
# of grid points (after weights+screening)   ... 778398 (   8.4 sec)
nearest neighbour list constructed           ...    0.0 sec
Grid point re-assignment to atoms done       ...    0.1 sec
Grid point division into batches done        ...    4.4 sec
Reduced shell lists constructed in    5.9 sec

Total number of grid points                  ...   778398
Total number of batches                      ...    12208
Average number of points per batch           ...       63
Average number of grid points per atom       ...     8281
Average number of shells per batch           ...    70.80 (14.30%)
Average number of basis functions per batch  ...   154.67 (14.10%)
Average number of large shells per batch     ...    44.54 (62.91%)
Average number of large basis fcns per batch ...    99.28 (64.19%)
Maximum spatial batch extension              ...  17.22, 20.63, 18.65 au
Average spatial batch extension              ...   0.31,  0.31,  0.30 au

Final grid set up in   15.0 sec
Final integration                            ... done (   2.3 sec)
Change in XC energy                          ...    -0.000088523
Integrated number of electrons               ...   511.999885126
Previous integrated no of electrons          ...   511.999848460
Old exchange energy                            =   -137.740206414 Eh
New exchange energy                            =   -137.735247033 Eh
Exchange energy change after final integration =      0.004959381 Eh
Total energy after final integration           =  -5182.821605689 Eh
Final COS-X integration done in                =    46.670 sec

----------------
TOTAL SCF ENERGY
----------------

Total Energy       :        -5182.82160569 Eh         -141031.74581 eV

Components:
Nuclear Repulsion  :        10086.31662466 Eh          274462.62877 eV
Electronic Energy  :       -15269.13823035 Eh         -415494.37457 eV
One Electron Energy:       -27212.10450829 Eh         -740479.00890 eV
Two Electron Energy:        11942.96627794 Eh          324984.63432 eV

Virial components:
Potential Energy   :       -10335.36006444 Eh         -281239.44529 eV
Kinetic Energy     :         5152.53845876 Eh          140207.69948 eV
Virial Ratio       :            2.00587733


DFT components:
N(Alpha)           :      255.999942563186 electrons
N(Beta)            :      255.999942563186 electrons
N(Total)           :      511.999885126372 electrons
E(XC)              :     -394.303200655063 Eh       
DFET-embed. en.    :        0.000000000000 Eh       

---------------
SCF CONVERGENCE
---------------

  Last Energy change         ...   -4.2304e-08  Tolerance :   1.0000e-08
  Last MAX-Density change    ...    9.3259e-15  Tolerance :   1.0000e-07
  Last RMS-Density change    ...    3.7229e-17  Tolerance :   5.0000e-09
  Last Orbital Gradient      ...    2.4735e-06  Tolerance :   1.0000e-05
  Last Orbital Rotation      ...    1.3536e-05  Tolerance :   1.0000e-05

             **** THE GBW FILE WAS UPDATED (xtbopt.gbw) ****
             **** DENSITY FILE WAS UPDATED (xtbopt.scfp) ****
             **** ENERGY FILE WAS UPDATED (xtbopt.en.tmp) ****
             **** THE GBW FILE WAS UPDATED (xtbopt.gbw) ****
             **** DENSITY FILE WAS UPDATED (xtbopt.scfp) ****
----------------
ORBITAL ENERGIES
----------------

  NO   OCC          E(Eh)            E(eV) 
   0   2.0000     -88.969371     -2420.9797 
   1   2.0000     -88.959504     -2420.7112 
   2   2.0000     -88.951007     -2420.4800 
   3   2.0000     -88.944600     -2420.3056 
   4   2.0000     -88.942372     -2420.2450 
   5   2.0000     -88.937391     -2420.1094 
   6   2.0000     -24.810585      -675.1303 
   7   2.0000     -24.808579      -675.0757 
   8   2.0000     -24.807257      -675.0398 
   9   2.0000     -24.806267      -675.0128 
  10   2.0000     -24.805722      -674.9980 
  11   2.0000     -19.290009      -524.9078 
  12   2.0000     -19.239757      -523.5404 
  13   2.0000     -19.238027      -523.4933 
  14   2.0000     -19.178472      -521.8727 
  15   2.0000     -10.392595      -282.7969 
  16   2.0000     -10.389633      -282.7163 
  17   2.0000     -10.389502      -282.7127 
  18   2.0000     -10.387679      -282.6631 
  19   2.0000     -10.387455      -282.6570 
  20   2.0000     -10.351899      -281.6895 
  21   2.0000     -10.342893      -281.4444 
  22   2.0000     -10.342208      -281.4258 
  23   2.0000     -10.327461      -281.0245 
  24   2.0000     -10.326558      -280.9999 
  25   2.0000     -10.326335      -280.9939 
  26   2.0000     -10.323380      -280.9135 
  27   2.0000     -10.321772      -280.8697 
  28   2.0000     -10.316574      -280.7283 
  29   2.0000     -10.314395      -280.6690 
  30   2.0000     -10.312846      -280.6268 
  31   2.0000     -10.309099      -280.5249 
  32   2.0000     -10.298045      -280.2241 
  33   2.0000     -10.293830      -280.1093 
  34   2.0000     -10.293250      -280.0936 
  35   2.0000     -10.291943      -280.0580 
  36   2.0000     -10.291541      -280.0471 
  37   2.0000     -10.291431      -280.0441 
  38   2.0000     -10.290024      -280.0058 
  39   2.0000     -10.284775      -279.8630 
  40   2.0000     -10.281804      -279.7821 
  41   2.0000     -10.280645      -279.7506 
  42   2.0000     -10.279434      -279.7176 
  43   2.0000     -10.277242      -279.6580 
  44   2.0000     -10.277125      -279.6548 
  45   2.0000     -10.276691      -279.6430 
  46   2.0000     -10.275835      -279.6197 
  47   2.0000     -10.272727      -279.5351 
  48   2.0000     -10.272420      -279.5268 
  49   2.0000     -10.272369      -279.5254 
  50   2.0000     -10.271991      -279.5151 
  51   2.0000     -10.271210      -279.4938 
  52   2.0000     -10.270450      -279.4731 
  53   2.0000     -10.269868      -279.4573 
  54   2.0000     -10.269793      -279.4553 
  55   2.0000     -10.269528      -279.4481 
  56   2.0000     -10.269369      -279.4437 
  57   2.0000     -10.268705      -279.4257 
  58   2.0000     -10.266670      -279.3703 
  59   2.0000     -10.266476      -279.3650 
  60   2.0000     -10.264102      -279.3004 
  61   2.0000     -10.262915      -279.2681 
  62   2.0000     -10.261320      -279.2247 
  63   2.0000     -10.260215      -279.1946 
  64   2.0000     -10.254904      -279.0501 
  65   2.0000     -10.253551      -279.0133 
  66   2.0000     -10.248133      -278.8659 
  67   2.0000      -8.064779      -219.4538 
  68   2.0000      -8.055088      -219.1901 
  69   2.0000      -8.046444      -218.9549 
  70   2.0000      -8.039991      -218.7793 
  71   2.0000      -8.037361      -218.7077 
  72   2.0000      -8.032251      -218.5687 
  73   2.0000      -6.034349      -164.2030 
  74   2.0000      -6.029793      -164.0790 
  75   2.0000      -6.026568      -163.9912 
  76   2.0000      -6.024722      -163.9410 
  77   2.0000      -6.020123      -163.8159 
  78   2.0000      -6.016848      -163.7267 
  79   2.0000      -6.015908      -163.7012 
  80   2.0000      -6.011688      -163.5864 
  81   2.0000      -6.009400      -163.5241 
  82   2.0000      -6.008395      -163.4967 
  83   2.0000      -6.007341      -163.4681 
  84   2.0000      -6.005212      -163.4101 
  85   2.0000      -6.002915      -163.3476 
  86   2.0000      -6.002121      -163.3260 
  87   2.0000      -6.002064      -163.3245 
  88   2.0000      -5.998405      -163.2249 
  89   2.0000      -5.997911      -163.2115 
  90   2.0000      -5.993346      -163.0872 
  91   2.0000      -1.337240       -36.3881 
  92   2.0000      -1.330937       -36.2166 
  93   2.0000      -1.324912       -36.0527 
  94   2.0000      -1.314840       -35.7786 
  95   2.0000      -1.310442       -35.6590 
  96   2.0000      -1.203249       -32.7421 
  97   2.0000      -1.144174       -31.1346 
  98   2.0000      -1.142475       -31.0883 
  99   2.0000      -1.096861       -29.8471 
 100   2.0000      -1.003788       -27.3145 
 101   2.0000      -0.995721       -27.0949 
 102   2.0000      -0.992010       -26.9940 
 103   2.0000      -0.983789       -26.7703 
 104   2.0000      -0.969447       -26.3800 
 105   2.0000      -0.964478       -26.2448 
 106   2.0000      -0.955214       -25.9927 
 107   2.0000      -0.950785       -25.8722 
 108   2.0000      -0.923867       -25.1397 
 109   2.0000      -0.916840       -24.9485 
 110   2.0000      -0.911422       -24.8011 
 111   2.0000      -0.904254       -24.6060 
 112   2.0000      -0.897329       -24.4176 
 113   2.0000      -0.877391       -23.8750 
 114   2.0000      -0.865480       -23.5509 
 115   2.0000      -0.864679       -23.5291 
 116   2.0000      -0.863636       -23.5007 
 117   2.0000      -0.861849       -23.4521 
 118   2.0000      -0.856368       -23.3030 
 119   2.0000      -0.853896       -23.2357 
 120   2.0000      -0.838027       -22.8039 
 121   2.0000      -0.835130       -22.7251 
 122   2.0000      -0.823956       -22.4210 
 123   2.0000      -0.818548       -22.2738 
 124   2.0000      -0.809015       -22.0144 
 125   2.0000      -0.802169       -21.8281 
 126   2.0000      -0.799433       -21.7537 
 127   2.0000      -0.798172       -21.7194 
 128   2.0000      -0.790353       -21.5066 
 129   2.0000      -0.783445       -21.3186 
 130   2.0000      -0.772912       -21.0320 
 131   2.0000      -0.764198       -20.7949 
 132   2.0000      -0.751761       -20.4565 
 133   2.0000      -0.748393       -20.3648 
 134   2.0000      -0.739951       -20.1351 
 135   2.0000      -0.735111       -20.0034 
 136   2.0000      -0.723985       -19.7006 
 137   2.0000      -0.711519       -19.3614 
 138   2.0000      -0.709855       -19.3161 
 139   2.0000      -0.703106       -19.1325 
 140   2.0000      -0.692076       -18.8323 
 141   2.0000      -0.684376       -18.6228 
 142   2.0000      -0.677417       -18.4335 
 143   2.0000      -0.674619       -18.3573 
 144   2.0000      -0.667549       -18.1649 
 145   2.0000      -0.659109       -17.9353 
 146   2.0000      -0.656945       -17.8764 
 147   2.0000      -0.650696       -17.7063 
 148   2.0000      -0.649596       -17.6764 
 149   2.0000      -0.645032       -17.5522 
 150   2.0000      -0.636883       -17.3305 
 151   2.0000      -0.631868       -17.1940 
 152   2.0000      -0.628968       -17.1151 
 153   2.0000      -0.628186       -17.0938 
 154   2.0000      -0.626874       -17.0581 
 155   2.0000      -0.621087       -16.9006 
 156   2.0000      -0.617140       -16.7932 
 157   2.0000      -0.613933       -16.7060 
 158   2.0000      -0.607606       -16.5338 
 159   2.0000      -0.603354       -16.4181 
 160   2.0000      -0.602458       -16.3937 
 161   2.0000      -0.597545       -16.2600 
 162   2.0000      -0.592298       -16.1173 
 163   2.0000      -0.588158       -16.0046 
 164   2.0000      -0.583877       -15.8881 
 165   2.0000      -0.580299       -15.7907 
 166   2.0000      -0.576319       -15.6825 
 167   2.0000      -0.574947       -15.6451 
 168   2.0000      -0.571769       -15.5586 
 169   2.0000      -0.564078       -15.3494 
 170   2.0000      -0.558403       -15.1949 
 171   2.0000      -0.556056       -15.1310 
 172   2.0000      -0.553050       -15.0493 
 173   2.0000      -0.552628       -15.0378 
 174   2.0000      -0.550173       -14.9710 
 175   2.0000      -0.547981       -14.9113 
 176   2.0000      -0.546737       -14.8775 
 177   2.0000      -0.545615       -14.8469 
 178   2.0000      -0.538769       -14.6607 
 179   2.0000      -0.537066       -14.6143 
 180   2.0000      -0.531179       -14.4541 
 181   2.0000      -0.528842       -14.3905 
 182   2.0000      -0.525408       -14.2971 
 183   2.0000      -0.521039       -14.1782 
 184   2.0000      -0.519937       -14.1482 
 185   2.0000      -0.516124       -14.0444 
 186   2.0000      -0.515324       -14.0227 
 187   2.0000      -0.512144       -13.9361 
 188   2.0000      -0.509785       -13.8720 
 189   2.0000      -0.504356       -13.7242 
 190   2.0000      -0.502836       -13.6829 
 191   2.0000      -0.501671       -13.6512 
 192   2.0000      -0.499080       -13.5807 
 193   2.0000      -0.498456       -13.5637 
 194   2.0000      -0.497968       -13.5504 
 195   2.0000      -0.496508       -13.5107 
 196   2.0000      -0.494792       -13.4640 
 197   2.0000      -0.489780       -13.3276 
 198   2.0000      -0.488241       -13.2857 
 199   2.0000      -0.482308       -13.1243 
 200   2.0000      -0.481156       -13.0929 
 201   2.0000      -0.477521       -12.9940 
 202   2.0000      -0.474647       -12.9158 
 203   2.0000      -0.471436       -12.8284 
 204   2.0000      -0.470064       -12.7911 
 205   2.0000      -0.467540       -12.7224 
 206   2.0000      -0.465879       -12.6772 
 207   2.0000      -0.463902       -12.6234 
 208   2.0000      -0.461678       -12.5629 
 209   2.0000      -0.455138       -12.3849 
 210   2.0000      -0.453268       -12.3340 
 211   2.0000      -0.449239       -12.2244 
 212   2.0000      -0.444861       -12.1053 
 213   2.0000      -0.443767       -12.0755 
 214   2.0000      -0.440971       -11.9994 
 215   2.0000      -0.438711       -11.9379 
 216   2.0000      -0.437409       -11.9025 
 217   2.0000      -0.437191       -11.8966 
 218   2.0000      -0.433655       -11.8004 
 219   2.0000      -0.431615       -11.7448 
 220   2.0000      -0.425518       -11.5789 
 221   2.0000      -0.424959       -11.5637 
 222   2.0000      -0.423218       -11.5163 
 223   2.0000      -0.421144       -11.4599 
 224   2.0000      -0.418744       -11.3946 
 225   2.0000      -0.415405       -11.3038 
 226   2.0000      -0.414886       -11.2896 
 227   2.0000      -0.407247       -11.0817 
 228   2.0000      -0.404201       -10.9989 
 229   2.0000      -0.402642       -10.9564 
 230   2.0000      -0.402184       -10.9440 
 231   2.0000      -0.400348       -10.8940 
 232   2.0000      -0.399835       -10.8801 
 233   2.0000      -0.387791       -10.5523 
 234   2.0000      -0.386272       -10.5110 
 235   2.0000      -0.381895       -10.3919 
 236   2.0000      -0.377257       -10.2657 
 237   2.0000      -0.366559        -9.9746 
 238   2.0000      -0.364886        -9.9290 
 239   2.0000      -0.336554        -9.1581 
 240   2.0000      -0.331808        -9.0290 
 241   2.0000      -0.329489        -8.9659 
 242   2.0000      -0.327788        -8.9196 
 243   2.0000      -0.325997        -8.8708 
 244   2.0000      -0.323268        -8.7966 
 245   2.0000      -0.319197        -8.6858 
 246   2.0000      -0.312130        -8.4935 
 247   2.0000      -0.307634        -8.3712 
 248   2.0000      -0.307015        -8.3543 
 249   2.0000      -0.287311        -7.8181 
 250   2.0000      -0.285860        -7.7787 
 251   2.0000      -0.272295        -7.4095 
 252   2.0000      -0.261049        -7.1035 
 253   2.0000      -0.237573        -6.4647 
 254   2.0000      -0.223034        -6.0691 
 255   2.0000      -0.202834        -5.5194 
 256   0.0000      -0.059143        -1.6094 
 257   0.0000      -0.041356        -1.1254 
 258   0.0000      -0.023433        -0.6377 
 259   0.0000      -0.016380        -0.4457 
 260   0.0000      -0.011639        -0.3167 
 261   0.0000       0.002321         0.0632 
 262   0.0000       0.013626         0.3708 
 263   0.0000       0.017477         0.4756 
 264   0.0000       0.036310         0.9880 
 265   0.0000       0.044121         1.2006 
 266   0.0000       0.051608         1.4043 
 267   0.0000       0.052994         1.4420 
 268   0.0000       0.057536         1.5656 
 269   0.0000       0.060685         1.6513 
 270   0.0000       0.065518         1.7828 
 271   0.0000       0.079292         2.1576 
 272   0.0000       0.081582         2.2200 
 273   0.0000       0.086005         2.3403 
 274   0.0000       0.086577         2.3559 
 275   0.0000       0.090092         2.4515 
 276   0.0000       0.091332         2.4853 
 277   0.0000       0.095870         2.6088 
 278   0.0000       0.108095         2.9414 
 279   0.0000       0.109892         2.9903 
 280   0.0000       0.112738         3.0677 
 281   0.0000       0.115784         3.1507 
 282   0.0000       0.119836         3.2609 
 283   0.0000       0.122623         3.3367 
 284   0.0000       0.124853         3.3974 
 285   0.0000       0.125851         3.4246 
 286   0.0000       0.132313         3.6004 
 287   0.0000       0.133671         3.6374 
 288   0.0000       0.138171         3.7598 
 289   0.0000       0.141184         3.8418 
 290   0.0000       0.144363         3.9283 
 291   0.0000       0.146144         3.9768 
 292   0.0000       0.149845         4.0775 
 293   0.0000       0.153620         4.1802 
 294   0.0000       0.155845         4.2407 
 295   0.0000       0.156627         4.2620 
 296   0.0000       0.157369         4.2822 
 297   0.0000       0.160143         4.3577 
 298   0.0000       0.162535         4.4228 
 299   0.0000       0.165223         4.4959 
 300   0.0000       0.170500         4.6395 
 301   0.0000       0.171203         4.6587 
 302   0.0000       0.172750         4.7008 
 303   0.0000       0.176193         4.7944 
 304   0.0000       0.177635         4.8337 
 305   0.0000       0.180462         4.9106 
 306   0.0000       0.181143         4.9292 
 307   0.0000       0.182210         4.9582 
 308   0.0000       0.188043         5.1169 
 309   0.0000       0.190960         5.1963 
 310   0.0000       0.193256         5.2588 
 311   0.0000       0.197129         5.3642 
 312   0.0000       0.197366         5.3706 
 313   0.0000       0.199013         5.4154 
 314   0.0000       0.202415         5.5080 
 315   0.0000       0.214246         5.8299 
 316   0.0000       0.215173         5.8552 
 317   0.0000       0.217475         5.9178 
 318   0.0000       0.220442         5.9985 
 319   0.0000       0.226865         6.1733 
 320   0.0000       0.230973         6.2851 
 321   0.0000       0.241143         6.5618 
 322   0.0000       0.243698         6.6314 
 323   0.0000       0.245301         6.6750 
 324   0.0000       0.252947         6.8830 
 325   0.0000       0.254619         6.9285 
[...]
Transforming integrals ... 
Calculating magnetic dipole integrals ... 
Transforming integrals ... 



















































SCF atom population (using active MOs):

   1.036   2.007   1.017   1.922   1.036   1.931   1.023   1.932   1.517   1.039
   2.088   1.792   1.779   2.066   1.911   1.956   3.560   2.221   2.129   2.046
   2.263   3.601   2.058   2.095   2.095   2.152   2.193   1.997   2.040   3.708
   1.482   2.821   1.625   1.958   2.003   1.468   2.798   1.616   3.652   2.062
   2.115   1.925   1.829   1.997   1.856   1.777   3.534   2.258   2.142   2.069
   2.233   3.661   2.149   2.280   2.208   1.889   1.436   2.172   1.366   2.107
   1.989   1.999   2.205   1.863   1.683   4.447   2.640   0.364   0.364   0.377
   0.462   0.502   0.458   0.452   0.389   0.390   0.618   0.619   0.384   0.389
   0.441   0.368   0.270   0.376   0.419   0.545   0.478   0.525   0.460   0.422
   0.591   0.587   0.590   0.635

Number of electrons in sTDA:  154.000

ax(DF)   :  0.3800
s^k      :  2.0000
beta  (J):  1.8600
alpha (K):  0.9000

hardness table read
setting up gammas ...
computing q(ij,n)
memory needed for q data:             6.1 MB 
memory available for q data:       2484.0 MB 

CSF included by energy:           26 
CSF considered in PT2:          5595 

ordered frontier orbitals
           eV         # centers 
  66      -8.686       9.0
  67      -8.493      10.6
  68      -8.371      14.1
  69      -8.354       2.4
  70      -7.818      18.8
  71      -7.779      28.4
  72      -7.410      10.2
  73      -7.104      14.0
  74      -6.465      19.0
  75      -6.069      28.8
  76      -5.519      25.7

  77      -1.609      21.2
  78      -1.125      20.2
  79      -0.638      11.9
  80      -0.446      14.7
  81      -0.317       8.4
  82       0.063      36.2
  83       0.371       5.6
  84       0.476      26.0
  85       0.988      27.3
  86       1.201      13.2
  87       1.404      10.0

           eV        nm       excitation i->a                     eV 
   0      2.54     487.5    76 ->  77      gap,J,K:    3.910     1.700     0.167
   1      2.92     424.8    76 ->  78      gap,J,K:    4.394     2.065     0.295
   2      3.16     392.5    75 ->  77      gap,J,K:    4.460     1.848     0.274
   3      3.25     381.3    76 ->  80      gap,J,K:    5.074     2.126     0.152
   4      3.28     377.9    74 ->  77      gap,J,K:    4.855     2.123     0.274
   5      3.58     346.1    76 ->  79      gap,J,K:    4.882     1.343     0.022
   6      3.60     344.1    76 ->  81      gap,J,K:    5.203     1.728     0.064
   7      3.64     341.1    75 ->  78      gap,J,K:    4.944     1.908     0.300
   8      3.87     320.6    74 ->  78      gap,J,K:    5.339     1.702     0.115
   9      3.87     320.0    75 ->  79      gap,J,K:    5.431     1.670     0.057
  10      3.91     317.0    75 ->  80      gap,J,K:    5.623     1.911     0.099
  11      3.98     311.2    74 ->  79      gap,J,K:    5.827     1.998     0.077
  12      4.04     306.8    72 ->  77      gap,J,K:    5.800     2.242     0.242
  13      4.08     303.6    76 ->  82      gap,J,K:    5.583     1.822     0.162
  14      4.25     291.9    73 ->  77      gap,J,K:    5.494     1.388     0.071
  15      4.31     287.7    73 ->  78      gap,J,K:    5.978     2.181     0.256
  16      4.33     286.2    75 ->  81      gap,J,K:    5.752     1.563     0.071
  17      4.48     276.9    76 ->  84      gap,J,K:    5.995     1.815     0.148
  18      4.50     275.8    69 ->  81      gap,J,K:    8.038     3.542     0.000
  19      4.51     274.6    74 ->  80      gap,J,K:    6.019     1.658     0.077
  20      4.63     267.8    75 ->  82      gap,J,K:    6.132     1.794     0.146
  21      4.68     264.8    76 ->  83      gap,J,K:    5.890     1.217     0.005
  22      4.70     264.1    71 ->  77      gap,J,K:    6.169     1.769     0.147
  23      4.90     253.0    74 ->  82      gap,J,K:    6.528     1.825     0.099
  24      4.94     250.9    74 ->  81      gap,J,K:    6.148     1.227     0.011

average / max PT2 energy lowering (eV):       0.042       0.099

CSF included by PT:                   205 
total number of CSF included:         231 
 
sTD-DFT procedure...
setting up A+B and A-B matrices...  done
estimated time (min):    0.001
calculating (A-B)^0.5 ... done
calculating (A+B)*(A-B)^0.5 ... done
calculating (A-B)^0.5 *(A+B)*(A-B)^0.5 ... done
diagonalizing ...using LAPACKE_ssyevr ...done

   32 roots found, lowest/highest eigenvalue :     2.216     4.970

excitation energies, transition moments and amplitudes

molecular weight: 1003.134
state   eV        nm        fL         fV        Rl        RV
   0   2.216     559.4   1.532697   1.806819  341.517610  409.794516     0.76 (  76->  77)    0.11 (  76->  78)    0.08 (  75->  77)
   1   2.529     490.2   0.032478   0.043933  -417.803700  -442.970178     0.55 (  76->  78)    0.17 (  76->  80)    0.11 (  75->  77)
   2   2.765     448.4   0.061223   0.061918  -258.838139  -263.185981     0.23 (  76->  80)    0.15 (  74->  77)    0.14 (  75->  77)
   3   2.905     426.7   0.095690   0.094707  -265.921364  -305.516875     0.24 (  76->  80)    0.19 (  75->  79)    0.14 (  76->  79)
   4   2.970     417.4   0.098208   0.103368  -138.218700  -141.301577     0.35 (  75->  77)    0.15 (  75->  78)    0.14 (  76->  78)
   5   3.000     413.3   0.419286   0.440722  525.505978  547.759076     0.59 (  74->  77)    0.09 (  75->  78)    0.08 (  76->  79)
   6   3.342     371.0   0.026266   0.021586  -14.430855  -2.882156     0.79 (  76->  81)    0.17 (  75->  81)    0.00 (  59->  81)
   7   3.490     355.2   0.157950   0.154440  182.928763  160.880596     0.52 (  75->  78)    0.10 (  75->  77)    0.09 (  76->  77)
   8   3.618     342.7   0.457951   0.400610  201.259214  178.241702     0.28 (  72->  77)    0.24 (  73->  77)    0.18 (  74->  78)
   9   3.633     341.3   0.326662   0.306258  215.517621  211.517386     0.29 (  76->  82)    0.27 (  75->  80)    0.13 (  74->  78)
  10   3.724     332.9   0.134309   0.133300  -79.717432  -72.672162     0.47 (  72->  77)    0.19 (  73->  78)    0.06 (  76->  79)
  11   3.822     324.4   0.138183   0.121095  -93.693556  -85.285235     0.16 (  74->  78)    0.16 (  73->  78)    0.11 (  73->  77)
  12   3.873     320.1   0.054511   0.055482  82.742186  87.409505     0.28 (  76->  79)    0.25 (  74->  79)    0.09 (  74->  80)
  13   3.946     314.2   0.412004   0.368923  -204.247403  -203.435946     0.32 (  76->  82)    0.16 (  75->  80)    0.10 (  76->  84)
  14   4.069     304.7   0.050422   0.046574  -109.105699  -85.732715     0.43 (  76->  84)    0.21 (  75->  82)    0.08 (  74->  78)
  15   4.164     297.7   0.257159   0.224510  -155.035049  -155.976666     0.33 (  71->  77)    0.13 (  73->  77)    0.12 (  73->  78)
  16   4.264     290.8   0.009042   0.005069   2.148890   0.854205     0.53 (  76->  83)    0.35 (  75->  83)    0.11 (  74->  83)
  17   4.298     288.5   0.008339   0.006354  -20.635902  -18.256695     0.47 (  75->  81)    0.23 (  69->  81)    0.13 (  76->  81)
  18   4.312     287.5   0.004620   0.003588  16.989576  19.900833     0.71 (  69->  81)    0.16 (  75->  81)    0.04 (  76->  81)
  19   4.387     282.6   0.015091   0.011292  -10.102038  -8.560199     0.26 (  74->  80)    0.23 (  74->  82)    0.06 (  71->  77)
  20   4.440     279.2   0.004593   0.003830  -61.290038  -57.737712     0.50 (  75->  79)    0.30 (  74->  79)    0.11 (  76->  79)
  21   4.470     277.4   0.234692   0.204914  115.539682  111.963276     0.32 (  70->  78)    0.14 (  71->  77)    0.14 (  73->  80)
  22   4.574     271.1   0.031217   0.028470  65.884428  62.461204     0.19 (  75->  82)    0.15 (  71->  78)    0.12 (  76->  88)
  23   4.604     269.3   0.105020   0.091295  58.470659  59.071539     0.15 (  73->  77)    0.13 (  70->  77)    0.13 (  73->  78)
  24   4.670     265.5   0.276672   0.234097  48.500551  54.077564     0.24 (  72->  79)    0.11 (  76->  85)    0.10 (  73->  77)
  25   4.698     263.9   0.070487   0.061138  16.830344  16.827615     0.47 (  76->  89)    0.21 (  76->  88)    0.08 (  76->  90)
  26   4.712     263.1   0.174127   0.160903  -46.776150  -50.487469     0.19 (  71->  78)    0.18 (  75->  82)    0.15 (  76->  84)
  27   4.776     259.6   0.374357   0.301928  -294.745578  -261.906809     0.25 (  72->  79)    0.12 (  68->  77)    0.09 (  74->  80)
  28   4.870     254.6   0.196779   0.181556   4.403367   1.377992     0.22 (  74->  82)    0.08 (  76->  86)    0.08 (  76->  90)
  29   4.896     253.2   0.194273   0.165949  100.474731  92.472075     0.17 (  76->  85)    0.16 (  68->  77)    0.11 (  72->  79)
  30   4.942     250.9   0.302820   0.265729  101.190597  100.803425     0.41 (  76->  86)    0.10 (  76->  88)    0.08 (  76->  85)
  31   4.970     249.5   0.061592   0.055960  -101.915133  -94.933522     0.16 (  75->  84)    0.12 (  76->  88)    0.06 (  76->  89)

-----------------------------------------------------------------------------
         ABSORPTION SPECTRUM VIA TRANSITION ELECTRIC DIPOLE MOMENTS
-----------------------------------------------------------------------------
State   Energy  Wavelength   fosc         T2         TX        TY        TZ  
        (cm-1)    (nm)                  (au**2)     (au)      (au)      (au) 
-----------------------------------------------------------------------------
   0   17875.0    559.4   1.532696664  28.22839  -0.38086   1.58729  -5.05607
   1   20400.3    490.2   0.032477692   0.52411  -0.51239   0.49456   0.13033
   2   22301.8    448.4   0.061222956   0.90375   0.59574   0.55192  -0.49419
   3   23433.6    426.7   0.095690107   1.34432   0.34711  -0.68209  -0.87097
   4   23955.2    417.4   0.098207810   1.34965  -0.36503   0.69876  -0.85331
   5   24194.9    413.3   0.419285839   5.70509   0.70316   1.22156   1.92833
   6   26952.2    371.0   0.026265603   0.32083   0.00800   0.10716  -0.55613
   7   28150.1    355.2   0.157949954   1.84720   0.05628   1.29497   0.40875
   8   29181.2    342.7   0.457951362   5.16645  -0.45566  -1.80950   1.29790
   9   29300.8    341.3   0.326661880   3.67024   0.26886   1.82487  -0.51749
  10   30039.3    332.9   0.134309427   1.47194  -0.31396  -0.69969   0.94011
  11   30828.6    324.4   0.138183136   1.47563   0.13518  -1.05451  -0.58767
  12   31236.5    320.1   0.054511106   0.57451  -0.18807  -0.21400  -0.70238
  13   31828.7    314.2   0.412003979   4.26146   0.21258  -2.05309  -0.03279
  14   32818.3    304.7   0.050421641   0.50580  -0.17558   0.32281   0.60890
  15   33586.6    297.7   0.257159344   2.52064   0.26232   0.65063  -1.42426
  16   34392.7    290.8   0.009042094   0.08655  -0.09397   0.04948   0.27436
  17   34663.3    288.5   0.008339169   0.07920   0.00411   0.09768  -0.26390
  18   34779.0    287.5   0.004619686   0.04373   0.01353  -0.10970   0.17751
  19   35382.4    282.6   0.015091313   0.14042  -0.14041  -0.19280   0.28902
  20   35814.3    279.2   0.004592798   0.04222  -0.16936   0.08998   0.07376
  21   36055.3    277.4   0.234691742   2.14291  -0.00409   1.35979   0.54210
  22   36889.8    271.1   0.031216527   0.27858   0.09206   0.49119  -0.16982
  23   37129.9    269.3   0.105019641   0.93116  -0.37813  -0.28930  -0.83933
  24   37665.0    265.5   0.276671994   2.41826   0.89435   0.53325   1.15501
  25   37890.3    263.9   0.070486864   0.61243  -0.47559  -0.52197  -0.33732
  26   38004.4    263.1   0.174126590   1.50836  -0.06009  -0.30001   1.18943
  27   38521.4    259.6   0.374357012   3.19934   1.07626   1.42858  -0.01328
  28   39279.2    254.6   0.196779471   1.64927  -0.27252   0.17078  -1.24332
  29   39489.4    253.2   0.194272974   1.61960   0.75293   0.77817   0.66869
  30   39856.2    250.9   0.302820455   2.50129   0.26356   0.33142   1.52381
  31   40087.8    249.5   0.061592460   0.50581  -0.29831  -0.19159  -0.61654

-----------------------------------------------------------------------------
         ABSORPTION SPECTRUM VIA TRANSITION VELOCITY DIPOLE MOMENTS
-----------------------------------------------------------------------------
State   Energy  Wavelength   fosc         P2         PX        PY        PZ  
        (cm-1)    (nm)                  (au**2)     (au)      (au)      (au) 
-----------------------------------------------------------------------------
   0   17875.0    559.4   1.806818768   0.22073  -0.03473   0.13539  -0.44855
   1   20400.3    490.2   0.043933168   0.00613  -0.05085   0.05792   0.01361
   2   22301.8    448.4   0.061918449   0.00944   0.06231   0.05876  -0.04586
   3   23433.6    426.7   0.094707481   0.01517   0.03894  -0.06348  -0.09810
   4   23955.2    417.4   0.103368285   0.01692  -0.04073   0.07844  -0.09546
   5   24194.9    413.3   0.440721750   0.07288   0.07968   0.14205   0.21529
   6   26952.2    371.0   0.021585948   0.00398   0.00169  -0.00145  -0.06302
   7   28150.1    355.2   0.154440072   0.02971   0.00809   0.15866   0.06690
   8   29181.2    342.7   0.400610392   0.07990  -0.05628  -0.22704   0.15869
   9   29300.8    341.3   0.306258120   0.06133   0.03575   0.23644  -0.06442
  10   30039.3    332.9   0.133299975   0.02737  -0.03773  -0.08933   0.13403
  11   30828.6    324.4   0.121095284   0.02551   0.01819  -0.13995  -0.07481
  12   31236.5    320.1   0.055482076   0.01184  -0.02753  -0.03423  -0.09957
  13   31828.7    314.2   0.368923372   0.08025   0.03060  -0.28163  -0.00071
  14   32818.3    304.7   0.046573644   0.01045  -0.02274   0.05093   0.08565
  15   33586.6    297.7   0.224510409   0.05154   0.03917   0.09754  -0.20121
  16   34392.7    290.8   0.005069386   0.00119  -0.00960   0.00849   0.03205
  17   34663.3    288.5   0.006353754   0.00151  -0.00051   0.00668  -0.03821
  18   34779.0    287.5   0.003587690   0.00085  -0.00117  -0.01429   0.02544
  19   35382.4    282.6   0.011292122   0.00273  -0.02202  -0.02849   0.03787
  20   35814.3    279.2   0.003830498   0.00094  -0.02594   0.01214   0.01084
  21   36055.3    277.4   0.204913695   0.05049  -0.00045   0.20915   0.08217
  22   36889.8    271.1   0.028470294   0.00718   0.01446   0.08054  -0.02194
  23   37129.9    269.3   0.091294570   0.02317  -0.05591  -0.04870  -0.13293
  24   37665.0    265.5   0.234096955   0.06026   0.13898   0.08506   0.18360
  25   37890.3    263.9   0.061137637   0.01583  -0.07603  -0.08285  -0.05646
  26   38004.4    263.1   0.160903049   0.04179  -0.01044  -0.05361   0.19700
  27   38521.4    259.6   0.301928309   0.07949   0.17179   0.22354   0.00257
  28   39279.2    254.6   0.181556006   0.04874  -0.04714   0.03070  -0.21348
  29   39489.4    253.2   0.165948995   0.04479   0.12620   0.12749   0.11228
  30   39856.2    250.9   0.265729231   0.07238   0.04640   0.06000   0.25813
  31   40087.8    249.5   0.055959776   0.01533  -0.05093  -0.03979  -0.10562

-------------------------------------------------------------------
                             CD SPECTRUM
-------------------------------------------------------------------
State   Energy Wavelength       R         MX        MY        MZ   
        (cm-1)   (nm)       (1e40*cgs)   (au)      (au)      (au)  
-------------------------------------------------------------------
   0   17875.0    559.4    341.51761  -2.94072   2.91514   1.42324
   1   20400.3    490.2    -417.80370  -3.41164  -0.21469   1.00160
   2   22301.8    448.4    -258.83814   1.08391   0.52298  -0.33123
   3   23433.6    426.7    -265.92136   3.04920   0.88489  -0.77304
   4   23955.2    417.4    -138.21870  -3.01610   0.49759   1.01053
   5   24194.9    413.3    525.50598  -1.47712  -0.97667   0.00123
   6   26952.2    371.0    -14.43086  -0.80663   0.35343  -0.05358
   7   28150.1    355.2    182.92876  -4.43944  -0.64736   0.76366
   8   29181.2    342.7    201.25921   4.06194  -1.05966  -0.70912
   9   29300.8    341.3    215.51762  -4.49800   0.46133   1.05667
  10   30039.3    332.9    -79.71743   0.69120  -1.04338  -0.18599
  11   30828.6    324.4    -93.69356   4.53904   0.74073  -0.96145
  12   31236.5    320.1     82.74219   0.41104   0.68194   0.18192
  13   31828.7    314.2    -204.24740   9.37077   0.57860  -1.90252
  14   32818.3    304.7    -109.10570  -2.91011  -0.91022   0.40356
  15   33586.6    297.7    -155.03505   0.03464   1.47076   0.21647
  16   34392.7    290.8      2.14889   0.08220   0.14140  -0.03057
  17   34663.3    288.5    -20.63590  -0.73724   0.16832  -0.28092
  18   34779.0    287.5     16.98958   0.86506  -0.25227  -0.62785
  19   35382.4    282.6    -10.10204   0.20514  -0.30391   0.04521
  20   35814.3    279.2    -61.29004  -1.48065  -0.18905   0.35606
  21   36055.3    277.4    115.53968  -6.66585  -0.85177   1.18210
  22   36889.8    271.1     65.88443  -1.25334  -0.30512   0.08391
  23   37129.9    269.3     58.47066  -0.37547   0.56238   0.27085
  24   37665.0    265.5     48.50055   1.99524  -1.05116  -1.23778
  25   37890.3    263.9     16.83034  -0.34591   0.19153   0.40300
  26   38004.4    263.1    -46.77615   0.17830  -1.10055  -0.10175
  27   38521.4    259.6    -294.74558   0.91070   0.18172  -0.80150
  28   39279.2    254.6      4.40337  -2.23737   1.00608   0.64363
  29   39489.4    253.2    100.47473   0.45357  -0.34393  -0.74790
  30   39856.2    250.9    101.19060  -0.46446  -1.06827   0.03096
  31   40087.8    249.5    -101.91513  -1.63958   0.03200   0.08209

sTD-DFT done

Total run time:        2.372 sec

           *** ORCA-CIS/TD-DFT FINISHED WITHOUT ERROR ***

-------------------------   --------------------
FINAL SINGLE POINT ENERGY     -5182.821605689380
-------------------------   --------------------


                            ***************************************
                            *     ORCA property calculations      *
                            ***************************************

                                    ---------------------
                                    Active property flags
                                    ---------------------
   (+) Dipole Moment


------------------------------------------------------------------------------
                       ORCA ELECTRIC PROPERTIES CALCULATION
------------------------------------------------------------------------------

Dipole Moment Calculation                       ... on
Quadrupole Moment Calculation                   ... off
Polarizability Calculation                      ... off
GBWName                                         ... xtbopt.gbw
Electron density file                           ... xtbopt.scfp
The origin for moment calculation is the CENTER OF MASS  = (-4.963416, -4.722259 -16.045407)

-------------
DIPOLE MOMENT
-------------
                                X             Y             Z
Electronic contribution:     30.24025       9.00871     127.41236
Nuclear contribution   :    -30.53407      -9.90205    -128.36765
                        -----------------------------------------
Total Dipole Moment    :     -0.29382      -0.89333      -0.95529
                        -----------------------------------------
Magnitude (a.u.)       :      1.34050
Magnitude (Debye)      :      3.40728



--------------------
Rotational spectrum 
--------------------
 
Rotational constants in cm-1:     0.001335     0.000284     0.000247 
Rotational constants in MHz :    40.025158     8.517095     7.414215 

 Dipole components along the rotational axes: 
x,y,z [a.u.] :    -0.741288    -1.116886    -0.000161 
x,y,z [Debye]:    -1.884204    -2.838899    -0.000408 

 

Timings for individual modules:

Sum of individual times         ...      468.475 sec (=   7.808 min)
GTO integral calculation        ...        2.581 sec (=   0.043 min)   0.6 %
SCF iterations                  ...      462.853 sec (=   7.714 min)  98.8 %
CIS module                      ...        3.040 sec (=   0.051 min)   0.6 %
                             ****ORCA TERMINATED NORMALLY****
TOTAL RUN TIME: 0 days 0 hours 7 minutes 49 seconds 387 msec
