
                                 *****************
                                 * O   R   C   A *
                                 *****************

           --- An Ab Initio, DFT and Semiempirical electronic structure package ---

                  #######################################################
                  #                        -***-                        #
                  #          Department of theory and spectroscopy      #
                  #               Directorship: Frank Neese             #
                  #        Max Planck Institute fuer Kohlenforschung    #
                  #                Kaiser Wilhelm Platz 1               #
                  #                 D-45470 Muelheim/Ruhr               #
                  #                      Germany                        #
                  #                                                     #
                  #                  All rights reserved                #
                  #                        -***-                        #
                  #######################################################


                         Program Version 4.2.0 -  RELEASE  -


 With contributions from (in alphabetic order):
   Daniel Aravena         : Magnetic Suceptibility
   Michael Atanasov       : Ab Initio Ligand Field Theory (pilot matlab implementation)
   Alexander A. Auer      : GIAO ZORA, VPT2
   Ute Becker             : Parallelization
   Giovanni Bistoni       : ED, misc. LED, open-shell LED, HFLED
   Martin Brehm           : Molecular dynamics
   Dmytro Bykov           : SCF Hessian
   Vijay G. Chilkuri      : MRCI spin determinant printing, contributions to CSF-ICE
   Dipayan Datta          : RHF DLPNO-CCSD density
   Achintya Kumar Dutta   : EOM-CC, STEOM-CC
   Dmitry Ganyushin       : Spin-Orbit,Spin-Spin,Magnetic field MRCI
   Miquel Garcia          : C-PCM Hessian, Gaussian charge scheme
   Yang Guo               : DLPNO-NEVPT2, CIM, IAO-localization
   Andreas Hansen         : Spin unrestricted coupled pair/coupled cluster methods
   Benjamin Helmich-Paris : CASSCF linear response (MC-RPA)
   Lee Huntington         : MR-EOM, pCC
   Robert Izsak           : Overlap fitted RIJCOSX, COSX-SCS-MP3, EOM
   Christian Kollmar      : KDIIS, OOCD, Brueckner-CCSD(T), CCSD density
   Simone Kossmann        : Meta GGA functionals, TD-DFT gradient, OOMP2, MP2 Hessian
   Martin Krupicka        : AUTO-CI
   Lucas Lang             : DCDCAS
   Dagmar Lenk            : GEPOL surface, SMD
   Dimitrios Liakos       : Extrapolation schemes; Compound Job, initial MDCI parallelization
   Dimitrios Manganas     : Further ROCIS development; embedding schemes
   Dimitrios Pantazis     : SARC Basis sets
   Taras Petrenko         : DFT Hessian,TD-DFT gradient, ASA, ECA, R-Raman, ABS, FL, XAS/XES, NRVS
   Peter Pinski           : DLPNO-MP2, DLPNO-MP2 Gradient
   Christoph Reimann      : Effective Core Potentials
   Marius Retegan         : Local ZFS, SOC
   Christoph Riplinger    : Optimizer, TS searches, QM/MM, DLPNO-CCSD(T), (RO)-DLPNO pert. Triples
   Tobias Risthaus        : Range-separated hybrids, TD-DFT gradient, RPA, STAB
   Michael Roemelt        : Original ROCIS implementation
   Masaaki Saitow         : Open-shell DLPNO-CCSD energy and density
   Barbara Sandhoefer     : DKH picture change effects
   Avijit Sen             : IP-ROCIS
   Kantharuban Sivalingam : CASSCF convergence, NEVPT2, FIC-MRCI
   Bernardo de Souza      : ESD, SOC TD-DFT
   Georgi Stoychev        : AutoAux, RI-MP2 NMR
   Willem Van den Heuvel  : Paramagnetic NMR
   Boris Wezisla          : Elementary symmetry handling
   Frank Wennmohs         : Technical directorship


 We gratefully acknowledge several colleagues who have allowed us to
 interface, adapt or use parts of their codes:
   Stefan Grimme, W. Hujo, H. Kruse,             : VdW corrections, initial TS optimization,
                  C. Bannwarth                     DFT functionals, gCP, sTDA/sTD-DF
   Ed Valeev, F. Pavosevic, A. Kumar             : LibInt (2-el integral package), F12 methods
   Garnet Chan, S. Sharma, J. Yang, R. Olivares  : DMRG
   Ulf Ekstrom                                   : XCFun DFT Library
   Mihaly Kallay                                 : mrcc  (arbitrary order and MRCC methods)
   Andreas Klamt, Michael Diedenhofen            : otool_cosmo (COSMO solvation model)
   Jiri Pittner, Ondrej Demel                    : Mk-CCSD
   Frank Weinhold                                : gennbo (NPA and NBO analysis)
   Christopher J. Cramer and Donald G. Truhlar   : smd solvation model
   Lars Goerigk                                  : TD-DFT with DH, B97 family of functionals
   V. Asgeirsson, H. Jonsson                     : NEB implementation
   FAccTs GmbH                                   : IRC, NEB, NEB-TS, Multilevel, MM, QM/MM, CI optimization
   S Lehtola, MJT Oliveira, MAL Marques          : LibXC Library


 Your calculation uses the libint2 library for the computation of 2-el integrals
 For citations please refer to: http://libint.valeyev.net

 Your ORCA version has been built with support for libXC version: 4.2.3
 For citations please refer to: https://tddft.org/programs/libxc/

 This ORCA versions uses:
   CBLAS   interface :  Fast vector & matrix operations
   LAPACKE interface :  Fast linear algebra routines
   SCALAPACK package :  Parallel linear algebra routines


XCFun DFT library Copyright 2009-2010 Ulf Ekstrom and contributors.
See http://admol.org/xcfun for more information. This is free soft-
ware; see the source code for copying conditions. There is ABSOLUTELY
NO WARRANTY; not even for MERCHANTABILITY or FITNESS FOR A PARTICULAR
PURPOSE. For details see the documentation. Scientific users of this 
library should cite U. Ekstrom, L. Visscher, R. Bast, A. J. Thorvald-
sen and K. Ruud; J.Chem.Theor.Comp. 2010, DOI: 10.1021/ct100117s
XCFun Version 0.99 
----- Orbital basis set information -----
Your calculation utilizes the basis: def2-SVP
   F. Weigend and R. Ahlrichs, Phys. Chem. Chem. Phys. 7, 3297 (2005).

----- AuxJ basis set information -----
Your calculation utilizes the auxiliary basis: def2/J
   F. Weigend, Phys. Chem. Chem. Phys. 8, 1057 (2006).

================================================================================
                                        WARNINGS
                       Please study these warnings very carefully!
================================================================================

INFO   : Checking CIS options ...

WARNING: CIS/ROCIS methods need fully converged wavefunctions
  ===> : Setting SCFConvForced true
         You can overwrite this default with %scf ConvForced false 


INFO   : the flag for use of LIBINT has been found!

================================================================================
                                       INPUT FILE
================================================================================
NAME = xtbopt.inp
|  1> # ORCA input file
|  2> # SCF done       -222.233744749143          0.000293063412
|  3> ! CAM-B3LYP def2-SVP def2/J RIJCOSX Grid4 TightSCF
|  4> %maxcore 5000
|  5> %tddft
|  6>     Mode sTDDFT
|  7>     Ethresh 5.0
|  8>     maxcore 5000
|  9> end
| 10> 
| 11> %pal
| 12>   nprocs 6
| 13>   end
| 14> * xyz 0 1
| 15>    C        4.74587        13.71338        -2.45590
| 16>    C        5.79663        13.54274        -1.59647
| 17>    C        6.95972        14.34218        -1.59573
| 18>    N        7.92925        14.95436        -1.54201
| 19>    C        5.88628        12.54078        -0.60650
| 20>    N        6.04232        11.75185         0.21293
| 21>    C        4.66272        14.71234        -3.51116
| 22>    C        3.46455        14.51357        -4.24393
| 23>    C        3.11115        15.30137        -5.31330
| 24>    C        3.97690        16.33590        -5.67826
| 25>    C        5.16884        16.53055        -4.93876
| 26>    C        5.52793        15.73469        -3.85870
| 27>    S        6.08415        17.86674        -5.56379
| 28>    C        4.89006        18.14546        -6.78364
| 29>    C        3.85090        17.28375        -6.73246
| 30>    C        2.72445        13.37554        -3.67532
| 31>    O        1.66848        12.92311        -4.06715
| 32>    C        3.52744        12.91048        -2.51370
| 33>    C        3.11832        11.95787        -1.65075
| 34>    C        1.86575        11.18389        -1.80560
| 35>    C        1.46375        10.44341        -0.57278
| 36>    C        0.21047        10.17662        -0.20435
| 37>    O        0.05177         9.53126         0.99680
| 38>    C       -1.08608         8.74256         1.26048
| 39>    C       -1.20454         7.47905         0.39960
| 40>    C       -1.85523         7.67258        -0.98758
| 41>    O       -0.95796         8.28195        -1.89927
| 42>    C       -1.20488         9.62886        -2.20092
| 43>    C       -0.99809        10.57911        -1.00545
| 44>    C       -2.28041         6.32427        -1.50796
| 45>    C       -1.65190         5.68265        -2.49052
| 46>    C       -1.98206         4.37710        -3.03302
| 47>    C       -1.07917         3.75155        -3.85637
| 48>    C       -1.35466         2.47258        -4.38763
| 49>    C       -0.61210         1.63797        -5.20742
| 50>    C        0.74673         1.92466        -5.75461
| 51>    C        1.79486         0.92520        -5.23613
| 52>    N        3.13084         1.36883        -5.60295
| 53>    C        0.75215         1.97244        -7.29010
| 54>    N       -0.17900         2.98674        -7.75784
| 55>    C       -1.40065         0.44573        -5.41602
| 56>    C       -1.16787        -0.68879        -6.10351
| 57>    C       -2.13709        -1.81703        -6.11121
| 58>    C       -3.43751        -1.53116        -5.43217
| 59>    C       -3.66000        -0.39629        -4.74352
| 60>    C       -2.67007         0.61183        -4.68925
| 61>    C       -2.62549         1.84142        -4.06313
| 62>    C       -3.54511         2.51497        -3.22759
| 63>    C       -3.22717         3.73651        -2.72922
| 64>    C       -1.50485        -2.98918        -5.38428
| 65>    C       -1.42528        -4.21880        -5.86209
| 66>    C       -0.89796        -5.38112        -5.07879
| 67>    C       -2.03510        -6.26176        -4.64829
| 68>    C       -1.98374        -7.57463        -4.43886
| 69>    O       -3.16676        -8.20500        -4.12623
| 70>    C       -3.17143        -9.21926        -3.14282
| 71>    C       -2.65701        -8.76627        -1.77206
| 72>    C       -1.14124        -8.91369        -1.57014
| 73>    O       -0.39985        -7.85444        -2.17516
| 74>    C        0.23460        -8.13817        -3.39557
| 75>    C       -0.73430        -8.40684        -4.56360
| 76>    C       -0.74053        -8.87650        -0.11882
| 77>    C       -1.41460        -8.25806         0.85812
| 78>    C       -0.93622        -8.20579         2.20323
| 79>    C       -1.60632        -7.76591         3.29632
| 80>    C       -2.99044        -7.37781         3.49157
| 81>    C       -4.08451        -7.89896         2.84903
| 82>    C       -5.41271        -7.52053         3.13464
| 83>    N       -6.50941        -7.23603         3.31977
| 84>    C       -4.03182        -8.94861         1.91014
| 85>    N       -4.06394        -9.83045         1.17471
| 86>    C       -3.03070        -6.50338         4.65644
| 87>    C       -1.76964        -6.55133         5.30744
| 88>    C       -0.85510        -7.41201         4.53581
| 89>    O        0.27924        -7.73002         4.80878
| 90>    C       -1.51206        -5.85638         6.46457
| 91>    C       -2.53729        -5.06842         6.99674
| 92>    C       -3.78562        -5.01473         6.33066
| 93>    C       -4.05228        -5.72473         5.16619
| 94>    S       -4.89456        -3.96759         7.15834
| 95>    C       -3.70537        -3.62221         8.36645
| 96>    C       -2.52947        -4.25572         8.16544
| 97>    H        2.19309        15.12192        -5.85121
| 98>    H        6.44499        15.92542        -3.32682
| 99>    H        5.04293        18.95126        -7.47505
|100>    H        3.01663        17.30521        -7.41008
|101>    H        3.72370        11.72077        -0.78623
|102>    H        2.03235        10.46494        -2.62087
|103>    H        1.07046        11.83934        -2.16992
|104>    H        2.26138        10.09697         0.06768
|105>    H       -2.01450         9.32829         1.20476
|106>    H       -0.94397         8.44624         2.30417
|107>    H       -1.79962         6.75148         0.95378
|108>    H       -0.20793         7.06312         0.24426
|109>    H       -2.75791         8.29521        -0.87622
|110>    H       -2.22256         9.75785        -2.60159
|111>    H       -0.48755         9.86706        -2.98885
|112>    H       -1.88428        10.58281        -0.37042
|113>    H       -0.86968        11.59211        -1.38929
|114>    H       -3.12928         5.90002        -0.99137
|115>    H       -0.79236         6.16911        -2.93251
|116>    H       -0.14332         4.24035        -4.08879
|117>    H        1.04637         2.91794        -5.40019
|118>    H        1.63788        -0.05372        -5.69393
|119>    H        1.65694         0.81341        -4.14674
|120>    H        3.82303         0.69263        -5.29964
|121>    H        3.34272         2.25069        -5.14669
|122>    H        0.41701         1.01538        -7.69516
|123>    H        1.79206         2.13720        -7.61544
|124>    H        0.08216         3.89781        -7.39511
|125>    H       -0.16168         3.03980        -8.77025
|126>    H       -0.24679        -0.86080        -6.64213
|127>    H       -2.32255        -2.12810        -7.14752
|128>    H       -4.17832        -2.31448        -5.48498
|129>    H       -4.60131        -0.23317        -4.23804
|130>    H       -4.49221         2.04979        -2.99442
|131>    H       -3.93139         4.25775        -2.09956
|132>    H       -1.14846        -2.75770        -4.38967
|133>    H       -1.80061        -4.45208        -6.85009
|134>    H       -0.37382        -5.01364        -4.19133
|135>    H       -0.18671        -5.94712        -5.68521
|136>    H       -2.98372        -5.76680        -4.50009
|137>    H       -2.62569       -10.11319        -3.47778
|138>    H       -4.22825        -9.48587        -3.06169
|139>    H       -3.15478        -9.36420        -1.00704
|140>    H       -2.92989        -7.71855        -1.63697
|141>    H       -0.81301        -9.87721        -1.99021
|142>    H        0.92547        -8.98863        -3.28538
|143>    H        0.82006        -7.23893        -3.59830
|144>    H       -1.00227        -9.46311        -4.59963
|145>    H       -0.22273        -8.16724        -5.49755
|146>    H        0.20615        -9.34901         0.10866
|147>    H       -2.34605        -7.75939         0.64022
|148>    H        0.10096        -8.47732         2.36811
|149>    H       -0.54721        -5.91783         6.94355
|150>    H       -5.01576        -5.64825         4.68978
|151>    H       -3.96544        -2.95446         9.16464
|152>    H       -1.67614        -4.16103         8.81229
|153> *
|154> 
|155>                          ****END OF INPUT****
================================================================================

                       ****************************
                       * Single Point Calculation *
                       ****************************

---------------------------------
CARTESIAN COORDINATES (ANGSTROEM)
---------------------------------
  C      4.745870   13.713380   -2.455900
  C      5.796630   13.542740   -1.596470
  C      6.959720   14.342180   -1.595730
  N      7.929250   14.954360   -1.542010
  C      5.886280   12.540780   -0.606500
  N      6.042320   11.751850    0.212930
  C      4.662720   14.712340   -3.511160
  C      3.464550   14.513570   -4.243930
  C      3.111150   15.301370   -5.313300
  C      3.976900   16.335900   -5.678260
  C      5.168840   16.530550   -4.938760
  C      5.527930   15.734690   -3.858700
  S      6.084150   17.866740   -5.563790
  C      4.890060   18.145460   -6.783640
  C      3.850900   17.283750   -6.732460
  C      2.724450   13.375540   -3.675320
  O      1.668480   12.923110   -4.067150
  C      3.527440   12.910480   -2.513700
  C      3.118320   11.957870   -1.650750
  C      1.865750   11.183890   -1.805600
  C      1.463750   10.443410   -0.572780
  C      0.210470   10.176620   -0.204350
  O      0.051770    9.531260    0.996800
  C     -1.086080    8.742560    1.260480
  C     -1.204540    7.479050    0.399600
  C     -1.855230    7.672580   -0.987580
  O     -0.957960    8.281950   -1.899270
  C     -1.204880    9.628860   -2.200920
  C     -0.998090   10.579110   -1.005450
  C     -2.280410    6.324270   -1.507960
  C     -1.651900    5.682650   -2.490520
  C     -1.982060    4.377100   -3.033020
  C     -1.079170    3.751550   -3.856370
  C     -1.354660    2.472580   -4.387630
  C     -0.612100    1.637970   -5.207420
  C      0.746730    1.924660   -5.754610
  C      1.794860    0.925200   -5.236130
  N      3.130840    1.368830   -5.602950
  C      0.752150    1.972440   -7.290100
  N     -0.179000    2.986740   -7.757840
  C     -1.400650    0.445730   -5.416020
  C     -1.167870   -0.688790   -6.103510
  C     -2.137090   -1.817030   -6.111210
  C     -3.437510   -1.531160   -5.432170
  C     -3.660000   -0.396290   -4.743520
  C     -2.670070    0.611830   -4.689250
  C     -2.625490    1.841420   -4.063130
  C     -3.545110    2.514970   -3.227590
  C     -3.227170    3.736510   -2.729220
  C     -1.504850   -2.989180   -5.384280
  C     -1.425280   -4.218800   -5.862090
  C     -0.897960   -5.381120   -5.078790
  C     -2.035100   -6.261760   -4.648290
  C     -1.983740   -7.574630   -4.438860
  O     -3.166760   -8.205000   -4.126230
  C     -3.171430   -9.219260   -3.142820
  C     -2.657010   -8.766270   -1.772060
  C     -1.141240   -8.913690   -1.570140
  O     -0.399850   -7.854440   -2.175160
  C      0.234600   -8.138170   -3.395570
  C     -0.734300   -8.406840   -4.563600
  C     -0.740530   -8.876500   -0.118820
  C     -1.414600   -8.258060    0.858120
  C     -0.936220   -8.205790    2.203230
  C     -1.606320   -7.765910    3.296320
  C     -2.990440   -7.377810    3.491570
  C     -4.084510   -7.898960    2.849030
  C     -5.412710   -7.520530    3.134640
  N     -6.509410   -7.236030    3.319770
  C     -4.031820   -8.948610    1.910140
  N     -4.063940   -9.830450    1.174710
  C     -3.030700   -6.503380    4.656440
  C     -1.769640   -6.551330    5.307440
  C     -0.855100   -7.412010    4.535810
  O      0.279240   -7.730020    4.808780
  C     -1.512060   -5.856380    6.464570
  C     -2.537290   -5.068420    6.996740
  C     -3.785620   -5.014730    6.330660
  C     -4.052280   -5.724730    5.166190
  S     -4.894560   -3.967590    7.158340
  C     -3.705370   -3.622210    8.366450
  C     -2.529470   -4.255720    8.165440
  H      2.193090   15.121920   -5.851210
  H      6.444990   15.925420   -3.326820
  H      5.042930   18.951260   -7.475050
  H      3.016630   17.305210   -7.410080
  H      3.723700   11.720770   -0.786230
  H      2.032350   10.464940   -2.620870
  H      1.070460   11.839340   -2.169920
  H      2.261380   10.096970    0.067680
  H     -2.014500    9.328290    1.204760
  H     -0.943970    8.446240    2.304170
  H     -1.799620    6.751480    0.953780
  H     -0.207930    7.063120    0.244260
  H     -2.757910    8.295210   -0.876220
  H     -2.222560    9.757850   -2.601590
  H     -0.487550    9.867060   -2.988850
  H     -1.884280   10.582810   -0.370420
  H     -0.869680   11.592110   -1.389290
  H     -3.129280    5.900020   -0.991370
  H     -0.792360    6.169110   -2.932510
  H     -0.143320    4.240350   -4.088790
  H      1.046370    2.917940   -5.400190
  H      1.637880   -0.053720   -5.693930
  H      1.656940    0.813410   -4.146740
  H      3.823030    0.692630   -5.299640
  H      3.342720    2.250690   -5.146690
  H      0.417010    1.015380   -7.695160
  H      1.792060    2.137200   -7.615440
  H      0.082160    3.897810   -7.395110
  H     -0.161680    3.039800   -8.770250
  H     -0.246790   -0.860800   -6.642130
  H     -2.322550   -2.128100   -7.147520
  H     -4.178320   -2.314480   -5.484980
  H     -4.601310   -0.233170   -4.238040
  H     -4.492210    2.049790   -2.994420
  H     -3.931390    4.257750   -2.099560
  H     -1.148460   -2.757700   -4.389670
  H     -1.800610   -4.452080   -6.850090
  H     -0.373820   -5.013640   -4.191330
  H     -0.186710   -5.947120   -5.685210
  H     -2.983720   -5.766800   -4.500090
  H     -2.625690  -10.113190   -3.477780
  H     -4.228250   -9.485870   -3.061690
  H     -3.154780   -9.364200   -1.007040
  H     -2.929890   -7.718550   -1.636970
  H     -0.813010   -9.877210   -1.990210
  H      0.925470   -8.988630   -3.285380
  H      0.820060   -7.238930   -3.598300
  H     -1.002270   -9.463110   -4.599630
  H     -0.222730   -8.167240   -5.497550
  H      0.206150   -9.349010    0.108660
  H     -2.346050   -7.759390    0.640220
  H      0.100960   -8.477320    2.368110
  H     -0.547210   -5.917830    6.943550
  H     -5.015760   -5.648250    4.689780
  H     -3.965440   -2.954460    9.164640
  H     -1.676140   -4.161030    8.812290

----------------------------
CARTESIAN COORDINATES (A.U.)
----------------------------
  NO LB      ZA    FRAG     MASS         X           Y           Z
   0 C     6.0000    0    12.011    8.968395   25.914533   -4.640978
   1 C     6.0000    0    12.011   10.954043   25.592070   -3.016891
   2 C     6.0000    0    12.011   13.151965   27.102792   -3.015493
   3 N     7.0000    0    14.007   14.984111   28.259645   -2.913977
   4 C     6.0000    0    12.011   11.123457   23.698640   -1.146119
   5 N     7.0000    0    14.007   11.418330   22.207778    0.402379
   6 C     6.0000    0    12.011    8.811264   27.802293   -6.635131
   7 C     6.0000    0    12.011    6.547051   27.426673   -8.019865
   8 C     6.0000    0    12.011    5.879221   28.915399  -10.040682
   9 C     6.0000    0    12.011    7.515252   30.870377  -10.730356
  10 C     6.0000    0    12.011    9.767692   31.238212   -9.332904
  11 C     6.0000    0    12.011   10.446274   29.734255   -7.291886
  12 S    16.0000    0    32.060   11.497377   33.763246  -10.514039
  13 C     6.0000    0    12.011    9.240874   34.289950  -12.819222
  14 C     6.0000    0    12.011    7.277146   32.661554  -12.722506
  15 C     6.0000    0    12.011    5.148464   25.276107   -6.945348
  16 O     8.0000    0    15.999    3.152970   24.421139   -7.685800
  17 C     6.0000    0    12.011    6.665896   24.397271   -4.750205
  18 C     6.0000    0    12.011    5.892771   22.597099   -3.119465
  19 C     6.0000    0    12.011    3.525757   21.134489   -3.412090
  20 C     6.0000    0    12.011    2.766087   19.735185   -1.082397
  21 C     6.0000    0    12.011    0.397731   19.231025   -0.386166
  22 O     8.0000    0    15.999    0.097831   18.011471    1.883679
  23 C     6.0000    0    12.011   -2.052394   16.521044    2.381962
  24 C     6.0000    0    12.011   -2.276251   14.133356    0.755135
  25 C     6.0000    0    12.011   -3.505877   14.499075   -1.866256
  26 O     8.0000    0    15.999   -1.810282   15.650617   -3.589100
  27 C     6.0000    0    12.011   -2.276893   18.195908   -4.159136
  28 C     6.0000    0    12.011   -1.886117   19.991621   -1.900025
  29 C     6.0000    0    12.011   -4.309350   11.951138   -2.849631
  30 C     6.0000    0    12.011   -3.121639   10.738652   -4.706401
  31 C     6.0000    0    12.011   -3.745551    8.271520   -5.731577
  32 C     6.0000    0    12.011   -2.039336    7.089402   -7.287483
  33 C     6.0000    0    12.011   -2.559936    4.672499   -8.291419
  34 C     6.0000    0    12.011   -1.156701    3.095315   -9.840598
  35 C     6.0000    0    12.011    1.411115    3.637080  -10.874637
  36 C     6.0000    0    12.011    3.391794    1.748375   -9.894852
  37 N     7.0000    0    14.007    5.916430    2.586714  -10.588041
  38 C     6.0000    0    12.011    1.421358    3.727371  -13.776292
  39 N     7.0000    0    14.007   -0.338261    5.644121  -14.660193
  40 C     6.0000    0    12.011   -2.646845    0.842308  -10.234795
  41 C     6.0000    0    12.011   -2.206954   -1.301624  -11.533962
  42 C     6.0000    0    12.011   -4.038515   -3.433689  -11.548513
  43 C     6.0000    0    12.011   -6.495952   -2.893473  -10.265314
  44 C     6.0000    0    12.011   -6.916398   -0.748880   -8.963954
  45 C     6.0000    0    12.011   -5.045701    1.156191   -8.861398
  46 C     6.0000    0    12.011   -4.961457    3.479779   -7.678203
  47 C     6.0000    0    12.011   -6.699287    4.752605   -6.099261
  48 C     6.0000    0    12.011   -6.098467    7.060981   -5.157478
  49 C     6.0000    0    12.011   -2.843754   -5.648732  -10.174815
  50 C     6.0000    0    12.011   -2.693389   -7.972377  -11.077745
  51 C     6.0000    0    12.011   -1.696898  -10.168843   -9.597522
  52 C     6.0000    0    12.011   -3.845782  -11.833012   -8.783995
  53 C     6.0000    0    12.011   -3.748725  -14.313976   -8.388230
  54 O     8.0000    0    15.999   -5.984309  -15.505203   -7.797445
  55 C     6.0000    0    12.011   -5.993134  -17.421877   -5.939069
  56 C     6.0000    0    12.011   -5.021021  -16.565850   -3.348708
  57 C     6.0000    0    12.011   -2.156631  -16.844433   -2.967135
  58 O     8.0000    0    15.999   -0.755607  -14.842741   -4.110457
  59 C     6.0000    0    12.011    0.443330  -15.378913   -6.416697
  60 C     6.0000    0    12.011   -1.387626  -15.886625   -8.623954
  61 C     6.0000    0    12.011   -1.399399  -16.774154   -0.224537
  62 C     6.0000    0    12.011   -2.673207  -15.605472    1.621612
  63 C     6.0000    0    12.011   -1.769199  -15.506696    4.163501
  64 C     6.0000    0    12.011   -3.035505  -14.675443    6.229142
  65 C     6.0000    0    12.011   -5.651113  -13.942040    6.598111
  66 C     6.0000    0    12.011   -7.718605  -14.926871    5.383886
  67 C     6.0000    0    12.011  -10.228540  -14.211742    5.923611
  68 N     7.0000    0    14.007  -12.301002  -13.674115    6.273456
  69 C     6.0000    0    12.011   -7.619036  -16.910422    3.609641
  70 N     7.0000    0    14.007   -7.679734  -18.576858    2.219880
  71 C     6.0000    0    12.011   -5.727193  -12.289607    8.799396
  72 C     6.0000    0    12.011   -3.344135  -12.380220   10.029608
  73 C     6.0000    0    12.011   -1.615905  -14.006669    8.571439
  74 O     8.0000    0    15.999    0.527687  -14.607621    9.087277
  75 C     6.0000    0    12.011   -2.857379  -11.066954   12.216267
  76 C     6.0000    0    12.011   -4.794783   -9.577926   13.221922
  77 C     6.0000    0    12.011   -7.153785   -9.476466   11.963214
  78 C     6.0000    0    12.011   -7.657699  -10.818172    9.762684
  79 S    16.0000    0    32.060   -9.249378   -7.497659   13.527302
  80 C     6.0000    0    12.011   -7.002135   -6.844985   15.810299
  81 C     6.0000    0    12.011   -4.780006   -8.042145   15.430445
  82 H     1.0000    0     1.008    4.144339   28.576287  -11.057184
  83 H     1.0000    0     1.008   12.179266   30.094682   -6.286779
  84 H     1.0000    0     1.008    9.529757   35.812691  -14.125797
  85 H     1.0000    0     1.008    5.700605   32.702108  -14.003022
  86 H     1.0000    0     1.008    7.036773   22.149045   -1.485759
  87 H     1.0000    0     1.008    3.840585   19.775871   -4.952727
  88 H     1.0000    0     1.008    2.022876   22.373110   -4.100555
  89 H     1.0000    0     1.008    4.273389   19.080508    0.127897
  90 H     1.0000    0     1.008   -3.806853   17.627913    2.276666
  91 H     1.0000    0     1.008   -1.783845   15.961080    4.354250
  92 H     1.0000    0     1.008   -3.400789   12.758448    1.802383
  93 H     1.0000    0     1.008   -0.392931   13.347362    0.461585
  94 H     1.0000    0     1.008   -5.211695   15.675675   -1.655816
  95 H     1.0000    0     1.008   -4.200030   18.439664   -4.916293
  96 H     1.0000    0     1.008   -0.921336   18.646041   -5.648108
  97 H     1.0000    0     1.008   -3.560773   19.998613   -0.699992
  98 H     1.0000    0     1.008   -1.643457   21.905913   -2.625378
  99 H     1.0000    0     1.008   -5.913482   11.149422   -1.873418
 100 H     1.0000    0     1.008   -1.497343   11.657928   -5.541641
 101 H     1.0000    0     1.008   -0.270836    8.013100   -7.726693
 102 H     1.0000    0     1.008    1.977353    5.514107  -10.204880
 103 H     1.0000    0     1.008    3.095145   -0.101516  -10.759968
 104 H     1.0000    0     1.008    3.131163    1.537122   -7.836203
 105 H     1.0000    0     1.008    7.224480    1.308881  -10.014868
 106 H     1.0000    0     1.008    6.316825    4.253188   -9.725835
 107 H     1.0000    0     1.008    0.788035    1.918790  -14.541745
 108 H     1.0000    0     1.008    3.386503    4.038723  -14.391096
 109 H     1.0000    0     1.008    0.155260    7.365793  -13.974733
 110 H     1.0000    0     1.008   -0.305531    5.744390  -16.573371
 111 H     1.0000    0     1.008   -0.466366   -1.626676  -12.551807
 112 H     1.0000    0     1.008   -4.388983   -4.021526  -13.506855
 113 H     1.0000    0     1.008   -7.895880   -4.373733  -10.365110
 114 H     1.0000    0     1.008   -8.695216   -0.440627   -8.008735
 115 H     1.0000    0     1.008   -8.489047    3.873542   -5.658634
 116 H     1.0000    0     1.008   -7.429250    8.045981   -3.967593
 117 H     1.0000    0     1.008   -2.170275   -5.211298   -8.295274
 118 H     1.0000    0     1.008   -3.402660   -8.413212  -12.944794
 119 H     1.0000    0     1.008   -0.706417   -9.474407   -7.920466
 120 H     1.0000    0     1.008   -0.352831  -11.238428  -10.743490
 121 H     1.0000    0     1.008   -5.638414  -10.897673   -8.503938
 122 H     1.0000    0     1.008   -4.961835  -19.111159   -6.572052
 123 H     1.0000    0     1.008   -7.990235  -17.925696   -5.785756
 124 H     1.0000    0     1.008   -5.961670  -17.695773   -1.903030
 125 H     1.0000    0     1.008   -5.536690  -14.585946   -3.093425
 126 H     1.0000    0     1.008   -1.536366  -18.665222   -3.760952
 127 H     1.0000    0     1.008    1.748885  -16.986049   -6.208468
 128 H     1.0000    0     1.008    1.549689  -13.679595   -6.799802
 129 H     1.0000    0     1.008   -1.894016  -17.882686   -8.692041
 130 H     1.0000    0     1.008   -0.420899  -15.433847  -10.388864
 131 H     1.0000    0     1.008    0.389567  -17.667069    0.205338
 132 H     1.0000    0     1.008   -4.433392  -14.663122    1.209840
 133 H     1.0000    0     1.008    0.190787  -16.019813    4.475079
 134 H     1.0000    0     1.008   -1.034077  -11.183078   13.121408
 135 H     1.0000    0     1.008   -9.478413  -10.673646    8.862400
 136 H     1.0000    0     1.008   -7.493596   -5.583120   17.318660
 137 H     1.0000    0     1.008   -3.167446   -7.863207   16.652815

--------------------------------
INTERNAL COORDINATES (ANGSTROEM)
--------------------------------
 C      0   0   0     0.000000000000     0.00000000     0.00000000
 C      1   0   0     1.368150032745     0.00000000     0.00000000
 C      2   1   0     1.411340925964   124.23611740     0.00000000
 N      3   2   1     1.147884406942   176.53321878   179.48652479
 C      2   1   3     1.411382855571   125.30550700   181.06914183
 N      5   2   1     1.148139604491   175.59436385   172.67985527
 C      1   2   3     1.455475410888   125.79730407     1.24536534
 C      7   1   2     1.418475496686   109.06381215   175.97355693
 C      8   7   1     1.374435373854   122.60193409   180.42429467
 C      9   8   7     1.397487454327   117.91839264   359.89551910
 C     10   9   8     1.416146121027   119.13065636   359.88790271
 C      7   1   2     1.383680569423   130.80591303   356.14728122
 S     11  10   9     1.736046834939   111.19554422   180.12395738
 C     13  11  10     1.729615503226    90.79960032   359.94225633
 C     14  13  11     1.350931908758   113.67468395     0.03394999
 C      8   7   1     1.471794015139   109.48316287     0.36854388
 O     16   8   7     1.213794173120   126.93931986   180.90931406
 C      1   2   3     1.460329043367   126.66141696   179.24371481
 C     18   1   2     1.348898694862   128.02599167     8.58166500
 C     19  18   1     1.480525301304   123.97828783   180.72603877
 C     20  19  18     1.493238019473   113.61881944   194.33908607
 C     21  20  19     1.333277288264   125.48082082   148.83568177
 O     22  21  20     1.372747807174   116.39356048   182.68072888
 C     23  22  21     1.409353559225   121.34106586   205.35204264
 C     24  23  22     1.533494266732   114.73543044    66.23843535
 C     25  24  23     1.544383271536   115.69229738   275.56851616
 O     26  25  24     1.416899398652   111.40923789    76.18659936
 C     27  26  25     1.402187133374   116.10549844   254.23253621
 C     22  21  20     1.504784597110   123.66406177     0.77537149
 C     26  25  24     1.506490369335   108.48291685   197.36377072
 C     30  26  25     1.331211928319   123.57852592   253.20569927
 C     31  30  26     1.451817026385   127.00309561   178.88997000
 C     32  31  30     1.372744833208   118.96854447   192.78291916
 C     33  32  31     1.412053890119   120.66921465   179.03842184
 C     34  33  32     1.385649612925   131.57451189   181.22249562
 C     35  34  33     1.492657703929   126.08917331   359.96385921
 C     36  35  34     1.538284206153   111.83437052   116.78085198
 N     37  36  35     1.454718890267   110.03647874   189.69673730
 C     36  35  34     1.536242768868   112.06099971   241.85684977
 N     39  36  35     1.454175202684   109.93355676    58.20216816
 C     35  34  33     1.444562660496   106.85906872   179.53643527
 C     41  35  34     1.346835052596   132.42223617   181.05384038
 C     42  41  35     1.487404516599   121.93622350   177.07994353
 C     43  42  41     1.494626761068   114.80410113     6.55481990
 C     44  43  42     1.345983112636   122.51581335   353.15579549
 C     45  44  43     1.413935137197   120.33576769     2.93168357
 C     46  45  44     1.380545254202   132.45748839   180.64977425
 C     47  46  45     1.413328567071   132.18830461     1.69188757
 C     48  47  46     1.357062442226   119.58021740   179.25431094
 C     43  42  41     1.517264072270   108.17906491   247.14293964
 C     50  43  42     1.321589620646   124.79571638   231.06156997
 C     51  50  43     1.497535660610   123.65805426   185.24331000
 C     52  51  50     1.501314237327   109.78874960   105.46533540
 C     53  52  51     1.330460977030   126.49283183   150.82310216
 O     54  53  52     1.376459288973   117.03173795   183.89190350
 C     55  54  53     1.412742150783   119.32307598   219.95561897
 C     56  55  54     1.532583065971   114.16009765    58.03456167
 C     57  56  55     1.536249665810   114.85834209   271.03328160
 O     58  57  56     1.427486915877   112.67659897    79.85289298
 C     59  58  57     1.404432299365   116.93722151   257.62785973
 C     54  53  52     1.506397645146   124.34187399     1.93019878
 C     58  57  56     1.506081452844   112.75570377   197.97347097
 C     62  58  57     1.338375941991   125.50771510   333.19190481
 C     63  62  58     1.428600885272   122.38056968   183.37462430
 C     64  63  62     1.355497758205   127.27325662   189.27468274
 C     65  64  63     1.450700640001   131.83746653     8.11308115
 C     66  65  64     1.371657442294   126.60729216    32.48360378
 C     67  66  65     1.410282800363   123.66811581   176.76015812
 N     68  67  66     1.148026243994   177.24859766   164.65857341
 C     67  66  65     1.409274916650   124.41967862     2.28506302
 N     70  67  66     1.148708302791   175.76174303   145.39385890
 C     66  65  64     1.457110431436   107.12780102   202.74233930
 C     72  66  65     1.419990326059   108.76597738   349.39441539
 C     73  72  66     1.473962798343   109.31326723     2.82289595
 O     74  73  72     1.209285002222   128.12623723   183.21980932
 C     73  72  66     1.374137109535   122.37407616   181.85637008
 C     76  73  72     1.398278378364   117.90713050   359.32451248
 C     77  76  73     1.415935369782   119.25848218   359.88272762
 C     72  66  65     1.381943045643   130.80150268   170.38691788
 S     78  77  76     1.735311005440   111.21749508   180.58309039
 C     80  78  77     1.730026003446    90.81780838   359.81147402
 C     81  80  78     1.350733411966   113.63177625     0.09965749
 H      9   8   7     1.079066093527   120.74974626   179.85444252
 H     12   7   1     1.077159835354   122.62667208   359.43677912
 H     14  13  11     1.072721149694   118.50528803   180.01991383
 H     15  14  13     1.075005036686   124.07972095   179.99828911
 H     19  18   1     1.081709843165   119.75861033     0.46307921
 H     20  19  18     1.099686244071   106.92660142    73.80658963
 H     20  19  18     1.093082773170   109.68994198   320.71630466
 H     21  20  19     1.080010787955   116.73316582   328.72485531
 H     24  23  22     1.099157881153   111.97771641   299.65626463
 H     24  23  22     1.094207297819   103.01164041   184.32123819
 H     25  24  23     1.091143337834   107.84295702   154.48949658
 H     25  24  23     1.091036100503   108.87310558    37.02583669
 H     26  25  24     1.102225180669   108.97099113   314.73784389
 H     28  27  26     1.101293535530   110.70169688   302.89973285
 H     28  27  26     1.091849464807   104.42516873   186.19895500
 H     29  22  21     1.090233693756   110.09939593   200.13206303
 H     29  22  21     1.090867211763   109.94772596   318.15377852
 H     30  26  25     1.080478397517   114.07949093    71.34414072
 H     31  30  26     1.082038586789   117.37789224   359.79535696
 H     33  32  31     1.081091910478   119.49006528   359.79428799
 H     36  35  34     1.096358893976   107.71622864   359.40203506
 H     37  36  35     1.092020112818   110.07107089    71.47634841
 H     37  36  35     1.103761524334   108.25987766   313.92753476
 H     38  37  36     1.014085988563   110.37067427   182.51730965
 H     38  37  36     1.015255328280   110.07384784    63.89422360
 H     39  36  35     1.091950670498   110.02477461   300.37994159
 H     39  36  35     1.102000354492   107.64157360   182.77185690
 H     40  39  36     1.014803499895   110.27028669    59.57791947
 H     40  39  36     1.013947411901   110.28732761   178.50877674
 H     42  41  35     1.080780880151   122.39469398     0.31643822
 H     43  42  41     1.097769726582   109.26355736   130.17751692
 H     44  43  42     1.079434377162   115.85506290   176.06112224
 H     45  44  43     1.080825000127   120.69666623   181.90180175
 H     48  47  46     1.080629025753   119.51734664   359.25082135
 H     49  48  47     1.078929405290   119.75323937   179.35618859
 H     50  43  42     1.081594135801   114.36457308    53.85198159
 H     51  50  43     1.082329047610   120.64314026     1.72939856
 H     52  51  50     1.094234683055   109.40407466   345.76555390
 H     52  51  50     1.092692902375   109.93507347   227.08456877
 H     53  52  51     1.080198382706   115.83181022   330.98539275
 H     56  55  54     1.099609564391   111.71338828   292.09064848
 H     56  55  54     1.092946239026   103.29705194   176.58706194
 H     57  56  55     1.091123667693   108.17985573   150.60975241
 H     57  56  55     1.091068284252   108.09672925    32.73488415
 H     58  57  56     1.101165077634   109.14301223   318.06204314
 H     60  59  58     1.101238123477   110.63891470   302.58584063
 H     60  59  58     1.092014396471   103.71877311   186.35869102
 H     61  54  53     1.090326737588   109.51680592   194.69161343
 H     61  54  53     1.091501089051   109.77462477   312.41359200
 H     62  58  57     1.082227274143   115.11962869   156.97200761
 H     63  62  58     1.078773044435   120.06796993     2.23212959
 H     64  63  62     1.084737898158   117.00934692    14.17538078
 H     76  73  72     1.078950168173   120.84030720   179.43699064
 H     79  72  66     1.077547859216   122.53992543   357.69680417
 H     81  80  78     1.072675973209   118.50580773   180.05003805
 H     82  81  80     1.074966607621   124.07028341   179.97035404

---------------------------
INTERNAL COORDINATES (A.U.)
---------------------------
 C      0   0   0     0.000000000000     0.00000000     0.00000000
 C      1   0   0     2.585428872003     0.00000000     0.00000000
 C      2   1   0     2.667047831666   124.23611740     0.00000000
 N      3   2   1     2.169187162519   176.53321878   179.48652479
 C      2   1   3     2.667127067141   125.30550700   181.06914183
 N      5   2   1     2.169669415996   175.59436385   172.67985527
 C      1   2   3     2.750449921235   125.79730407     1.24536534
 C      7   1   2     2.680530216415   109.06381215   175.97355693
 C      8   7   1     2.597306445357   122.60193409   180.42429467
 C      9   8   7     2.640868564268   117.91839264   359.89551910
 C     10   9   8     2.676128334356   119.13065636   359.88790271
 C      7   1   2     2.614777333039   130.80591303   356.14728122
 S     11  10   9     3.280653073695   111.19554422   180.12395738
 C     13  11  10     3.268499618082    90.79960032   359.94225633
 C     14  13  11     2.552891333128   113.67468395     0.03394999
 C      8   7   1     2.781287614158   109.48316287     0.36854388
 O     16   8   7     2.293738570146   126.93931986   180.90931406
 C      1   2   3     2.759621957374   126.66141696   179.24371481
 C     18   1   2     2.549049115693   128.02599167     8.58166500
 C     19  18   1     2.797787353805   123.97828783   180.72603877
 C     20  19  18     2.821810909563   113.61881944   194.33908607
 C     21  20  19     2.519528935396   125.48082082   148.83568177
 O     22  21  20     2.594117406499   116.39356048   182.68072888
 C     23  22  21     2.663292252802   121.34106586   205.35204264
 C     24  23  22     2.897884192062   114.73543044    66.23843535
 C     25  24  23     2.918461429012   115.69229738   275.56851616
 O     26  25  24     2.677551822770   111.40923789    76.18659936
 C     27  26  25     2.649749670585   116.10549844   254.23253621
 C     22  21  20     2.843630779081   123.66406177     0.77537149
 C     26  25  24     2.846854221434   108.48291685   197.36377072
 C     30  26  25     2.515625970733   123.57852592   253.20569927
 C     31  30  26     2.743536576431   127.00309561   178.88997000
 C     32  31  30     2.594111786519   118.96854447   192.78291916
 C     33  32  31     2.668395138663   120.66921465   179.03842184
 C     34  33  32     2.618498286003   131.57451189   181.22249562
 C     35  34  33     2.820714272114   126.08917331   359.96385921
 C     36  35  34     2.906935865766   111.83437052   116.78085198
 N     37  36  35     2.749020304447   110.03647874   189.69673730
 C     36  35  34     2.903078108378   112.06099971   241.85684977
 N     39  36  35     2.747992883812   109.93355676    58.20216816
 C     35  34  33     2.729827811627   106.85906872   179.53643527
 C     41  35  34     2.545149396971   132.42223617   181.05384038
 C     42  41  35     2.810787186730   121.93622350   177.07994353
 C     43  42  41     2.824435250848   114.80410113     6.55481990
 C     44  43  42     2.543539463764   122.51581335   353.15579549
 C     45  44  43     2.671950180431   120.33576769     2.93168357
 C     46  45  44     2.608852445927   132.45748839   180.64977425
 C     47  46  45     2.670803929012   132.18830461     1.69188757
 C     48  47  46     2.564476362437   119.58021740   179.25431094
 C     43  42  41     2.867213569428   108.17906491   247.14293964
 C     50  43  42     2.497442444454   124.79571638   231.06156997
 C     51  50  43     2.829932274335   123.65805426   185.24331000
 C     52  51  50     2.837072749504   109.78874960   105.46533540
 C     53  52  51     2.514206878456   126.49283183   150.82310216
 O     54  53  52     2.601131090651   117.03173795   183.89190350
 C     55  54  53     2.669695762827   119.32307598   219.95561897
 C     56  55  54     2.896162272170   114.16009765    58.03456167
 C     57  56  55     2.903091141708   114.85834209   271.03328160
 O     58  57  56     2.697559330763   112.67659897    79.85289298
 C     59  58  57     2.653992419433   116.93722151   257.62785973
 C     54  53  52     2.846678998109   124.34187399     1.93019878
 C     58  57  56     2.846081481253   112.75570377   197.97347097
 C     62  58  57     2.529163994592   125.50771510   333.19190481
 C     63  62  58     2.699664427842   122.38056968   183.37462430
 C     64  63  62     2.561519538153   127.27325662   189.27468274
 C     65  64  63     2.741426911907   131.83746653     8.11308115
 C     66  65  64     2.592056915490   126.60729216    32.48360378
 C     67  66  65     2.665048264066   123.66811581   176.76015812
 N     68  67  66     2.169455195704   177.24859766   164.65857341
 C     67  66  65     2.663143639874   124.41967862     2.28506302
 N     70  67  66     2.170744100036   175.76174303   145.39385890
 C     66  65  64     2.753539662294   107.12780102   202.74233930
 C     72  66  65     2.683392829068   108.76597738   349.39441539
 C     73  72  66     2.785386020457   109.31326723     2.82289595
 O     74  73  72     2.285217472059   128.12623723   183.21980932
 C     73  72  66     2.596742807478   122.37407616   181.85637008
 C     76  73  72     2.642363194091   117.90713050   359.32451248
 C     77  76  73     2.675730072221   119.25848218   359.88272762
 C     72  66  65     2.611493888942   130.80150268   170.38691788
 S     78  77  76     3.279262557460   111.21749508   180.58309039
 C     80  78  77     3.269275351076    90.81780838   359.81147402
 C     81  80  78     2.552516228552   113.63177625     0.09965749
 H      9   8   7     2.039139397167   120.74974626   179.85444252
 H     12   7   1     2.035537091279   122.62667208   359.43677912
 H     14  13  11     2.027149190986   118.50528803   180.01991383
 H     15  14  13     2.031465111922   124.07972095   179.99828911
 H     19  18   1     2.044135359949   119.75861033     0.46307921
 H     20  19  18     2.078105834536   106.92660142    73.80658963
 H     20  19  18     2.065627082998   109.68994198   320.71630466
 H     21  20  19     2.040924610916   116.73316582   328.72485531
 H     24  23  22     2.077107373320   111.97771641   299.65626463
 H     24  23  22     2.067752126616   103.01164041   184.32123819
 H     25  24  23     2.061962081359   107.84295702   154.48949658
 H     25  24  23     2.061759432171   108.87310558    37.02583669
 H     26  25  24     2.082903729376   108.97099113   314.73784389
 H     28  27  26     2.081143175209   110.70169688   302.89973285
 H     28  27  26     2.063296467954   104.42516873   186.19895500
 H     29  22  21     2.060243103171   110.09939593   200.13206303
 H     29  22  21     2.061440278707   109.94772596   318.15377852
 H     30  26  25     2.041808264924   114.07949093    71.34414072
 H     31  30  26     2.044756595366   117.37789224   359.79535696
 H     33  32  31     2.042967636400   119.49006528   359.79428799
 H     36  35  34     2.071818054103   107.71622864   359.40203506
 H     37  36  35     2.063618945961   110.07107089    71.47634841
 H     37  36  35     2.085806998151   108.25987766   313.92753476
 H     38  37  36     1.916344794631   110.37067427   182.51730965
 H     38  37  36     1.918554526453   110.07384784    63.89422360
 H     39  36  35     2.063487718992   110.02477461   300.37994159
 H     39  36  35     2.082478869474   107.64157360   182.77185690
 H     40  39  36     1.917700694547   110.27028669    59.57791947
 H     40  39  36     1.916082922690   110.28732761   178.50877674
 H     42  41  35     2.042379874264   122.39469398     0.31643822
 H     43  42  41     2.074484141350   109.26355736   130.17751692
 H     44  43  42     2.039835352377   115.85506290   176.06112224
 H     45  44  43     2.042463248936   120.69666623   181.90180175
 H     48  47  46     2.042092911039   119.51734664   359.25082135
 H     49  48  47     2.038881093833   119.75323937   179.35618859
 H     50  43  42     2.043916704720   114.36457308    53.85198159
 H     51  50  43     2.045305486770   120.64314026     1.72939856
 H     52  51  50     2.067803877212   109.40407466   345.76555390
 H     52  51  50     2.064890333968   109.93507347   227.08456877
 H     53  52  51     2.041279113618   115.83181022   330.98539275
 H     56  55  54     2.077960930939   111.71338828   292.09064848
 H     56  55  54     2.065369070857   103.29705194   176.58706194
 H     57  56  55     2.061924910180   108.17985573   150.60975241
 H     57  56  55     2.061820250643   108.09672925    32.73488415
 H     58  57  56     2.080900424966   109.14301223   318.06204314
 H     60  59  58     2.081038461606   110.63891470   302.58584063
 H     60  59  58     2.063608143630   103.71877311   186.35869102
 H     61  54  53     2.060418930534   109.51680592   194.69161343
 H     61  54  53     2.062638133184   109.77462477   312.41359200
 H     62  58  57     2.045113162791   115.11962869   156.97200761
 H     63  62  58     2.038585614639   120.06796993     2.23212959
 H     64  63  62     2.049857554604   117.00934692    14.17538078
 H     76  73  72     2.038920329995   120.84030720   179.43699064
 H     79  72  66     2.036270350111   122.53992543   357.69680417
 H     81  80  78     2.027063819803   118.50580773   180.05003805
 H     82  81  80     2.031392491514   124.07028341   179.97035404

---------------------
BASIS SET INFORMATION
---------------------
There are 5 groups of distinct atoms

 Group   1 Type C   : 7s4p1d contracted to 3s2p1d pattern {511/31/1}
 Group   2 Type N   : 7s4p1d contracted to 3s2p1d pattern {511/31/1}
 Group   3 Type S   : 10s7p1d contracted to 4s3p1d pattern {5311/511/1}
 Group   4 Type O   : 7s4p1d contracted to 3s2p1d pattern {511/31/1}
 Group   5 Type H   : 4s1p contracted to 2s1p pattern {31/1}

Atom   0C    basis set group =>   1
Atom   1C    basis set group =>   1
Atom   2C    basis set group =>   1
Atom   3N    basis set group =>   2
Atom   4C    basis set group =>   1
Atom   5N    basis set group =>   2
Atom   6C    basis set group =>   1
Atom   7C    basis set group =>   1
Atom   8C    basis set group =>   1
Atom   9C    basis set group =>   1
Atom  10C    basis set group =>   1
Atom  11C    basis set group =>   1
Atom  12S    basis set group =>   3
Atom  13C    basis set group =>   1
Atom  14C    basis set group =>   1
Atom  15C    basis set group =>   1
Atom  16O    basis set group =>   4
Atom  17C    basis set group =>   1
Atom  18C    basis set group =>   1
Atom  19C    basis set group =>   1
Atom  20C    basis set group =>   1
Atom  21C    basis set group =>   1
Atom  22O    basis set group =>   4
Atom  23C    basis set group =>   1
Atom  24C    basis set group =>   1
Atom  25C    basis set group =>   1
Atom  26O    basis set group =>   4
Atom  27C    basis set group =>   1
Atom  28C    basis set group =>   1
Atom  29C    basis set group =>   1
Atom  30C    basis set group =>   1
Atom  31C    basis set group =>   1
Atom  32C    basis set group =>   1
Atom  33C    basis set group =>   1
Atom  34C    basis set group =>   1
Atom  35C    basis set group =>   1
Atom  36C    basis set group =>   1
Atom  37N    basis set group =>   2
Atom  38C    basis set group =>   1
Atom  39N    basis set group =>   2
Atom  40C    basis set group =>   1
Atom  41C    basis set group =>   1
Atom  42C    basis set group =>   1
Atom  43C    basis set group =>   1
Atom  44C    basis set group =>   1
Atom  45C    basis set group =>   1
Atom  46C    basis set group =>   1
Atom  47C    basis set group =>   1
Atom  48C    basis set group =>   1
Atom  49C    basis set group =>   1
Atom  50C    basis set group =>   1
Atom  51C    basis set group =>   1
Atom  52C    basis set group =>   1
Atom  53C    basis set group =>   1
Atom  54O    basis set group =>   4
Atom  55C    basis set group =>   1
Atom  56C    basis set group =>   1
Atom  57C    basis set group =>   1
Atom  58O    basis set group =>   4
Atom  59C    basis set group =>   1
Atom  60C    basis set group =>   1
Atom  61C    basis set group =>   1
Atom  62C    basis set group =>   1
Atom  63C    basis set group =>   1
Atom  64C    basis set group =>   1
Atom  65C    basis set group =>   1
Atom  66C    basis set group =>   1
Atom  67C    basis set group =>   1
Atom  68N    basis set group =>   2
Atom  69C    basis set group =>   1
Atom  70N    basis set group =>   2
Atom  71C    basis set group =>   1
Atom  72C    basis set group =>   1
Atom  73C    basis set group =>   1
Atom  74O    basis set group =>   4
Atom  75C    basis set group =>   1
Atom  76C    basis set group =>   1
Atom  77C    basis set group =>   1
Atom  78C    basis set group =>   1
Atom  79S    basis set group =>   3
Atom  80C    basis set group =>   1
Atom  81C    basis set group =>   1
Atom  82H    basis set group =>   5
Atom  83H    basis set group =>   5
Atom  84H    basis set group =>   5
Atom  85H    basis set group =>   5
Atom  86H    basis set group =>   5
Atom  87H    basis set group =>   5
Atom  88H    basis set group =>   5
Atom  89H    basis set group =>   5
Atom  90H    basis set group =>   5
Atom  91H    basis set group =>   5
Atom  92H    basis set group =>   5
Atom  93H    basis set group =>   5
Atom  94H    basis set group =>   5
Atom  95H    basis set group =>   5
Atom  96H    basis set group =>   5
Atom  97H    basis set group =>   5
Atom  98H    basis set group =>   5
Atom  99H    basis set group =>   5
Atom 100H    basis set group =>   5
Atom 101H    basis set group =>   5
Atom 102H    basis set group =>   5
Atom 103H    basis set group =>   5
Atom 104H    basis set group =>   5
Atom 105H    basis set group =>   5
Atom 106H    basis set group =>   5
Atom 107H    basis set group =>   5
Atom 108H    basis set group =>   5
Atom 109H    basis set group =>   5
Atom 110H    basis set group =>   5
Atom 111H    basis set group =>   5
Atom 112H    basis set group =>   5
Atom 113H    basis set group =>   5
Atom 114H    basis set group =>   5
Atom 115H    basis set group =>   5
Atom 116H    basis set group =>   5
Atom 117H    basis set group =>   5
Atom 118H    basis set group =>   5
Atom 119H    basis set group =>   5
Atom 120H    basis set group =>   5
Atom 121H    basis set group =>   5
Atom 122H    basis set group =>   5
Atom 123H    basis set group =>   5
Atom 124H    basis set group =>   5
Atom 125H    basis set group =>   5
Atom 126H    basis set group =>   5
Atom 127H    basis set group =>   5
Atom 128H    basis set group =>   5
Atom 129H    basis set group =>   5
Atom 130H    basis set group =>   5
Atom 131H    basis set group =>   5
Atom 132H    basis set group =>   5
Atom 133H    basis set group =>   5
Atom 134H    basis set group =>   5
Atom 135H    basis set group =>   5
Atom 136H    basis set group =>   5
Atom 137H    basis set group =>   5
---------------------------------
AUXILIARY/J BASIS SET INFORMATION
---------------------------------
There are 5 groups of distinct atoms

 Group   1 Type C   : 12s5p4d2f1g contracted to 6s4p3d1f1g pattern {711111/2111/211/2/1}
 Group   2 Type N   : 12s5p4d2f1g contracted to 6s4p3d1f1g pattern {711111/2111/211/2/1}
 Group   3 Type S   : 14s5p5d2f1g contracted to 8s4p3d1f1g pattern {71111111/2111/311/2/1}
 Group   4 Type O   : 12s5p4d2f1g contracted to 6s4p3d1f1g pattern {711111/2111/211/2/1}
 Group   5 Type H   : 5s2p1d contracted to 3s1p1d pattern {311/2/1}

Atom   0C    basis set group =>   1
Atom   1C    basis set group =>   1
Atom   2C    basis set group =>   1
Atom   3N    basis set group =>   2
Atom   4C    basis set group =>   1
Atom   5N    basis set group =>   2
Atom   6C    basis set group =>   1
Atom   7C    basis set group =>   1
Atom   8C    basis set group =>   1
Atom   9C    basis set group =>   1
Atom  10C    basis set group =>   1
Atom  11C    basis set group =>   1
Atom  12S    basis set group =>   3
Atom  13C    basis set group =>   1
Atom  14C    basis set group =>   1
Atom  15C    basis set group =>   1
Atom  16O    basis set group =>   4
Atom  17C    basis set group =>   1
Atom  18C    basis set group =>   1
Atom  19C    basis set group =>   1
Atom  20C    basis set group =>   1
Atom  21C    basis set group =>   1
Atom  22O    basis set group =>   4
Atom  23C    basis set group =>   1
Atom  24C    basis set group =>   1
Atom  25C    basis set group =>   1
Atom  26O    basis set group =>   4
Atom  27C    basis set group =>   1
Atom  28C    basis set group =>   1
Atom  29C    basis set group =>   1
Atom  30C    basis set group =>   1
Atom  31C    basis set group =>   1
Atom  32C    basis set group =>   1
Atom  33C    basis set group =>   1
Atom  34C    basis set group =>   1
Atom  35C    basis set group =>   1
Atom  36C    basis set group =>   1
Atom  37N    basis set group =>   2
Atom  38C    basis set group =>   1
Atom  39N    basis set group =>   2
Atom  40C    basis set group =>   1
Atom  41C    basis set group =>   1
Atom  42C    basis set group =>   1
Atom  43C    basis set group =>   1
Atom  44C    basis set group =>   1
Atom  45C    basis set group =>   1
Atom  46C    basis set group =>   1
Atom  47C    basis set group =>   1
Atom  48C    basis set group =>   1
Atom  49C    basis set group =>   1
Atom  50C    basis set group =>   1
Atom  51C    basis set group =>   1
Atom  52C    basis set group =>   1
Atom  53C    basis set group =>   1
Atom  54O    basis set group =>   4
Atom  55C    basis set group =>   1
Atom  56C    basis set group =>   1
Atom  57C    basis set group =>   1
Atom  58O    basis set group =>   4
Atom  59C    basis set group =>   1
Atom  60C    basis set group =>   1
Atom  61C    basis set group =>   1
Atom  62C    basis set group =>   1
Atom  63C    basis set group =>   1
Atom  64C    basis set group =>   1
Atom  65C    basis set group =>   1
Atom  66C    basis set group =>   1
Atom  67C    basis set group =>   1
Atom  68N    basis set group =>   2
Atom  69C    basis set group =>   1
Atom  70N    basis set group =>   2
Atom  71C    basis set group =>   1
Atom  72C    basis set group =>   1
Atom  73C    basis set group =>   1
Atom  74O    basis set group =>   4
Atom  75C    basis set group =>   1
Atom  76C    basis set group =>   1
Atom  77C    basis set group =>   1
Atom  78C    basis set group =>   1
Atom  79S    basis set group =>   3
Atom  80C    basis set group =>   1
Atom  81C    basis set group =>   1
Atom  82H    basis set group =>   5
Atom  83H    basis set group =>   5
Atom  84H    basis set group =>   5
Atom  85H    basis set group =>   5
Atom  86H    basis set group =>   5
Atom  87H    basis set group =>   5
Atom  88H    basis set group =>   5
Atom  89H    basis set group =>   5
Atom  90H    basis set group =>   5
Atom  91H    basis set group =>   5
Atom  92H    basis set group =>   5
Atom  93H    basis set group =>   5
Atom  94H    basis set group =>   5
Atom  95H    basis set group =>   5
Atom  96H    basis set group =>   5
Atom  97H    basis set group =>   5
Atom  98H    basis set group =>   5
Atom  99H    basis set group =>   5
Atom 100H    basis set group =>   5
Atom 101H    basis set group =>   5
Atom 102H    basis set group =>   5
Atom 103H    basis set group =>   5
Atom 104H    basis set group =>   5
Atom 105H    basis set group =>   5
Atom 106H    basis set group =>   5
Atom 107H    basis set group =>   5
Atom 108H    basis set group =>   5
Atom 109H    basis set group =>   5
Atom 110H    basis set group =>   5
Atom 111H    basis set group =>   5
Atom 112H    basis set group =>   5
Atom 113H    basis set group =>   5
Atom 114H    basis set group =>   5
Atom 115H    basis set group =>   5
Atom 116H    basis set group =>   5
Atom 117H    basis set group =>   5
Atom 118H    basis set group =>   5
Atom 119H    basis set group =>   5
Atom 120H    basis set group =>   5
Atom 121H    basis set group =>   5
Atom 122H    basis set group =>   5
Atom 123H    basis set group =>   5
Atom 124H    basis set group =>   5
Atom 125H    basis set group =>   5
Atom 126H    basis set group =>   5
Atom 127H    basis set group =>   5
Atom 128H    basis set group =>   5
Atom 129H    basis set group =>   5
Atom 130H    basis set group =>   5
Atom 131H    basis set group =>   5
Atom 132H    basis set group =>   5
Atom 133H    basis set group =>   5
Atom 134H    basis set group =>   5
Atom 135H    basis set group =>   5
Atom 136H    basis set group =>   5
Atom 137H    basis set group =>   5


           ************************************************************
           *        Program running with 6 parallel MPI-processes     *
           *              working on a common directory               *
           ************************************************************
------------------------------------------------------------------------------
                           ORCA GTO INTEGRAL CALCULATION
                           -- RI-GTO INTEGRALS CHOSEN --
------------------------------------------------------------------------------

                         BASIS SET STATISTICS AND STARTUP INFO

Gaussian basis set:
 # of primitive gaussian shells          ... 1276
 # of primitive gaussian functions       ... 2384
 # of contracted shells                  ...  664
 # of contracted basis functions         ... 1436
 Highest angular momentum                ...    2
 Maximum contraction depth               ...    5
Auxiliary gaussian basis set:
 # of primitive gaussian shells          ... 2422
 # of primitive gaussian functions       ... 6650
 # of contracted shells                  ... 1514
 # of contracted aux-basis functions     ... 4638
 Highest angular momentum                ...    4
 Maximum contraction depth               ...    7
Ratio of auxiliary to basis functions    ...  3.23
Integral package used                  ... LIBINT
 One Electron integrals                  ... done
 Ordering auxiliary basis shells         ... done
 Integral threshhold             Thresh  ...  2.500e-11
 Primitive cut-off               TCut    ...  2.500e-12
 Pre-screening matrix                    ... done
 Shell pair data                         ... 
 Ordering of the shell pairs             ... done (   0.012 sec) 55797 of 220780 pairs
 Determination of significant pairs      ... done (   0.000 sec)
 Creation of shell pair data             ... done (   0.007 sec)
 Storage of shell pair data              ... done (   0.012 sec)
 Shell pair data done in (   0.032 sec)
 Computing two index integrals           ... done
 Cholesky decomposition of the V-matrix  ... done


Timings:
 Total evaluation time                   ...   3.157 sec (  0.053 min)
 One electron matrix time                ...   0.870 sec (  0.015 min) = 27.6%
 Schwartz matrix evaluation time         ...   0.865 sec (  0.014 min) = 27.4%
 Two index repulsion integral time       ...   0.511 sec (  0.009 min) = 16.2%
 Cholesky decomposition of V             ...   0.861 sec (  0.014 min) = 27.3%
 Three index repulsion integral time     ...   0.000 sec (  0.000 min) =  0.0%



           ************************************************************
           *        Program running with 6 parallel MPI-processes     *
           *              working on a common directory               *
           ************************************************************
-------------------------------------------------------------------------------
                                 ORCA SCF
-------------------------------------------------------------------------------

------------
SCF SETTINGS
------------
Hamiltonian:
 Density Functional     Method          .... DFT(GTOs)
 Exchange Functional    Exchange        .... WB88
 Correlation Functional Correlation     .... LYP
 LDA part of GGA corr.  LDAOpt          .... VWN-5
 Gradients option       PostSCFGGA      .... off
 Hybrid DFT is turned on
   Fraction HF Exchange ScalHFX         ....  0.190000
   Scaling of DF-GGA-X  ScalDFX         ....  0.350000
   Scaling of DF-GGA-C  ScalDFC         ....  0.810000
   Scaling of DF-LDA-C  ScalLDAC        ....  1.000000
   Perturbative correction              ....  0.000000
   Density functional embedding theory  .... OFF
 Long-range corrected/Screened/Range-Separated Hybrid DFT is turned on
   Amount of maximum screened exact exchange              ....  0.460000
   Range separation parameter mu (erf(mu*r12)/r12)        ....  0.330000
 RI-approximation to the Coulomb term is turned on
   Number of auxiliary basis functions  .... 4638
   RIJ-COSX (HFX calculated with COS-X)).... on


General Settings:
 Integral files         IntName         .... xtbopt
 Hartree-Fock type      HFTyp           .... RHF
 Total Charge           Charge          ....    0
 Multiplicity           Mult            ....    1
 Number of Electrons    NEL             ....  586
 Basis Dimension        Dim             .... 1436
 Nuclear Repulsion      ENuc            ....  11424.9681087356 Eh

Convergence Acceleration:
 DIIS                   CNVDIIS         .... on
   Start iteration      DIISMaxIt       ....    12
   Startup error        DIISStart       ....  0.200000
   # of expansion vecs  DIISMaxEq       ....     5
   Bias factor          DIISBfac        ....   1.050
   Max. coefficient     DIISMaxC        ....  10.000
 Newton-Raphson         CNVNR           .... off
 SOSCF                  CNVSOSCF        .... on
   Start iteration      SOSCFMaxIt      ....   150
   Startup grad/error   SOSCFStart      ....  0.003300
 Level Shifting         CNVShift        .... on
   Level shift para.    LevelShift      ....    0.2500
   Turn off err/grad.   ShiftErr        ....    0.0010
 Zerner damping         CNVZerner       .... off
 Static damping         CNVDamp         .... on
   Fraction old density DampFac         ....    0.7000
   Max. Damping (<1)    DampMax         ....    0.9800
   Min. Damping (>=0)   DampMin         ....    0.0000
   Turn off err/grad.   DampErr         ....    0.1000
 Fernandez-Rico         CNVRico         .... off

SCF Procedure:
 Maximum # iterations   MaxIter         ....   125
 SCF integral mode      SCFMode         .... Direct
   Integral package                     .... LIBINT
 Reset frequency        DirectResetFreq ....    20
 Integral Threshold     Thresh          ....  2.500e-11 Eh
 Primitive CutOff       TCut            ....  2.500e-12 Eh

Convergence Tolerance:
 Convergence Check Mode ConvCheckMode   .... Total+1el-Energy
 Convergence forced     ConvForced      .... 1
 Energy Change          TolE            ....  1.000e-08 Eh
 1-El. energy change                    ....  1.000e-05 Eh
 Orbital Gradient       TolG            ....  1.000e-05
 Orbital Rotation angle TolX            ....  1.000e-05
 DIIS Error             TolErr          ....  5.000e-07


Diagonalization of the overlap matrix:
Smallest eigenvalue                        ... 2.074e-04
Time for diagonalization                   ...    0.308 sec
Threshold for overlap eigenvalues          ... 1.000e-08
Number of eigenvalues below threshold      ... 0
Time for construction of square roots      ...    0.217 sec
Total time needed                          ...    0.530 sec

-------------------
DFT GRID GENERATION
-------------------

General Integration Accuracy     IntAcc      ...  4.670
Radial Grid Type                 RadialGrid  ... Gauss-Chebyshev
Angular Grid (max. acc.)         AngularGrid ... Lebedev-302
Angular grid pruning method      GridPruning ... 3 (G Style)
Weight generation scheme         WeightScheme... Becke
Basis function cutoff            BFCut       ...    1.0000e-11
Integration weight cutoff        WCut        ...    1.0000e-14
Grids for H and He will be reduced by one unit

# of grid points (after initial pruning)     ... 700716 (   0.1 sec)
# of grid points (after weights+screening)   ... 597140 (  13.7 sec)
nearest neighbour list constructed           ...    0.0 sec
Grid point re-assignment to atoms done       ...    0.1 sec
Grid point division into batches done        ...    1.9 sec
Reduced shell lists constructed in    3.1 sec

Total number of grid points                  ...   597140
Total number of batches                      ...     9399
Average number of points per batch           ...       63
Average number of grid points per atom       ...     4327
Average number of shells per batch           ...    85.24 (12.84%)
Average number of basis functions per batch  ...   178.98 (12.46%)
Average number of large shells per batch     ...    55.20 (64.75%)
Average number of large basis fcns per batch ...   117.80 (65.82%)
Maximum spatial batch extension              ...  21.36, 20.46, 16.58 au
Average spatial batch extension              ...   0.33,  0.35,  0.35 au

Time for grid setup =   17.329 sec

------------------------------
INITIAL GUESS: MODEL POTENTIAL
------------------------------
Loading Hartree-Fock densities                     ... done
Calculating cut-offs                               ... done
Setting up the integral package                    ... done
Initializing the effective Hamiltonian             ... done
Starting the Coulomb interaction                   ... done (   1.9 sec)
Reading the grid                                   ... done
Mapping shells                                     ... done
Starting the XC term evaluation                    ... done (   1.8 sec)
  promolecular density results
     # of electrons  =    585.971908772
     EX              =   -502.452976906
     EC              =    -19.924051755
     EX+EC           =   -522.377028661
Transforming the Hamiltonian                       ... done (   0.1 sec)
Diagonalizing the Hamiltonian                      ... done (   0.3 sec)
Back transforming the eigenvectors                 ... done (   0.1 sec)
Now organizing SCF variables                       ... done
                      ------------------
                      INITIAL GUESS DONE (  21.8 sec)
                      ------------------
--------------------
COSX GRID GENERATION
--------------------

General Integration Accuracy     IntAcc      ...  3.340
Radial Grid Type                 RadialGrid  ... Gauss-Chebyshev
Angular Grid (max. acc.)         AngularGrid ... Lebedev-50
Angular grid pruning method      GridPruning ... 3 (G Style)
Weight generation scheme         WeightScheme... Becke
Basis function cutoff            BFCut       ...    1.0000e-11
Integration weight cutoff        WCut        ...    1.0000e-14
Grids for H and He will be reduced by one unit

# of grid points (after initial pruning)     ...  65648 (   0.0 sec)
# of grid points (after weights+screening)   ...  58282 (   1.3 sec)
nearest neighbour list constructed           ...    0.0 sec
Grid point re-assignment to atoms done       ...    0.0 sec
Grid point division into batches done        ...    0.0 sec
Reduced shell lists constructed in    0.2 sec

Total number of grid points                  ...    58282
Total number of batches                      ...      985
Average number of points per batch           ...       59
Average number of grid points per atom       ...      422
Average number of shells per batch           ...   101.30 (15.26%)
Average number of basis functions per batch  ...   214.39 (14.93%)
Average number of large shells per batch     ...    64.96 (64.13%)
Average number of large basis fcns per batch ...   140.81 (65.68%)
Maximum spatial batch extension              ...  19.03, 17.57, 20.72 au
Average spatial batch extension              ...   0.75,  0.81,  0.79 au

Overlap Fitting                  UseSFitting ... on
Constructing numerical overlap ... done (      0.1 sec)
Inverting numerical overlap    ... done (      0.1 sec)
Obtaining analytic overlap     ... done (      0.0 sec)
Final contraction and storage  ... done (      0.1 sec)


General Integration Accuracy     IntAcc      ...  3.670
Radial Grid Type                 RadialGrid  ... Gauss-Chebyshev
Angular Grid (max. acc.)         AngularGrid ... Lebedev-50
Angular grid pruning method      GridPruning ... 3 (G Style)
Weight generation scheme         WeightScheme... Becke
Basis function cutoff            BFCut       ...    1.0000e-11
Integration weight cutoff        WCut        ...    1.0000e-14
Grids for H and He will be reduced by one unit

# of grid points (after initial pruning)     ...  82780 (   0.0 sec)
# of grid points (after weights+screening)   ...  73151 (   1.5 sec)
nearest neighbour list constructed           ...    0.0 sec
Grid point re-assignment to atoms done       ...    0.0 sec
Grid point division into batches done        ...    0.0 sec
Reduced shell lists constructed in    0.2 sec

Total number of grid points                  ...    73151
Total number of batches                      ...     1214
Average number of points per batch           ...       60
Average number of grid points per atom       ...      530
Average number of shells per batch           ...    99.18 (14.94%)
Average number of basis functions per batch  ...   209.65 (14.60%)
Average number of large shells per batch     ...    63.89 (64.42%)
Average number of large basis fcns per batch ...   138.26 (65.95%)
Maximum spatial batch extension              ...  17.20, 19.27, 19.51 au
Average spatial batch extension              ...   0.69,  0.75,  0.73 au

Overlap Fitting                  UseSFitting ... on
Constructing numerical overlap ... done (      0.1 sec)
Inverting numerical overlap    ... done (      0.1 sec)
Obtaining analytic overlap     ... done (      0.0 sec)
Final contraction and storage  ... done (      0.1 sec)


General Integration Accuracy     IntAcc      ...  4.010
Radial Grid Type                 RadialGrid  ... Gauss-Chebyshev
Angular Grid (max. acc.)         AngularGrid ... Lebedev-110
Angular grid pruning method      GridPruning ... 3 (G Style)
Weight generation scheme         WeightScheme... Becke
Basis function cutoff            BFCut       ...    1.0000e-11
Integration weight cutoff        WCut        ...    1.0000e-14
Grids for H and He will be reduced by one unit

# of grid points (after initial pruning)     ... 157836 (   0.0 sec)
# of grid points (after weights+screening)   ... 138731 (   3.2 sec)
nearest neighbour list constructed           ...    0.0 sec
Grid point re-assignment to atoms done       ...    0.0 sec
Grid point division into batches done        ...    0.1 sec
Reduced shell lists constructed in    0.4 sec

Total number of grid points                  ...   138731
Total number of batches                      ...     2236
Average number of points per batch           ...       62
Average number of grid points per atom       ...     1005
Average number of shells per batch           ...    93.10 (14.02%)
Average number of basis functions per batch  ...   197.17 (13.73%)
Average number of large shells per batch     ...    60.58 (65.07%)
Average number of large basis fcns per batch ...   130.90 (66.39%)
Maximum spatial batch extension              ...  17.61, 26.72, 24.84 au
Average spatial batch extension              ...   0.56,  0.60,  0.60 au

Overlap Fitting                  UseSFitting ... on
Constructing numerical overlap ... done (      0.2 sec)
Inverting numerical overlap    ... done (      0.1 sec)
Obtaining analytic overlap     ... done (      0.0 sec)
Final contraction and storage  ... done (      0.1 sec)

Time for X-Grid setup             =    8.219 sec
--------------
SCF ITERATIONS
--------------
ITER       Energy         Delta-E        Max-DP      RMS-DP      [F,P]     Damp
               ***  Starting incremental Fock matrix formation  ***
  0  -4194.7776056862   0.000000000000 0.07891349  0.00083241  0.2365268 0.7000
  1  -4195.4631694499  -0.685563763629 0.04573711  0.00059662  0.1158424 0.7000
                               ***Turning on DIIS***
  2  -4195.7698993670  -0.306729917125 0.07463400  0.00110073  0.0456409 0.0000
  3  -4196.2831129261  -0.513213559139 0.04879377  0.00042186  0.0622691 0.0000
  4  -4196.3644675075  -0.081354581380 0.01641763  0.00012286  0.0269680 0.0000
  5  -4196.3706544388  -0.006186931319 0.00600012  0.00004393  0.0081278 0.0000
                      *** Initiating the SOSCF procedure ***
                           *** Shutting down DIIS ***
                      *** Re-Reading the Fockian *** 
                      *** Removing any level shift *** 
ITER      Energy       Delta-E        Grad      Rot      Max-DP    RMS-DP
  6  -4196.37145501  -0.0008005735  0.001524  0.001524  0.002339  0.000022
               *** Restarting incremental Fock matrix formation ***
  7  -4196.37154942  -0.0000944109  0.000978  0.004562  0.001616  0.000018
  8  -4196.37165654  -0.0001071179  0.000379  0.004084  0.001573  0.000021
  9  -4196.37166399  -0.0000074481  0.000589  0.001492  0.001074  0.000008
 10  -4196.37168936  -0.0000253740  0.000138  0.000511  0.000593  0.000004
 11  -4196.37168852   0.0000008467  0.000119  0.000268  0.000239  0.000003
 12  -4196.37169125  -0.0000027338  0.000048  0.000358  0.000126  0.000001
 13  -4196.37169136  -0.0000001063  0.000024  0.000073  0.000076  0.000001
 14  -4196.37169147  -0.0000001091  0.000012  0.000108  0.000040  0.000000
 15  -4196.37169144   0.0000000267  0.000007  0.000060  0.000015  0.000000
 16  -4196.37169145  -0.0000000139  0.000003  0.000020  0.000008  0.000000
 17  -4196.37169143   0.0000000216  0.000005  0.000004  0.000005  0.000000
                  ***Gradient check signals convergence***
              ***Rediagonalizing the Fockian in SOSCF/NRSCF***

               *****************************************************
               *                     SUCCESS                       *
               *           SCF CONVERGED AFTER  18 CYCLES          *
               *****************************************************

Setting up the final grid:

General Integration Accuracy     IntAcc      ...  5.010
Radial Grid Type                 RadialGrid  ... Gauss-Chebyshev
Angular Grid (max. acc.)         AngularGrid ... Lebedev-434
Angular grid pruning method      GridPruning ... 3 (G Style)
Weight generation scheme         WeightScheme... Becke
Basis function cutoff            BFCut       ...    1.0000e-11
Integration weight cutoff        WCut        ...    1.0000e-14
Grids for H and He will be reduced by one unit

# of grid points (after initial pruning)     ... 1254288 (   0.1 sec)
# of grid points (after weights+screening)   ... 1065141 (  23.6 sec)
nearest neighbour list constructed           ...    0.0 sec
Grid point re-assignment to atoms done       ...    0.2 sec
Grid point division into batches done        ...    6.4 sec
Reduced shell lists constructed in    8.4 sec

Total number of grid points                  ...  1065141
Total number of batches                      ...    16715
Average number of points per batch           ...       63
Average number of grid points per atom       ...     7718
Average number of shells per batch           ...    83.85 (12.63%)
Average number of basis functions per batch  ...   175.37 (12.21%)
Average number of large shells per batch     ...    54.18 (64.62%)
Average number of large basis fcns per batch ...   115.09 (65.62%)
Maximum spatial batch extension              ...  16.19, 19.97, 21.55 au
Average spatial batch extension              ...   0.26,  0.28,  0.27 au

Final grid set up in   32.9 sec
Final integration                            ... done (   3.8 sec)
Change in XC energy                          ...    -0.000034142
Integrated number of electrons               ...   585.999827229
Previous integrated no of electrons          ...   585.999579780
Old exchange energy                            =   -143.033696325 Eh
[...]
   2   2.399     516.8   0.000022   0.000022  -0.002080  -0.001039     0.99 ( 116-> 118)    0.00 ( 115-> 118)    0.00 ( 116-> 120)
   3   3.018     410.8   0.000005   0.000006   0.009760   0.010991     1.00 ( 116-> 119)    0.00 ( 115-> 119)    0.00 ( 116-> 117)
   4   3.036     408.4   0.019626   0.017916  -1.440235  -0.750457     0.60 ( 114-> 118)    0.27 ( 115-> 118)    0.04 ( 114-> 120)
   5   3.153     393.2   0.000086   0.000083  -0.001986  -0.000279     0.99 ( 116-> 120)    0.00 ( 114-> 118)    0.00 ( 115-> 120)
   6   3.326     372.7   0.013579   0.013976   9.180849   9.081518     0.94 ( 113-> 117)    0.01 ( 113-> 119)    0.01 ( 107-> 117)
   7   3.476     356.7   0.104687   0.105406  -124.598930  -138.530082     0.77 ( 110-> 117)    0.10 ( 107-> 117)    0.03 ( 115-> 121)
   8   3.480     356.3   0.096117   0.091899  137.854112  135.250299     0.45 ( 115-> 121)    0.27 ( 116-> 125)    0.13 ( 114-> 121)
   9   3.565     347.8   0.334080   0.317877  39.652693  38.247430     0.69 ( 107-> 117)    0.10 ( 110-> 117)    0.07 ( 108-> 117)
  10   3.590     345.4   0.004410   0.004022  -3.701763  -4.694154     0.87 ( 112-> 121)    0.05 ( 116-> 125)    0.04 ( 114-> 121)
  11   3.606     343.8   0.242071   0.235218   1.682893  14.876841     0.86 ( 111-> 118)    0.11 ( 106-> 118)    0.01 ( 102-> 120)
  12   3.711     334.1   0.023826   0.021425  28.762345  23.520443     0.42 ( 105-> 117)    0.20 ( 110-> 119)    0.17 (  99-> 117)
  13   3.772     328.7   0.001957   0.001569  -0.626016  -0.130216     0.53 ( 114-> 120)    0.23 ( 115-> 120)    0.03 ( 114-> 118)
  14   3.830     323.7   0.003818   0.004872  20.647717  24.914174     0.61 ( 100-> 120)    0.13 ( 100-> 118)    0.10 ( 102-> 120)
  15   3.861     321.1   0.052425   0.049968  -33.005341  -22.375922     0.30 (  99-> 117)    0.26 ( 105-> 117)    0.18 (  99-> 119)
  16   3.875     320.0   0.000017   0.000015  -0.007159  -0.001210     0.89 ( 115-> 117)    0.10 ( 114-> 117)    0.01 ( 112-> 117)
  17   3.917     316.5   0.135431   0.124799   1.179496   1.069066     0.39 ( 106-> 118)    0.30 ( 111-> 120)    0.11 ( 102-> 118)
  18   3.976     311.9   0.024749   0.023481  -38.868913  -39.737582     0.52 ( 100-> 118)    0.20 ( 102-> 118)    0.15 ( 100-> 120)
  19   4.023     308.2   0.000728   0.000641   0.101053   0.040047     0.68 ( 115-> 118)    0.28 ( 114-> 118)    0.02 ( 112-> 118)
  20   4.049     306.2   0.043301   0.042498  -30.529557  -34.044580     0.47 (  99-> 119)    0.34 (  99-> 117)    0.05 ( 101-> 117)
  21   4.192     295.8   0.000000   0.000000  -0.000624   0.000362     0.87 ( 112-> 117)    0.12 ( 114-> 117)    0.00 ( 109-> 117)
  22   4.249     291.8   0.000075   0.000068   0.372322   0.346010     0.93 ( 112-> 118)    0.06 ( 114-> 118)    0.00 ( 113-> 118)
  23   4.257     291.2   0.259929   0.239321  56.935571  15.033032     0.48 ( 110-> 119)    0.17 ( 105-> 117)    0.05 ( 116-> 125)
  24   4.273     290.1   0.529012   0.486691  41.126834  42.401775     0.22 ( 113-> 121)    0.18 ( 108-> 121)    0.14 ( 110-> 119)
  25   4.292     288.9   0.000013   0.000013   0.020064   0.020264     0.78 ( 114-> 117)    0.11 ( 112-> 117)    0.11 ( 115-> 117)
  26   4.307     287.9   0.586052   0.542778  -76.735962  -75.207307     0.45 ( 111-> 120)    0.36 ( 106-> 118)    0.06 ( 100-> 118)
  27   4.319     287.1   0.130480   0.122982  -2.953909  -26.626998     0.35 ( 107-> 119)    0.33 ( 101-> 117)    0.07 ( 113-> 119)
  28   4.368     283.8   0.269212   0.242706  33.622542  33.161412     0.44 ( 116-> 122)    0.25 ( 113-> 121)    0.13 ( 116-> 129)
  29   4.375     283.4   0.224656   0.202932  63.206675  60.708968     0.54 ( 116-> 122)    0.19 ( 113-> 121)    0.11 ( 116-> 129)
  30   4.401     281.7   0.199612   0.177302  223.971663  206.353759     0.36 ( 102-> 118)    0.21 ( 100-> 118)    0.15 ( 111-> 120)
  31   4.410     281.1   0.004012   0.003952  -2.325244  -3.238629     0.85 ( 113-> 119)    0.06 ( 101-> 117)    0.02 ( 113-> 117)
  32   4.436     279.5   0.403274   0.363109  -70.736062  -60.844118     0.59 ( 109-> 121)    0.11 ( 116-> 125)    0.09 ( 108-> 121)
  33   4.460     278.0   0.657505   0.586984  -61.790584  -43.365473     0.21 ( 116-> 129)    0.21 ( 109-> 121)    0.18 ( 116-> 125)
  34   4.564     271.7   0.086940   0.078146  34.264703  39.922236     0.39 ( 108-> 121)    0.21 ( 113-> 121)    0.14 ( 116-> 129)
  35   4.621     268.3   0.435381   0.379909  -124.581028  -115.662283     0.37 ( 101-> 117)    0.27 ( 107-> 119)    0.09 (  99-> 117)
  36   4.626     268.0   0.000000   0.000000  -0.000455  -0.000388     0.99 ( 113-> 118)    0.00 ( 112-> 118)    0.00 ( 114-> 118)
  37   4.649     266.7   0.272136   0.236114  -95.419966  -84.091033     0.76 ( 114-> 121)    0.07 ( 112-> 121)    0.06 ( 115-> 121)
  38   4.678     265.0   0.000109   0.000048   0.074546   0.009500     0.68 ( 108-> 117)    0.17 ( 109-> 117)    0.08 ( 107-> 117)
  39   4.713     263.1   0.000353   0.000320  -0.544227  -0.512253     0.97 ( 116-> 123)    0.01 ( 115-> 120)    0.01 ( 116-> 126)
  40   4.759     260.5   0.001202   0.000977   0.005958   0.033573     0.68 ( 115-> 120)    0.26 ( 114-> 120)    0.02 ( 112-> 120)
  41   4.772     259.8   0.000025   0.000024  -0.022298  -0.020954     0.90 ( 115-> 119)    0.08 ( 114-> 119)    0.01 ( 112-> 119)
  42   4.840     256.2   0.131643   0.111158  21.844883  20.968421     0.46 ( 104-> 121)    0.13 ( 116-> 134)    0.10 ( 116-> 135)
  43   4.889     253.6   0.228412   0.191459  -14.750733   0.835515     0.76 ( 105-> 119)    0.06 ( 107-> 119)    0.05 ( 110-> 122)
  44   4.891     253.5   0.001570   0.001235  -0.321525  -0.111977     0.82 ( 109-> 117)    0.16 ( 108-> 117)    0.01 ( 107-> 117)
  45   4.997     248.1   0.000255   0.000218   0.012379   0.023396     0.93 ( 112-> 120)    0.06 ( 114-> 120)    0.00 ( 113-> 120)

-----------------------------------------------------------------------------
         ABSORPTION SPECTRUM VIA TRANSITION ELECTRIC DIPOLE MOMENTS
-----------------------------------------------------------------------------
State   Energy  Wavelength   fosc         T2         TX        TY        TZ  
        (cm-1)    (nm)                  (au**2)     (au)      (au)      (au) 
-----------------------------------------------------------------------------
   0   14886.8    671.7   0.054114342   1.19670  -0.95636  -0.46823   0.25066
   1   17019.5    587.6   0.000002918   0.00006  -0.00205  -0.00504   0.00518
   2   19349.6    516.8   0.000022073   0.00038   0.01343   0.01331  -0.00425
   3   24344.7    410.8   0.000005068   0.00007  -0.00150  -0.00550   0.00600
   4   24484.9    408.4   0.019626448   0.26389   0.35100   0.37197  -0.04818
   5   25429.5    393.2   0.000086465   0.00112  -0.02537  -0.02145  -0.00397
   6   26829.9    372.7   0.013578979   0.16662  -0.30026  -0.03108   0.27476
   7   28037.9    356.7   0.104687373   1.22920  -0.22516  -0.78711  -0.74764
   8   28064.9    356.3   0.096117351   1.12749   0.34857  -0.69508  -0.72308
   9   28749.8    347.8   0.334079785   3.82553   1.43985  -0.38070  -1.26785
  10   28953.2    345.4   0.004409565   0.05014  -0.18268   0.09603   0.08687
  11   29082.8    343.8   0.242070517   2.74020  -0.20195   1.14675  -1.17660
  12   29927.2    334.1   0.023826331   0.26210  -0.29870  -0.23257  -0.34466
  13   30421.9    328.7   0.001956508   0.02117  -0.06007  -0.12699   0.03791
  14   30891.4    323.7   0.003817668   0.04069   0.18956   0.05081   0.04658
  15   31139.0    321.1   0.052425129   0.55426  -0.55282  -0.37071  -0.33348
  16   31252.4    320.0   0.000016575   0.00017  -0.01163  -0.00498  -0.00382
  17   31594.3    316.5   0.135430986   1.41119  -0.50099   0.59827  -0.89570
  18   32066.0    311.9   0.024748820   0.25409   0.43920   0.05308   0.24160
  19   32445.3    308.2   0.000727869   0.00739   0.07002   0.03703   0.03334
  20   32654.2    306.2   0.043300794   0.43655  -0.22180  -0.30000  -0.54530
  21   33809.4    295.8   0.000000221   0.00000   0.00054  -0.00128   0.00047
  22   34266.9    291.8   0.000075281   0.00072   0.02355   0.01130   0.00639
  23   34337.8    291.2   0.259929084   2.49206   0.22316   0.32802   1.52796
  24   34465.1    290.1   0.529011752   5.05314   0.48986   1.76536   1.30256
  25   34616.3    288.9   0.000013277   0.00013  -0.00060   0.00291   0.01084
  26   34736.6    287.9   0.586051812   5.55424  -1.35538   0.75692  -1.77320
  27   34833.9    287.1   0.130479510   1.23315  -0.10843  -0.04484   1.10426
  28   35231.0    283.8   0.269212245   2.51562   0.21741   1.46402   0.57009
  29   35284.8    283.4   0.224656387   2.09607  -0.21895  -1.36108  -0.44225
  30   35497.6    281.7   0.199611812   1.85124   0.32918   1.22092  -0.50223
  31   35573.0    281.1   0.004012324   0.03713  -0.06721  -0.11111  -0.14237
  32   35781.4    279.5   0.403274308   3.71039  -0.09569   1.55175   1.13723
  33   35970.5    278.0   0.657505423   6.01766  -0.27224   2.01686   1.36961
  34   36810.0    271.7   0.086940134   0.77755   0.09496   0.84576   0.23069
  35   37267.6    268.3   0.435380742   3.84603   0.59836  -0.93108  -1.61898
  36   37312.9    268.0   0.000000215   0.00000   0.00004  -0.00041   0.00131
  37   37497.6    266.7   0.272136406   2.38923   0.23351  -1.27530  -0.84162
  38   37732.2    265.0   0.000109459   0.00096   0.00493  -0.01511  -0.02650
  39   38011.3    263.1   0.000352874   0.00306  -0.02048   0.01712   0.04841
  40   38381.6    260.5   0.001202456   0.01031   0.05016   0.07654  -0.04404
  41   38485.9    259.8   0.000024972   0.00021   0.00686  -0.00990  -0.00828
  42   39038.1    256.2   0.131643478   1.11016   0.12481  -0.87704  -0.57043
  43   39434.0    253.6   0.228412128   1.90688  -1.25437   0.55040   0.17466
  44   39449.4    253.5   0.001570099   0.01310   0.09908  -0.04891  -0.02990
  45   40299.9    248.1   0.000254819   0.00208   0.03810   0.02467   0.00458

-----------------------------------------------------------------------------
         ABSORPTION SPECTRUM VIA TRANSITION VELOCITY DIPOLE MOMENTS
-----------------------------------------------------------------------------
State   Energy  Wavelength   fosc         P2         PX        PY        PZ  
        (cm-1)    (nm)                  (au**2)     (au)      (au)      (au) 
-----------------------------------------------------------------------------
   0   14886.8    671.7   0.055416159   0.00564  -0.06344  -0.03770   0.01389
   1   17019.5    587.6   0.000003948   0.00000  -0.00018  -0.00042   0.00050
   2   19349.6    516.8   0.000022443   0.00000   0.00109   0.00127  -0.00041
   3   24344.7    410.8   0.000005706   0.00000  -0.00018  -0.00060   0.00075
   4   24484.9    408.4   0.017916149   0.00300   0.03666   0.04026  -0.00578
   5   25429.5    393.2   0.000082675   0.00001  -0.00287  -0.00244  -0.00043
   6   26829.9    372.7   0.013975938   0.00256  -0.03692  -0.00485   0.03429
   7   28037.9    356.7   0.105406303   0.02020  -0.03138  -0.09991  -0.09608
   8   28064.9    356.3   0.091899232   0.01763   0.04251  -0.08669  -0.09113
   9   28749.8    347.8   0.317877030   0.06246   0.18406  -0.04675  -0.16248
  10   28953.2    345.4   0.004022441   0.00080  -0.02523   0.00895   0.00890
  11   29082.8    343.8   0.235217571   0.04675  -0.03029   0.14766  -0.15502
  12   29927.2    334.1   0.021424691   0.00438  -0.04078  -0.02916  -0.04323
  13   30421.9    328.7   0.001568607   0.00033  -0.00736  -0.01550   0.00564
  14   30891.4    323.7   0.004872260   0.00103   0.03089   0.00613   0.00609
  15   31139.0    321.1   0.049967855   0.01063  -0.07433  -0.05348  -0.04743
  16   31252.4    320.0   0.000015431   0.00000  -0.00155  -0.00071  -0.00063
  17   31594.3    316.5   0.124798874   0.02695  -0.06975   0.08197  -0.12395
  18   32066.0    311.9   0.023481043   0.00515   0.06213   0.00719   0.03514
  19   32445.3    308.2   0.000641482   0.00014   0.00972   0.00494   0.00483
  20   32654.2    306.2   0.042497956   0.00948  -0.03348  -0.04301  -0.08071
  21   33809.4    295.8   0.000000211   0.00000   0.00001  -0.00018   0.00013
  22   34266.9    291.8   0.000067581   0.00002   0.00349   0.00162   0.00102
  23   34337.8    291.2   0.239321103   0.05616   0.03717   0.04905   0.22886
  24   34465.1    290.1   0.486690956   0.11464   0.07119   0.26582   0.19726
  25   34616.3    288.9   0.000013251   0.00000  -0.00010   0.00043   0.00172
  26   34736.6    287.9   0.542777774   0.12886  -0.20644   0.11515  -0.27015
  27   34833.9    287.1   0.122981866   0.02928  -0.01203  -0.00865   0.17047
  28   35231.0    283.8   0.242705652   0.05844   0.03464   0.22285   0.08705
  29   35284.8    283.4   0.202932390   0.04894  -0.03418  -0.20780  -0.06775
  30   35497.6    281.7   0.177302033   0.04302   0.05207   0.18665  -0.07393
  31   35573.0    281.1   0.003952061   0.00096  -0.01184  -0.01654  -0.02339
  32   35781.4    279.5   0.363109392   0.08880  -0.01378   0.24100   0.17473
  33   35970.5    278.0   0.586984258   0.14430  -0.03961   0.31325   0.21122
  34   36810.0    271.7   0.078146203   0.01966   0.01794   0.13460   0.03492
  35   37267.6    268.3   0.379908657   0.09676   0.09492  -0.14816  -0.25652
  36   37312.9    268.0   0.000000192   0.00000   0.00002  -0.00005   0.00022
  37   37497.6    266.7   0.236113736   0.06051   0.03478  -0.20390  -0.13314
  38   37732.2    265.0   0.000048219   0.00001  -0.00018  -0.00166  -0.00311
  39   38011.3    263.1   0.000320225   0.00008  -0.00334   0.00316   0.00788
  40   38381.6    260.5   0.000976953   0.00026   0.00793   0.01193  -0.00714
  41   38485.9    259.8   0.000024302   0.00001   0.00125  -0.00167  -0.00143
  42   39038.1    256.2   0.111157883   0.02966   0.01975  -0.14308  -0.09379
  43   39434.0    253.6   0.191458648   0.05160  -0.20725   0.08922   0.02624
  44   39449.4    253.5   0.001234987   0.00033   0.01596  -0.00773  -0.00431
  45   40299.9    248.1   0.000217992   0.00006   0.00648   0.00419   0.00072

-------------------------------------------------------------------
                             CD SPECTRUM
-------------------------------------------------------------------
State   Energy Wavelength       R         MX        MY        MZ   
        (cm-1)   (nm)       (1e40*cgs)   (au)      (au)      (au)  
-------------------------------------------------------------------
   0   14886.8    671.7     18.37377  -0.13247  -0.16401  -1.12278
   1   17019.5    587.6      0.00870   0.01144   0.00111  -0.00152
   2   19349.6    516.8     -0.00208   0.00199   0.00442   0.01808
   3   24344.7    410.8      0.00976   0.01978  -0.00146  -0.00328
   4   24484.9    408.4     -1.44023  -0.04020   0.13729   0.64033
   5   25429.5    393.2     -0.00199   0.01436  -0.00753  -0.05313
   6   26829.9    372.7      9.18085   0.59843   0.18512   0.53316
   7   28037.9    356.7    -124.59893  -2.81280   0.21549  -0.08677
   8   28064.9    356.3    137.85411   0.25324   0.76613   0.19439
   9   28749.8    347.8     39.65269  -2.84087  -0.49629  -2.94458
  10   28953.2    345.4     -3.70176  -0.15306  -0.02337  -0.11526
  11   29082.8    343.8      1.68289   3.06628  -1.13166  -1.62316
  12   29927.2    334.1     28.76234  -0.51107   0.56482   0.41582
  13   30421.9    328.7     -0.62602   0.18468  -0.17950  -0.23860
  14   30891.4    323.7     20.64772  -0.56280  -0.02205   0.43401
  15   31139.0    321.1    -33.00534  -1.31959   1.02241   0.63110
  16   31252.4    320.0     -0.00716  -0.01725   0.01902   0.01978
  17   31594.3    316.5      1.17950   2.85282  -1.49684  -2.58987
  18   32066.0    311.9    -38.86891  -0.57290   0.67185   1.57634
  19   32445.3    308.2      0.10105  -0.14514   0.05846   0.22702
  20   32654.2    306.2    -30.52956  -2.10262   0.68432   0.24123
  21   33809.4    295.8     -0.00062   0.00489  -0.00162  -0.00436
  22   34266.9    291.8      0.37232  -0.11313   0.03982   0.09931
  23   34337.8    291.2     56.93557   6.95914  -1.83790  -0.77991
  24   34465.1    290.1     41.12683   1.24717  -1.24442   1.08359
  25   34616.3    288.9      0.02006   0.04285  -0.00436  -0.00432
  26   34736.6    287.9    -76.73596   6.43696  -3.26646  -6.49814
  27   34833.9    287.1     -2.95391   3.50177   0.28156   0.36663
  28   35231.0    283.8     33.62254  -0.74496  -0.38411   1.02031
  29   35284.8    283.4     63.20667   0.91035   0.36284  -0.96107
  30   35497.6    281.7    223.97166   2.00897  -1.29711   0.05534
  31   35573.0    281.1     -2.32524  -0.52788   0.10877   0.09502
  32   35781.4    279.5    -70.73606  -2.70608  -0.59543   0.84864
  33   35970.5    278.0    -61.79058  -3.49818  -0.89101   0.80814
  34   36810.0    271.7     34.26470  -1.39862  -0.21492   0.73352
  35   37267.6    268.3    -124.58103  -4.50566  -0.14703  -1.90714
  36   37312.9    268.0     -0.00045  -0.00395   0.00033   0.00169
  37   37497.6    266.7    -95.41997   1.07064   0.36300  -0.73397
  38   37732.2    265.0      0.07455  -0.03933   0.00339   0.00268
  39   38011.3    263.1     -0.54423  -0.12907  -0.00156  -0.00636
  40   38381.6    260.5      0.00596   0.11356  -0.00609   0.11935
  41   38485.9    259.8     -0.02230  -0.01061  -0.00177  -0.01810
  42   39038.1    256.2     21.84488   1.44503   0.47325  -0.24899
  43   39434.0    253.6    -14.75073   1.33541   2.30497   2.68535
  44   39449.4    253.5     -0.32152  -0.13394  -0.16800  -0.21464
  45   40299.9    248.1      0.01238  -0.05753   0.05880   0.15041

sTD-DFT done

Total run time:        6.034 sec

           *** ORCA-CIS/TD-DFT FINISHED WITHOUT ERROR ***

-------------------------   --------------------
FINAL SINGLE POINT ENERGY     -4196.370489380576
-------------------------   --------------------


                            ***************************************
                            *     ORCA property calculations      *
                            ***************************************

                                    ---------------------
                                    Active property flags
                                    ---------------------
   (+) Dipole Moment


------------------------------------------------------------------------------
                       ORCA ELECTRIC PROPERTIES CALCULATION
------------------------------------------------------------------------------

Dipole Moment Calculation                       ... on
Quadrupole Moment Calculation                   ... off
Polarizability Calculation                      ... off
GBWName                                         ... xtbopt.gbw
Electron density file                           ... xtbopt.scfp
The origin for moment calculation is the CENTER OF MASS  = (-0.418342,  4.370388 -2.771761)

-------------
DIPOLE MOMENT
-------------
                                X             Y             Z
Electronic contribution:     16.89527      49.41662      61.02466
Nuclear contribution   :    -17.07337     -48.43466     -61.81735
                        -----------------------------------------
Total Dipole Moment    :     -0.17810       0.98196      -0.79269
                        -----------------------------------------
Magnitude (a.u.)       :      1.27449
Magnitude (Debye)      :      3.23949



--------------------
Rotational spectrum 
--------------------
 
Rotational constants in cm-1:     0.000855     0.000158     0.000143 
Rotational constants in MHz :    25.642943     4.742859     4.296875 

 Dipole components along the rotational axes: 
x,y,z [a.u.] :     1.037778    -0.525315     0.520946 
x,y,z [Debye]:     2.637821    -1.335244     1.324139 

 

Timings for individual modules:

Sum of individual times         ...      795.653 sec (=  13.261 min)
GTO integral calculation        ...        3.805 sec (=   0.063 min)   0.5 %
SCF iterations                  ...      785.078 sec (=  13.085 min)  98.7 %
CIS module                      ...        6.769 sec (=   0.113 min)   0.9 %
                             ****ORCA TERMINATED NORMALLY****
TOTAL RUN TIME: 0 days 0 hours 13 minutes 16 seconds 852 msec
