
                                 *****************
                                 * O   R   C   A *
                                 *****************

           --- An Ab Initio, DFT and Semiempirical electronic structure package ---

                  #######################################################
                  #                        -***-                        #
                  #          Department of theory and spectroscopy      #
                  #               Directorship: Frank Neese             #
                  #        Max Planck Institute fuer Kohlenforschung    #
                  #                Kaiser Wilhelm Platz 1               #
                  #                 D-45470 Muelheim/Ruhr               #
                  #                      Germany                        #
                  #                                                     #
                  #                  All rights reserved                #
                  #                        -***-                        #
                  #######################################################


                         Program Version 4.2.0 -  RELEASE  -


 With contributions from (in alphabetic order):
   Daniel Aravena         : Magnetic Suceptibility
   Michael Atanasov       : Ab Initio Ligand Field Theory (pilot matlab implementation)
   Alexander A. Auer      : GIAO ZORA, VPT2
   Ute Becker             : Parallelization
   Giovanni Bistoni       : ED, misc. LED, open-shell LED, HFLED
   Martin Brehm           : Molecular dynamics
   Dmytro Bykov           : SCF Hessian
   Vijay G. Chilkuri      : MRCI spin determinant printing, contributions to CSF-ICE
   Dipayan Datta          : RHF DLPNO-CCSD density
   Achintya Kumar Dutta   : EOM-CC, STEOM-CC
   Dmitry Ganyushin       : Spin-Orbit,Spin-Spin,Magnetic field MRCI
   Miquel Garcia          : C-PCM Hessian, Gaussian charge scheme
   Yang Guo               : DLPNO-NEVPT2, CIM, IAO-localization
   Andreas Hansen         : Spin unrestricted coupled pair/coupled cluster methods
   Benjamin Helmich-Paris : CASSCF linear response (MC-RPA)
   Lee Huntington         : MR-EOM, pCC
   Robert Izsak           : Overlap fitted RIJCOSX, COSX-SCS-MP3, EOM
   Christian Kollmar      : KDIIS, OOCD, Brueckner-CCSD(T), CCSD density
   Simone Kossmann        : Meta GGA functionals, TD-DFT gradient, OOMP2, MP2 Hessian
   Martin Krupicka        : AUTO-CI
   Lucas Lang             : DCDCAS
   Dagmar Lenk            : GEPOL surface, SMD
   Dimitrios Liakos       : Extrapolation schemes; Compound Job, initial MDCI parallelization
   Dimitrios Manganas     : Further ROCIS development; embedding schemes
   Dimitrios Pantazis     : SARC Basis sets
   Taras Petrenko         : DFT Hessian,TD-DFT gradient, ASA, ECA, R-Raman, ABS, FL, XAS/XES, NRVS
   Peter Pinski           : DLPNO-MP2, DLPNO-MP2 Gradient
   Christoph Reimann      : Effective Core Potentials
   Marius Retegan         : Local ZFS, SOC
   Christoph Riplinger    : Optimizer, TS searches, QM/MM, DLPNO-CCSD(T), (RO)-DLPNO pert. Triples
   Tobias Risthaus        : Range-separated hybrids, TD-DFT gradient, RPA, STAB
   Michael Roemelt        : Original ROCIS implementation
   Masaaki Saitow         : Open-shell DLPNO-CCSD energy and density
   Barbara Sandhoefer     : DKH picture change effects
   Avijit Sen             : IP-ROCIS
   Kantharuban Sivalingam : CASSCF convergence, NEVPT2, FIC-MRCI
   Bernardo de Souza      : ESD, SOC TD-DFT
   Georgi Stoychev        : AutoAux, RI-MP2 NMR
   Willem Van den Heuvel  : Paramagnetic NMR
   Boris Wezisla          : Elementary symmetry handling
   Frank Wennmohs         : Technical directorship


 We gratefully acknowledge several colleagues who have allowed us to
 interface, adapt or use parts of their codes:
   Stefan Grimme, W. Hujo, H. Kruse,             : VdW corrections, initial TS optimization,
                  C. Bannwarth                     DFT functionals, gCP, sTDA/sTD-DF
   Ed Valeev, F. Pavosevic, A. Kumar             : LibInt (2-el integral package), F12 methods
   Garnet Chan, S. Sharma, J. Yang, R. Olivares  : DMRG
   Ulf Ekstrom                                   : XCFun DFT Library
   Mihaly Kallay                                 : mrcc  (arbitrary order and MRCC methods)
   Andreas Klamt, Michael Diedenhofen            : otool_cosmo (COSMO solvation model)
   Jiri Pittner, Ondrej Demel                    : Mk-CCSD
   Frank Weinhold                                : gennbo (NPA and NBO analysis)
   Christopher J. Cramer and Donald G. Truhlar   : smd solvation model
   Lars Goerigk                                  : TD-DFT with DH, B97 family of functionals
   V. Asgeirsson, H. Jonsson                     : NEB implementation
   FAccTs GmbH                                   : IRC, NEB, NEB-TS, Multilevel, MM, QM/MM, CI optimization
   S Lehtola, MJT Oliveira, MAL Marques          : LibXC Library


 Your calculation uses the libint2 library for the computation of 2-el integrals
 For citations please refer to: http://libint.valeyev.net

 Your ORCA version has been built with support for libXC version: 4.2.3
 For citations please refer to: https://tddft.org/programs/libxc/

 This ORCA versions uses:
   CBLAS   interface :  Fast vector & matrix operations
   LAPACKE interface :  Fast linear algebra routines
   SCALAPACK package :  Parallel linear algebra routines


XCFun DFT library Copyright 2009-2010 Ulf Ekstrom and contributors.
See http://admol.org/xcfun for more information. This is free soft-
ware; see the source code for copying conditions. There is ABSOLUTELY
NO WARRANTY; not even for MERCHANTABILITY or FITNESS FOR A PARTICULAR
PURPOSE. For details see the documentation. Scientific users of this 
library should cite U. Ekstrom, L. Visscher, R. Bast, A. J. Thorvald-
sen and K. Ruud; J.Chem.Theor.Comp. 2010, DOI: 10.1021/ct100117s
XCFun Version 0.99 
----- Orbital basis set information -----
Your calculation utilizes the basis: def2-SVP
   F. Weigend and R. Ahlrichs, Phys. Chem. Chem. Phys. 7, 3297 (2005).

----- AuxJ basis set information -----
Your calculation utilizes the auxiliary basis: def2/J
   F. Weigend, Phys. Chem. Chem. Phys. 8, 1057 (2006).

================================================================================
                                        WARNINGS
                       Please study these warnings very carefully!
================================================================================

INFO   : Checking CIS options ...

WARNING: CIS/ROCIS methods need fully converged wavefunctions
  ===> : Setting SCFConvForced true
         You can overwrite this default with %scf ConvForced false 


INFO   : the flag for use of LIBINT has been found!

================================================================================
                                       INPUT FILE
================================================================================
NAME = xtbopt.inp
|  1> # ORCA input file
|  2> # SCF done       -248.543642705881          0.000607996824
|  3> ! CAM-B3LYP def2-SVP def2/J RIJCOSX Grid4 TightSCF
|  4> %maxcore 5000
|  5> %tddft
|  6>     Mode sTDDFT
|  7>     Ethresh 5.0
|  8>     maxcore 5000
|  9> end
| 10> 
| 11> %pal
| 12>   nprocs 6
| 13>   end
| 14> * xyz 0 1
| 15>    C       -6.76146        -0.98459        -0.41190
| 16>    O       -7.42164         0.01446        -0.58733
| 17>    C       -7.25635        -2.30768         0.04860
| 18>    C       -6.21745        -3.25299        -0.01288
| 19>    C       -6.44004        -4.57017         0.34925
| 20>    C       -7.71221        -4.92307         0.77771
| 21>    C       -8.75073        -3.99765         0.85164
| 22>    C       -8.52001        -2.67158         0.47723
| 23>    F       -9.51242        -1.79012         0.55366
| 24>    F       -9.95867        -4.37437         1.27830
| 25>    F       -7.95011        -6.18765         1.13216
| 26>    C       -5.00415        -2.58040        -0.48126
| 27>    C       -3.76319        -3.15670        -0.58098
| 28>    C       -3.49378        -4.51445        -0.31049
| 29>    N       -3.21435        -5.60956        -0.11112
| 30>    C       -2.58437        -2.46841        -0.93875
| 31>    N       -1.58281        -1.97219        -1.20120
| 32>    C       -5.33377        -1.19739        -0.72364
| 33>    C       -4.52630        -0.27391        -1.34852
| 34>    C       -4.72152         1.10991        -1.41672
| 35>    S       -3.96692         1.98825        -2.73463
| 36>    C       -4.60347         3.51797        -2.21596
| 37>    C       -5.32832         3.34708        -1.04692
| 38>    C       -5.39075         2.00874        -0.57408
| 39>    C       -6.04229         1.93166         0.67627
| 40>    C       -6.50157         3.15019         1.08670
| 41>    C       -7.24946         3.48229         2.30671
| 42>    O       -7.62953         4.59447         2.57515
| 43>    O       -7.44902         2.40821         3.07708
| 44>    C       -8.18893         2.63698         4.26938
| 45>    S       -6.14303         4.46016        -0.00303
| 46>    C       -4.34402         4.71041        -2.93370
| 47>    C       -3.59424         4.84047        -4.07449
| 48>    C       -3.49719         6.16842        -4.53858
| 49>    C       -2.76497         6.65008        -5.64716
| 50>    C       -2.09002         5.76892        -6.57488
| 51>    C       -0.90130         5.97111        -7.21876
| 52>    C       -0.57487         4.92539        -8.10785
| 53>    C       -1.50431         3.92642        -8.17069
| 54>    S       -2.81427         4.26859        -7.09466
| 55>    C       -1.48820         2.69031        -8.99108
| 56>   Cl        0.87615         4.92696        -9.03236
| 57>    C       -2.73975         8.03048        -5.81289
| 58>    C       -3.42075         8.93668        -4.95861
| 59>    C       -4.18033         8.45313        -3.87151
| 60>    C       -4.19334         7.07320        -3.69544
| 61>    S       -4.98278         6.24231        -2.38269
| 62>    C       -4.90080         9.32059        -2.96415
| 63>    C       -6.10997         9.08485        -2.37210
| 64>    C       -6.49937        10.11403        -1.48882
| 65>    C       -5.59884        11.13473        -1.37952
| 66>    S       -4.23666        10.83295        -2.40257
| 67>    C       -5.67982        12.36288        -0.55110
| 68>   Cl       -7.98668        10.06643        -0.62562
| 69>    C       -3.26240        10.27519        -5.38043
| 70>    C       -2.49003        10.41153        -6.50110
| 71>    S       -1.92366         8.86935        -7.10365
| 72>    C       -2.11365        11.61737        -7.15025
| 73>    C       -1.39850        11.74784        -8.32741
| 74>    C       -1.18630        13.08381        -8.66132
| 75>    C       -1.73981        13.97571        -7.72440
| 76>    S       -2.53066        13.16682        -6.44254
| 77>    C       -1.46458        15.29742        -8.14210
| 78>    C       -0.73434        15.24675        -9.35051
| 79>    C       -0.53977        13.85264        -9.71456
| 80>    C        0.11607        13.36540       -10.80555
| 81>    C        0.24398        11.98026       -11.04622
| 82>    N        0.35073        10.85604       -11.24189
| 83>    C        0.71748        14.21344       -11.76062
| 84>    N        1.21076        14.89668       -12.53733
| 85>    C       -0.39719        16.50517        -9.82607
| 86>    C       -0.88218        17.52776        -9.01660
| 87>    S       -1.73697        16.88822        -7.60984
| 88>    C       -0.62386        18.89819        -9.20729
| 89>    C       -1.15062        19.99551        -8.58901
| 90>    C       -0.36857        21.26130        -8.59338
| 91>    O        0.58515        21.52093        -9.28163
| 92>    C       -0.99043        22.08883        -7.52742
| 93>    C       -2.13167        21.43534        -7.02607
| 94>    C       -2.33367        20.20240        -7.78975
| 95>    C       -3.53236        19.55271        -7.93033
| 96>    C       -4.68643        19.85305        -7.17881
| 97>    N       -5.64190        20.04345        -6.57289
| 98>    C       -3.76181        18.57568        -8.92177
| 99>    N       -3.99242        17.81314        -9.74781
|100>    C       -2.87212        21.98736        -5.99623
|101>    C       -2.45541        23.20483        -5.47642
|102>    C       -1.33575        23.87372        -5.96780
|103>    C       -0.59284        23.30837        -7.00762
|104>    F        0.47529        23.94819        -7.46858
|105>    F       -0.97231        25.04636        -5.44479
|106>    F       -3.14334        23.75221        -4.47313
|107>    H       -5.67589        -5.32861         0.31061
|108>    H       -3.66346        -0.64232        -1.89014
|109>    H       -6.16251         1.04428         1.26588
|110>    H       -8.25119         1.67749         4.77548
|111>    H       -9.18629         3.00999         4.02895
|112>    H       -7.67992         3.37223         4.89597
|113>    H       -3.11362         3.99934        -4.53922
|114>    H       -0.25246         6.80894        -7.04470
|115>    H       -0.63309         2.70814        -9.66183
|116>    H       -2.40114         2.60727        -9.57918
|117>    H       -1.41836         1.80799        -8.35493
|118>    H       -6.73003         8.23311        -2.58015
|119>    H       -6.57970        12.33224         0.05769
|120>    H       -5.71054        13.25119        -1.18179
|121>    H       -4.81134        12.44516         0.10122
|122>    H       -3.70944        11.11820        -4.88655
|123>    H       -1.06107        10.90023        -8.89639
|124>    H        0.15703        16.69989       -10.72660
|125>    H        0.19522        19.11539        -9.88759
|126>    H       -3.74391        21.51039        -5.57933
|127> *
|128> 
|129>                          ****END OF INPUT****
================================================================================

                       ****************************
                       * Single Point Calculation *
                       ****************************

---------------------------------
CARTESIAN COORDINATES (ANGSTROEM)
---------------------------------
  C     -6.761460   -0.984590   -0.411900
  O     -7.421640    0.014460   -0.587330
  C     -7.256350   -2.307680    0.048600
  C     -6.217450   -3.252990   -0.012880
  C     -6.440040   -4.570170    0.349250
  C     -7.712210   -4.923070    0.777710
  C     -8.750730   -3.997650    0.851640
  C     -8.520010   -2.671580    0.477230
  F     -9.512420   -1.790120    0.553660
  F     -9.958670   -4.374370    1.278300
  F     -7.950110   -6.187650    1.132160
  C     -5.004150   -2.580400   -0.481260
  C     -3.763190   -3.156700   -0.580980
  C     -3.493780   -4.514450   -0.310490
  N     -3.214350   -5.609560   -0.111120
  C     -2.584370   -2.468410   -0.938750
  N     -1.582810   -1.972190   -1.201200
  C     -5.333770   -1.197390   -0.723640
  C     -4.526300   -0.273910   -1.348520
  C     -4.721520    1.109910   -1.416720
  S     -3.966920    1.988250   -2.734630
  C     -4.603470    3.517970   -2.215960
  C     -5.328320    3.347080   -1.046920
  C     -5.390750    2.008740   -0.574080
  C     -6.042290    1.931660    0.676270
  C     -6.501570    3.150190    1.086700
  C     -7.249460    3.482290    2.306710
  O     -7.629530    4.594470    2.575150
  O     -7.449020    2.408210    3.077080
  C     -8.188930    2.636980    4.269380
  S     -6.143030    4.460160   -0.003030
  C     -4.344020    4.710410   -2.933700
  C     -3.594240    4.840470   -4.074490
  C     -3.497190    6.168420   -4.538580
  C     -2.764970    6.650080   -5.647160
  C     -2.090020    5.768920   -6.574880
  C     -0.901300    5.971110   -7.218760
  C     -0.574870    4.925390   -8.107850
  C     -1.504310    3.926420   -8.170690
  S     -2.814270    4.268590   -7.094660
  C     -1.488200    2.690310   -8.991080
  Cl     0.876150    4.926960   -9.032360
  C     -2.739750    8.030480   -5.812890
  C     -3.420750    8.936680   -4.958610
  C     -4.180330    8.453130   -3.871510
  C     -4.193340    7.073200   -3.695440
  S     -4.982780    6.242310   -2.382690
  C     -4.900800    9.320590   -2.964150
  C     -6.109970    9.084850   -2.372100
  C     -6.499370   10.114030   -1.488820
  C     -5.598840   11.134730   -1.379520
  S     -4.236660   10.832950   -2.402570
  C     -5.679820   12.362880   -0.551100
  Cl    -7.986680   10.066430   -0.625620
  C     -3.262400   10.275190   -5.380430
  C     -2.490030   10.411530   -6.501100
  S     -1.923660    8.869350   -7.103650
  C     -2.113650   11.617370   -7.150250
  C     -1.398500   11.747840   -8.327410
  C     -1.186300   13.083810   -8.661320
  C     -1.739810   13.975710   -7.724400
  S     -2.530660   13.166820   -6.442540
  C     -1.464580   15.297420   -8.142100
  C     -0.734340   15.246750   -9.350510
  C     -0.539770   13.852640   -9.714560
  C      0.116070   13.365400  -10.805550
  C      0.243980   11.980260  -11.046220
  N      0.350730   10.856040  -11.241890
  C      0.717480   14.213440  -11.760620
  N      1.210760   14.896680  -12.537330
  C     -0.397190   16.505170   -9.826070
  C     -0.882180   17.527760   -9.016600
  S     -1.736970   16.888220   -7.609840
  C     -0.623860   18.898190   -9.207290
  C     -1.150620   19.995510   -8.589010
  C     -0.368570   21.261300   -8.593380
  O      0.585150   21.520930   -9.281630
  C     -0.990430   22.088830   -7.527420
  C     -2.131670   21.435340   -7.026070
  C     -2.333670   20.202400   -7.789750
  C     -3.532360   19.552710   -7.930330
  C     -4.686430   19.853050   -7.178810
  N     -5.641900   20.043450   -6.572890
  C     -3.761810   18.575680   -8.921770
  N     -3.992420   17.813140   -9.747810
  C     -2.872120   21.987360   -5.996230
  C     -2.455410   23.204830   -5.476420
  C     -1.335750   23.873720   -5.967800
  C     -0.592840   23.308370   -7.007620
  F      0.475290   23.948190   -7.468580
  F     -0.972310   25.046360   -5.444790
  F     -3.143340   23.752210   -4.473130
  H     -5.675890   -5.328610    0.310610
  H     -3.663460   -0.642320   -1.890140
  H     -6.162510    1.044280    1.265880
  H     -8.251190    1.677490    4.775480
  H     -9.186290    3.009990    4.028950
  H     -7.679920    3.372230    4.895970
  H     -3.113620    3.999340   -4.539220
  H     -0.252460    6.808940   -7.044700
  H     -0.633090    2.708140   -9.661830
  H     -2.401140    2.607270   -9.579180
  H     -1.418360    1.807990   -8.354930
  H     -6.730030    8.233110   -2.580150
  H     -6.579700   12.332240    0.057690
  H     -5.710540   13.251190   -1.181790
  H     -4.811340   12.445160    0.101220
  H     -3.709440   11.118200   -4.886550
  H     -1.061070   10.900230   -8.896390
  H      0.157030   16.699890  -10.726600
  H      0.195220   19.115390   -9.887590
  H     -3.743910   21.510390   -5.579330

----------------------------
CARTESIAN COORDINATES (A.U.)
----------------------------
  NO LB      ZA    FRAG     MASS         X           Y           Z
   0 C     6.0000    0    12.011  -12.777308   -1.860605   -0.778378
   1 O     8.0000    0    15.999  -14.024867    0.027325   -1.109893
   2 C     6.0000    0    12.011  -13.712514   -4.360883    0.091841
   3 C     6.0000    0    12.011  -11.749278   -6.147260   -0.024340
   4 C     6.0000    0    12.011  -12.169912   -8.636370    0.659987
   5 C     6.0000    0    12.011  -14.573965   -9.303254    1.469659
   6 C     6.0000    0    12.011  -16.536483   -7.554464    1.609366
   7 C     6.0000    0    12.011  -16.100486   -5.048555    0.901834
   8 F     9.0000    0    18.998  -17.975869   -3.382837    1.046266
   9 F     9.0000    0    18.998  -18.819159   -8.266361    2.415637
  10 F     9.0000    0    18.998  -15.023531  -11.692964    2.139472
  11 C     6.0000    0    12.011   -9.456473   -4.876249   -0.909450
  12 C     6.0000    0    12.011   -7.111398   -5.965298   -1.097893
  13 C     6.0000    0    12.011   -6.602287   -8.531074   -0.586741
  14 N     7.0000    0    14.007   -6.074241  -10.600532   -0.209986
  15 C     6.0000    0    12.011   -4.883752   -4.664619   -1.773980
  16 N     7.0000    0    14.007   -2.991077   -3.726899   -2.269939
  17 C     6.0000    0    12.011  -10.079365   -2.262739   -1.367481
  18 C     6.0000    0    12.011   -8.553467   -0.517615   -2.548333
  19 C     6.0000    0    12.011   -8.922380    2.097426   -2.677213
  20 S    16.0000    0    32.060   -7.496392    3.757248   -5.167702
  21 C     6.0000    0    12.011   -8.699298    6.648000   -4.187558
  22 C     6.0000    0    12.011  -10.069066    6.325065   -1.978392
  23 C     6.0000    0    12.011  -10.187041    3.795968   -1.084854
  24 C     6.0000    0    12.011  -11.418273    3.650308    1.277965
  25 C     6.0000    0    12.011  -12.286187    5.952996    2.053565
  26 C     6.0000    0    12.011  -13.699494    6.580574    4.359050
  27 O     8.0000    0    15.999  -14.417722    8.682290    4.866328
  28 O     8.0000    0    15.999  -14.076608    4.550857    5.814838
  29 C     6.0000    0    12.011  -15.474835    4.983170    8.067959
  30 S    16.0000    0    32.060  -11.608644    8.428481   -0.005726
  31 C     6.0000    0    12.011   -8.209008    8.901385   -5.543890
  32 C     6.0000    0    12.011   -6.792129    9.147163   -7.699670
  33 C     6.0000    0    12.011   -6.608731   11.656624   -8.576673
  34 C     6.0000    0    12.011   -5.225036   12.566830  -10.671586
  35 C     6.0000    0    12.011   -3.949565   10.901679  -12.424723
  36 C     6.0000    0    12.011   -1.703210   11.283763  -13.641479
  37 C     6.0000    0    12.011   -1.086347    9.307638  -15.321616
  38 C     6.0000    0    12.011   -2.842734    7.419858  -15.440366
  39 S    16.0000    0    32.060   -5.318200    8.066466  -13.406964
  40 C     6.0000    0    12.011   -2.812290    5.083949  -16.990679
  41 Cl   17.0000    0    35.453    1.655684    9.310605  -17.068687
  42 C     6.0000    0    12.011   -5.177377   15.175408  -10.984770
  43 C     6.0000    0    12.011   -6.464281   16.887878   -9.370415
  44 C     6.0000    0    12.011   -7.899679   15.974101   -7.316094
  45 C     6.0000    0    12.011   -7.924264   13.366411   -6.983370
  46 S    16.0000    0    32.060   -9.416090   11.796256   -4.502632
  47 C     6.0000    0    12.011   -9.261170   17.613363   -5.601432
  48 C     6.0000    0    12.011  -11.546170   17.167878   -4.482619
  49 C     6.0000    0    12.011  -12.282029   19.112747   -2.813462
  50 C     6.0000    0    12.011  -10.580274   21.041590   -2.606915
  51 S    16.0000    0    32.060   -8.006127   20.471309   -4.540199
  52 C     6.0000    0    12.011  -10.733304   23.362457   -1.041428
  53 Cl   17.0000    0    35.453  -15.092638   19.022796   -1.182250
  54 C     6.0000    0    12.011   -6.165043   19.417295  -10.167539
  55 C     6.0000    0    12.011   -4.705475   19.674940  -12.285299
  56 S    16.0000    0    32.060   -3.635191   16.760642  -13.423953
  57 C     6.0000    0    12.011   -3.994220   21.953648  -13.512014
  58 C     6.0000    0    12.011   -2.642782   22.200200  -15.736524
  59 C     6.0000    0    12.011   -2.241782   24.724818  -16.367523
  60 C     6.0000    0    12.011   -3.287764   26.410264  -14.597001
  61 S    16.0000    0    32.060   -4.782254   24.881684  -12.174636
  62 C     6.0000    0    12.011   -2.767655   28.907934  -15.386339
  63 C     6.0000    0    12.011   -1.387701   28.812182  -17.669903
  64 C     6.0000    0    12.011   -1.020017   26.177696  -18.357858
  65 C     6.0000    0    12.011    0.219341   25.256946  -20.419530
  66 C     6.0000    0    12.011    0.461055   22.639410  -20.874331
  67 N     7.0000    0    14.007    0.662784   20.514942  -21.244093
  68 C     6.0000    0    12.011    1.355841   26.859509  -22.224351
  69 N     7.0000    0    14.007    2.288005   28.150646  -23.692120
  70 C     6.0000    0    12.011   -0.750580   31.190251  -18.568581
  71 C     6.0000    0    12.011   -1.667079   33.122666  -17.038905
  72 S    16.0000    0    32.060   -3.282398   31.914111  -14.380514
  73 C     6.0000    0    12.011   -1.178925   35.712404  -17.399257
  74 C     6.0000    0    12.011   -2.174357   37.786038  -16.230877
  75 C     6.0000    0    12.011   -0.696496   40.178034  -16.239135
  76 O     8.0000    0    15.999    1.105773   40.668664  -17.539739
  77 C     6.0000    0    12.011   -1.871641   41.741839  -14.224762
  78 C     6.0000    0    12.011   -4.028273   40.506922  -13.277348
  79 C     6.0000    0    12.011   -4.409997   38.177003  -14.720494
  80 C     6.0000    0    12.011   -6.675193   36.949267  -14.986152
  81 C     6.0000    0    12.011   -8.856069   37.516827  -13.565985
  82 N     7.0000    0    14.007  -10.661646   37.876631  -12.420962
  83 C     6.0000    0    12.011   -7.108791   35.102948  -16.859702
  84 N     7.0000    0    14.007   -7.544580   33.661956  -18.420691
  85 C     6.0000    0    12.011   -5.427520   41.550089  -11.331233
  86 C     6.0000    0    12.011   -4.640052   43.850774  -10.348934
  87 C     6.0000    0    12.011   -2.524202   45.114793  -11.277508
  88 C     6.0000    0    12.011   -1.120305   44.046436  -13.242483
  89 F     9.0000    0    18.998    0.898168   45.255521  -14.113571
  90 F     9.0000    0    18.998   -1.837400   47.330761  -10.289162
  91 F     9.0000    0    18.998   -5.940052   44.885172   -8.452991
  92 H     1.0000    0     1.008  -10.725878  -10.069614    0.586968
  93 H     1.0000    0     1.008   -6.922936   -1.213809   -3.571847
  94 H     1.0000    0     1.008  -11.645456    1.973403    2.392167
  95 H     1.0000    0     1.008  -15.592489    3.169997    9.024349
  96 H     1.0000    0     1.008  -17.359572    5.688057    7.613612
  97 H     1.0000    0     1.008  -14.512946    6.372591    9.252042
  98 H     1.0000    0     1.008   -5.883889    7.557657   -8.577883
  99 H     1.0000    0     1.008   -0.477080   12.867032  -13.312554
 100 H     1.0000    0     1.008   -1.196367    5.117643  -18.258213
 101 H     1.0000    0     1.008   -4.537497    4.927026  -18.102027
 102 H     1.0000    0     1.008   -2.680312    3.416606  -15.788530
 103 H     1.0000    0     1.008  -12.717914   15.558323   -4.875777
 104 H     1.0000    0     1.008  -12.433831   23.304556    0.109018
 105 H     1.0000    0     1.008  -10.791357   25.041120   -2.233259
 106 H     1.0000    0     1.008   -9.092115   23.517944    0.191278
 107 H     1.0000    0     1.008   -7.009826   21.010353   -9.234241
 108 H     1.0000    0     1.008   -2.005132   20.598449  -16.811741
 109 H     1.0000    0     1.008    0.296744   31.558219  -20.270336
 110 H     1.0000    0     1.008    0.368912   36.122852  -18.684837
 111 H     1.0000    0     1.008   -7.074965   40.648746  -10.543406

--------------------------------
INTERNAL COORDINATES (ANGSTROEM)
--------------------------------
 C      0   0   0     0.000000000000     0.00000000     0.00000000
 O      1   0   0     1.210253783221     0.00000000     0.00000000
 C      1   2   0     1.485780438086   126.75047390     0.00000000
 C      3   1   2     1.405953056293   109.81968107   173.46956367
 C      4   3   1     1.384069216983   120.63656546   180.92794773
 C      5   4   3     1.387995998013   118.04289867   359.72027557
 C      6   5   4     1.392979401032   122.05931887   359.92070559
 C      3   1   2     1.383106461014   129.39504997   354.18433553
 F      8   3   1     1.329545367635   121.69173988   358.61353920
 F      7   6   5     1.335318597789   120.26187795   180.48525292
 F      6   5   4     1.334688648674   119.09399023   180.00771090
 C      4   3   1     1.464190569052   108.50849046     1.37003616
 C     12   4   3     1.371877359679   125.44038423   175.28690626
 C     13  12   4     1.410401237485   124.28064351     3.58377444
 N     14  13  12     1.147647783033   176.78382278   174.05909326
 C     13  12   4     1.411155232212   124.69270584   184.99323332
 N     16  13  12     1.148144905707   175.91721842   164.50507620
 C     12   4   3     1.442260055919   107.75004189   359.20668578
 C     18  12   4     1.376698269666   125.83613679   189.78572104
 C     19  18  12     1.399185434744   127.13653808   190.71833942
 S     20  19  18     1.754362871159   118.14896155   203.56650372
 C     21  20  19     1.736161786758    93.38255938   179.69550765
 C     22  21  20     1.386097195798   109.57662105     1.94907500
 C     20  19  18     1.402072156274   132.17020525    26.66293912
 C     24  20  19     1.412027202465   135.84274851     4.92033475
 C     25  24  20     1.365359390124   111.88090569   177.82956682
 C     26  25  24     1.469031743088   128.51024980   178.62213585
 O     27  26  25     1.205594289510   123.63952692   181.00859843
 O     27  26  25     1.336765490615   111.89845777     1.26418553
 C     29  27  26     1.421753076663   115.57494944   181.12734568
 S     23  22  21     1.729857162485   132.52531584   176.99159051
 C     22  21  20     1.415760630792   121.56509476   180.85754294
 C     32  22  21     1.371308672801   127.00070639   359.74563670
 C     33  32  22     1.410052989465   113.62543476   181.29534468
 C     34  33  32     1.413185090637   127.94002414   177.40075229
 C     35  34  33     1.446604592313   122.49441214     6.60601134
 C     36  35  34     1.366937265898   128.15036889   215.69800763
 C     37  36  35     1.410874867378   112.85522229   183.04561237
 C     38  37  36     1.365924097489   114.43274429     0.76030143
 S     39  38  37     1.729426515178   110.00391298   359.40614872
 C     39  38  37     1.483666814450   128.85648536   179.86387087
 Cl    38  37  36     1.720517435366   122.21296738   180.58169908
 C     35  34  33     1.390541851689   116.18293952   185.81414016
 C     43  35  34     1.419420219104   123.59651315   358.62478977
 C     44  43  35     1.411583787418   120.19677795   359.79459116
 C     45  44  43     1.391178173312   116.25006934     0.92358748
 S     46  45  44     1.742672163145   124.92549717   176.55293113
 C     45  44  43     1.447365206885   123.04835686   180.12854496
 C     48  45  44     1.366816973483   127.48450796   143.81523737
 C     49  48  45     1.411037699992   112.92262821   177.10466542
 C     50  49  48     1.365550900150   114.41216140   359.28784707
 S     51  50  49     1.730097345036   109.96910663     0.54312455
 C     51  50  49     1.483640751429   128.86182265   180.11260921
 Cl    50  49  48     1.720311319529   122.17490219   179.49860084
 C     44  43  35     1.412308696780   111.80932609   181.95199782
 C     55  44  43     1.367861565145   113.73298887   359.58680180
 S     43  35  34     1.742345299474   125.08122941   180.61335130
 C     56  55  44     1.420249179722   127.49808001   181.86121512
 C     58  56  55     1.383534462527   127.29641938   184.13908747
 C     59  58  56     1.393319980837   111.90363483   181.13372203
 C     60  59  58     1.407010311441   112.84941169     0.32215469
 S     61  60  59     1.709652541951   112.41624032   359.52629053
 C     61  60  59     1.413202804625   108.62807397   179.52523742
 C     63  61  60     1.412824346690   108.65842460     0.06822576
 C     64  63  61     1.453936924182   108.52501059     0.06880568
 C     65  64  63     1.363007007796   127.41438544   180.21268108
 C     66  65  64     1.411699626904   122.05988929   179.65586802
 N     67  66  65     1.146103363489   179.85322985   232.66915625
 C     66  65  64     1.411745208811   122.12371182     0.08806228
 N     69  66  65     1.146045583779   179.63091939   150.03445849
 C     64  63  61     1.386884397670   112.73024666   181.07269938
 C     71  64  63     1.391455097766   112.49627619   358.69246096
 S     63  61  60     1.699453341431   138.73583955   181.05371377
 C     72  71  64     1.407540508618   124.94220939   175.85466513
 C     74  72  71     1.365231642763   130.57203769   171.68482463
 C     75  74  72     1.487899735701   118.66240922   156.92600516
 O     76  75  74     1.204440798794   126.95983654    14.29298625
 C     76  75  74     1.485862201585   104.57902832   196.72521448
 C     78  76  75     1.407419532407   109.65297192   354.29537391
 C     75  74  72     1.442645944853   133.04565505   342.65873711
 C     80  75  74     1.370663178392   126.32516608   327.09604443
 C     81  80  75     1.409561630756   124.07929760   184.29829094
 N     82  81  80     1.147307337770   177.16777358   208.91996361
 C     81  80  75     1.410740301048   122.86025441   359.33737472
 N     84  81  80     1.147601980349   177.10838895   237.74595596
 C     79  78  76     1.383315838303   120.92694369   178.31626791
 C     86  79  78     1.387833873740   117.91683403     0.11651866
 C     87  86  79     1.393738372902   122.01718560     0.51316562
 C     78  76  75     1.384033113657   129.78811508   173.18255216
 F     89  78  76     1.327688009624   121.69153488     1.60938776
 F     88  87  86     1.334433461548   120.15572288   179.64729982
 F     87  86  79     1.333965281932   119.13216963   180.71060153
 H      5   4   3     1.077334444683   123.12851392   179.52602008
 H     19  18  12     1.083314828709   117.77297737    13.68986902
 H     25  24  20     1.072164196800   125.72370683   358.92297838
 H     30  29  27     1.086570097923   106.16108223   180.51216976
 H     30  29  27     1.091636393036   110.22792028    60.68932343
 H     30  29  27     1.091924342938   110.30258421   300.52693090
 H     33  32  22     1.074462300037   122.01503537   359.78018477
 H     37  36  35     1.073894472516   124.36570756     5.66452916
 H     41  39  38     1.086939089140   109.63940735   354.29317265
 H     41  39  38     1.089135756093   110.67063917   233.87774638
 H     41  39  38     1.089978454145   110.63379042   114.35067297
 H     49  48  45     1.073880921564   124.31079077   354.49968363
 H     53  51  50     1.086898379841   109.54862134     3.78449421
 H     53  51  50     1.089866161783   110.67845789   243.70155698
 H     53  51  50     1.089288249822   110.69478947   124.10607081
 H     55  44  43     1.074443146984   124.03258738   178.86323623
 H     59  58  56     1.075192986119   122.55650790     1.22494878
 H     71  64  63     1.075188340571   125.22807377   179.94533815
 H     74  72  71     1.086681175138   114.69261547   344.96652534
 H     86  79  78     1.077647342594   122.98406719   180.75559245

---------------------------
INTERNAL COORDINATES (A.U.)
---------------------------
 C      0   0   0     0.000000000000     0.00000000     0.00000000
 O      1   0   0     2.287048202829     0.00000000     0.00000000
 C      1   2   0     2.807718123121   126.75047390     0.00000000
 C      3   1   2     2.656866233544   109.81968107   173.46956367
 C      4   3   1     2.615511770489   120.63656546   180.92794773
 C      5   4   3     2.622932311223   118.04289867   359.72027557
 C      6   5   4     2.632349578145   122.05931887   359.92070559
 C      3   1   2     2.613692425374   129.39504997   354.18433553
 F      8   3   1     2.512476627454   121.69173988   358.61353920
 F      7   6   5     2.523386451352   120.26187795   180.48525292
 F      6   5   4     2.522196020048   119.09399023   180.00771090
 C      4   3   1     2.766919183378   108.50849046     1.37003616
 C     12   4   3     2.592472499120   125.44038423   175.28690626
 C     13  12   4     2.665272077791   124.28064351     3.58377444
 N     14  13  12     2.168740008134   176.78382278   174.05909326
 C     13  12   4     2.666696921331   124.69270584   184.99323332
 N     16  13  12     2.169679433842   175.91721842   164.50507620
 C     12   4   3     2.725476519581   107.75004189   359.20668578
 C     18  12   4     2.601582698711   125.83613679   189.78572104
 C     19  18  12     2.644077282238   127.13653808   190.71833942
 S     20  19  18     3.315265366010   118.14896155   203.56650372
 C     21  20  19     3.280870301153    93.38255938   179.69550765
 C     22  21  20     2.619344095055   109.57662105     1.94907500
 C     20  19  18     2.649532395355   132.17020525    26.66293912
 C     24  20  19     2.668344706305   135.84274851     4.92033475
 C     25  24  20     2.580155321712   111.88090569   177.82956682
 C     26  25  24     2.776067676473   128.51024980   178.62213585
 O     27  26  25     2.278243035794   123.63952692   181.00859843
 O     27  26  25     2.526120682540   111.89845777     1.26418553
 C     29  27  26     2.686723944953   115.57494944   181.12734568
 S     23  22  21     3.268956287898   132.52531584   176.99159051
 C     22  21  20     2.675399863384   121.56509476   180.85754294
 C     32  22  21     2.591397836665   127.00070639   359.74563670
 C     33  32  22     2.664613984406   113.62543476   181.29534468
 C     34  33  32     2.670532797845   127.94002414   177.40075229
 C     35  34  33     2.733686503544   122.49441214     6.60601134
 C     36  35  34     2.583137074798   128.15036889   215.69800763
 C     37  36  35     2.666167108578   112.85522229   183.04561237
 C     38  37  36     2.581222463977   114.43274429     0.76030143
 S     39  38  37     3.268142482428   110.00391298   359.40614872
 C     39  38  37     2.803723953298   128.85648536   179.86387087
 Cl    38  37  36     3.251306761479   122.21296738   180.58169908
 C     35  34  33     2.627743277449   116.18293952   185.81414016
 C     43  35  34     2.682315483056   123.59651315   358.62478977
 C     44  43  35     2.667506773302   120.19677795   359.79459116
 C     45  44  43     2.628945751049   116.25006934     0.92358748
 S     46  45  44     3.293173129552   124.92549717   176.55293113
 C     45  44  43     2.735123856778   123.04835686   180.12854496
 C     48  45  44     2.582909755077   127.48450796   143.81523737
 C     49  48  45     2.666474817624   112.92262821   177.10466542
 C     50  49  48     2.580517223213   114.41216140   359.28784707
 S     51  50  49     3.269410167142   109.96910663     0.54312455
 C     51  50  49     2.803674701325   128.86182265   180.11260921
 Cl    50  49  48     3.250917258995   122.17490219   179.49860084
 C     44  43  35     2.668876653469   111.80932609   181.95199782
 C     55  44  43     2.584883747240   113.73298887   359.58680180
 S     43  35  34     3.292555446731   125.08122941   180.61335130
 C     56  55  44     2.683881991600   127.49808001   181.86121512
 C     58  56  55     2.614501231018   127.29641938   184.13908747
 C     59  58  56     2.632993180703   111.90363483   181.13372203
 C     60  59  58     2.658864156226   112.84941169     0.32215469
 S     61  60  59     3.230775088450   112.41624032   359.52629053
 C     61  60  59     2.670566272431   108.62807397   179.52523742
 C     63  61  60     2.669851090580   108.65842460     0.06822576
 C     64  63  61     2.747542602700   108.52501059     0.06880568
 C     65  64  63     2.575709963349   127.41438544   180.21268108
 C     66  65  64     2.667725678207   122.05988929   179.65586802
 N     67  66  65     2.165821478160   179.85322985   232.66915625
 C     66  65  64     2.667811815528   122.12371182     0.08806228
 N     69  66  65     2.165712290333   179.63091939   150.03445849
 C     64  63  61     2.620831691004   112.73024666   181.07269938
 C     71  64  63     2.629469062427   112.49627619   358.69246096
 S     63  61  60     3.211501392681   138.73583955   181.05371377
 C     72  71  64     2.659866083688   124.94220939   175.85466513
 C     74  72  71     2.579913914185   130.57203769   171.68482463
 C     75  74  72     2.811723015209   118.66240922   156.92600516
 O     76  75  74     2.276063254242   126.95983654    14.29298625
 C     76  75  74     2.807872633742   104.57902832   196.72521448
 C     78  76  75     2.659637471780   109.65297192   354.29537391
 C     75  74  72     2.726205743984   133.04565505   342.65873711
 C     80  75  74     2.590178029011   126.32516608   327.09604443
 C     81  80  75     2.663685451013   124.07929760   184.29829094
 N     82  81  80     2.168096659823   177.16777358   208.91996361
 C     81  80  75     2.665912815066   122.86025441   359.33737472
 N     84  81  80     2.168653453605   177.10838895   237.74595596
 C     79  78  76     2.614088091108   120.92694369   178.31626791
 C     86  79  78     2.622625940748   117.91683403     0.11651866
 C     87  86  79     2.633783827122   122.01718560     0.51316562
 C     78  76  75     2.615443545091   129.78811508   173.18255216
 F     89  78  76     2.508966729481   121.69153488     1.60938776
 F     88  87  86     2.521713786267   120.15572288   179.64729982
 F     87  86  79     2.520829055011   119.13216963   180.71060153
 H      5   4   3     2.035867055091   123.12851392   179.52602008
 H     19  18  12     2.047168343075   117.77297737    13.68986902
 H     25  24  20     2.026096702548   125.72370683   358.92297838
 H     30  29  27     2.053319910382   106.16108223   180.51216976
 H     30  29  27     2.062893820659   110.22792028    60.68932343
 H     30  29  27     2.063437967114   110.30258421   300.52693090
 H     33  32  22     2.030439488292   122.01503537   359.78018477
 H     37  36  35     2.029366449787   124.36570756     5.66452916
 H     41  39  38     2.054017202728   109.63940735   354.29317265
 H     41  39  38     2.058168301677   110.67063917   233.87774638
 H     41  39  38     2.059760770209   110.63379042   114.35067297
 H     49  48  45     2.029340842200   124.31079077   354.49968363
 H     53  51  50     2.053940273301   109.54862134     3.78449421
 H     53  51  50     2.059548568398   110.67845789   243.70155698
 H     53  51  50     2.058456473062   110.69478947   124.10607081
 H     55  44  43     2.030403294267   124.03258738   178.86323623
 H     59  58  56     2.031820284878   122.55650790     1.22494878
 H     71  64  63     2.031811506065   125.22807377   179.94533815
 H     74  72  71     2.053529815899   114.69261547   344.96652534
 H     86  79  78     2.036458346451   122.98406719   180.75559245

---------------------
BASIS SET INFORMATION
---------------------
There are 7 groups of distinct atoms

 Group   1 Type C   : 7s4p1d contracted to 3s2p1d pattern {511/31/1}
 Group   2 Type O   : 7s4p1d contracted to 3s2p1d pattern {511/31/1}
 Group   3 Type F   : 7s4p1d contracted to 3s2p1d pattern {511/31/1}
 Group   4 Type N   : 7s4p1d contracted to 3s2p1d pattern {511/31/1}
 Group   5 Type S   : 10s7p1d contracted to 4s3p1d pattern {5311/511/1}
 Group   6 Type Cl  : 10s7p1d contracted to 4s3p1d pattern {5311/511/1}
 Group   7 Type H   : 4s1p contracted to 2s1p pattern {31/1}

Atom   0C    basis set group =>   1
Atom   1O    basis set group =>   2
Atom   2C    basis set group =>   1
Atom   3C    basis set group =>   1
Atom   4C    basis set group =>   1
Atom   5C    basis set group =>   1
Atom   6C    basis set group =>   1
Atom   7C    basis set group =>   1
Atom   8F    basis set group =>   3
Atom   9F    basis set group =>   3
Atom  10F    basis set group =>   3
Atom  11C    basis set group =>   1
Atom  12C    basis set group =>   1
Atom  13C    basis set group =>   1
Atom  14N    basis set group =>   4
Atom  15C    basis set group =>   1
Atom  16N    basis set group =>   4
Atom  17C    basis set group =>   1
Atom  18C    basis set group =>   1
Atom  19C    basis set group =>   1
Atom  20S    basis set group =>   5
Atom  21C    basis set group =>   1
Atom  22C    basis set group =>   1
Atom  23C    basis set group =>   1
Atom  24C    basis set group =>   1
Atom  25C    basis set group =>   1
Atom  26C    basis set group =>   1
Atom  27O    basis set group =>   2
Atom  28O    basis set group =>   2
Atom  29C    basis set group =>   1
Atom  30S    basis set group =>   5
Atom  31C    basis set group =>   1
Atom  32C    basis set group =>   1
Atom  33C    basis set group =>   1
Atom  34C    basis set group =>   1
Atom  35C    basis set group =>   1
Atom  36C    basis set group =>   1
Atom  37C    basis set group =>   1
Atom  38C    basis set group =>   1
Atom  39S    basis set group =>   5
Atom  40C    basis set group =>   1
Atom  41Cl   basis set group =>   6
Atom  42C    basis set group =>   1
Atom  43C    basis set group =>   1
Atom  44C    basis set group =>   1
Atom  45C    basis set group =>   1
Atom  46S    basis set group =>   5
Atom  47C    basis set group =>   1
Atom  48C    basis set group =>   1
Atom  49C    basis set group =>   1
Atom  50C    basis set group =>   1
Atom  51S    basis set group =>   5
Atom  52C    basis set group =>   1
Atom  53Cl   basis set group =>   6
Atom  54C    basis set group =>   1
Atom  55C    basis set group =>   1
Atom  56S    basis set group =>   5
Atom  57C    basis set group =>   1
Atom  58C    basis set group =>   1
Atom  59C    basis set group =>   1
Atom  60C    basis set group =>   1
Atom  61S    basis set group =>   5
Atom  62C    basis set group =>   1
Atom  63C    basis set group =>   1
Atom  64C    basis set group =>   1
Atom  65C    basis set group =>   1
Atom  66C    basis set group =>   1
Atom  67N    basis set group =>   4
Atom  68C    basis set group =>   1
Atom  69N    basis set group =>   4
Atom  70C    basis set group =>   1
Atom  71C    basis set group =>   1
Atom  72S    basis set group =>   5
Atom  73C    basis set group =>   1
Atom  74C    basis set group =>   1
Atom  75C    basis set group =>   1
Atom  76O    basis set group =>   2
Atom  77C    basis set group =>   1
Atom  78C    basis set group =>   1
Atom  79C    basis set group =>   1
Atom  80C    basis set group =>   1
Atom  81C    basis set group =>   1
Atom  82N    basis set group =>   4
Atom  83C    basis set group =>   1
Atom  84N    basis set group =>   4
Atom  85C    basis set group =>   1
Atom  86C    basis set group =>   1
Atom  87C    basis set group =>   1
Atom  88C    basis set group =>   1
Atom  89F    basis set group =>   3
Atom  90F    basis set group =>   3
Atom  91F    basis set group =>   3
Atom  92H    basis set group =>   7
Atom  93H    basis set group =>   7
Atom  94H    basis set group =>   7
Atom  95H    basis set group =>   7
Atom  96H    basis set group =>   7
Atom  97H    basis set group =>   7
Atom  98H    basis set group =>   7
Atom  99H    basis set group =>   7
Atom 100H    basis set group =>   7
Atom 101H    basis set group =>   7
Atom 102H    basis set group =>   7
Atom 103H    basis set group =>   7
Atom 104H    basis set group =>   7
Atom 105H    basis set group =>   7
Atom 106H    basis set group =>   7
Atom 107H    basis set group =>   7
Atom 108H    basis set group =>   7
Atom 109H    basis set group =>   7
Atom 110H    basis set group =>   7
Atom 111H    basis set group =>   7
---------------------------------
AUXILIARY/J BASIS SET INFORMATION
---------------------------------
There are 7 groups of distinct atoms

 Group   1 Type C   : 12s5p4d2f1g contracted to 6s4p3d1f1g pattern {711111/2111/211/2/1}
 Group   2 Type O   : 12s5p4d2f1g contracted to 6s4p3d1f1g pattern {711111/2111/211/2/1}
 Group   3 Type F   : 12s5p4d2f1g contracted to 6s4p3d1f1g pattern {711111/2111/211/2/1}
 Group   4 Type N   : 12s5p4d2f1g contracted to 6s4p3d1f1g pattern {711111/2111/211/2/1}
 Group   5 Type S   : 14s5p5d2f1g contracted to 8s4p3d1f1g pattern {71111111/2111/311/2/1}
 Group   6 Type Cl  : 14s5p5d2f1g contracted to 8s4p3d1f1g pattern {71111111/2111/311/2/1}
 Group   7 Type H   : 5s2p1d contracted to 3s1p1d pattern {311/2/1}

Atom   0C    basis set group =>   1
Atom   1O    basis set group =>   2
Atom   2C    basis set group =>   1
Atom   3C    basis set group =>   1
Atom   4C    basis set group =>   1
Atom   5C    basis set group =>   1
Atom   6C    basis set group =>   1
Atom   7C    basis set group =>   1
Atom   8F    basis set group =>   3
Atom   9F    basis set group =>   3
Atom  10F    basis set group =>   3
Atom  11C    basis set group =>   1
Atom  12C    basis set group =>   1
Atom  13C    basis set group =>   1
Atom  14N    basis set group =>   4
Atom  15C    basis set group =>   1
Atom  16N    basis set group =>   4
Atom  17C    basis set group =>   1
Atom  18C    basis set group =>   1
Atom  19C    basis set group =>   1
Atom  20S    basis set group =>   5
Atom  21C    basis set group =>   1
Atom  22C    basis set group =>   1
Atom  23C    basis set group =>   1
Atom  24C    basis set group =>   1
Atom  25C    basis set group =>   1
Atom  26C    basis set group =>   1
Atom  27O    basis set group =>   2
Atom  28O    basis set group =>   2
Atom  29C    basis set group =>   1
Atom  30S    basis set group =>   5
Atom  31C    basis set group =>   1
Atom  32C    basis set group =>   1
Atom  33C    basis set group =>   1
Atom  34C    basis set group =>   1
Atom  35C    basis set group =>   1
Atom  36C    basis set group =>   1
Atom  37C    basis set group =>   1
Atom  38C    basis set group =>   1
Atom  39S    basis set group =>   5
Atom  40C    basis set group =>   1
Atom  41Cl   basis set group =>   6
Atom  42C    basis set group =>   1
Atom  43C    basis set group =>   1
Atom  44C    basis set group =>   1
Atom  45C    basis set group =>   1
Atom  46S    basis set group =>   5
Atom  47C    basis set group =>   1
Atom  48C    basis set group =>   1
Atom  49C    basis set group =>   1
Atom  50C    basis set group =>   1
Atom  51S    basis set group =>   5
Atom  52C    basis set group =>   1
Atom  53Cl   basis set group =>   6
Atom  54C    basis set group =>   1
Atom  55C    basis set group =>   1
Atom  56S    basis set group =>   5
Atom  57C    basis set group =>   1
Atom  58C    basis set group =>   1
Atom  59C    basis set group =>   1
Atom  60C    basis set group =>   1
Atom  61S    basis set group =>   5
Atom  62C    basis set group =>   1
Atom  63C    basis set group =>   1
Atom  64C    basis set group =>   1
Atom  65C    basis set group =>   1
Atom  66C    basis set group =>   1
Atom  67N    basis set group =>   4
Atom  68C    basis set group =>   1
Atom  69N    basis set group =>   4
Atom  70C    basis set group =>   1
Atom  71C    basis set group =>   1
Atom  72S    basis set group =>   5
Atom  73C    basis set group =>   1
Atom  74C    basis set group =>   1
Atom  75C    basis set group =>   1
Atom  76O    basis set group =>   2
Atom  77C    basis set group =>   1
Atom  78C    basis set group =>   1
Atom  79C    basis set group =>   1
Atom  80C    basis set group =>   1
Atom  81C    basis set group =>   1
Atom  82N    basis set group =>   4
Atom  83C    basis set group =>   1
Atom  84N    basis set group =>   4
Atom  85C    basis set group =>   1
Atom  86C    basis set group =>   1
Atom  87C    basis set group =>   1
Atom  88C    basis set group =>   1
Atom  89F    basis set group =>   3
Atom  90F    basis set group =>   3
Atom  91F    basis set group =>   3
Atom  92H    basis set group =>   7
Atom  93H    basis set group =>   7
Atom  94H    basis set group =>   7
Atom  95H    basis set group =>   7
Atom  96H    basis set group =>   7
Atom  97H    basis set group =>   7
Atom  98H    basis set group =>   7
Atom  99H    basis set group =>   7
Atom 100H    basis set group =>   7
Atom 101H    basis set group =>   7
Atom 102H    basis set group =>   7
Atom 103H    basis set group =>   7
Atom 104H    basis set group =>   7
Atom 105H    basis set group =>   7
Atom 106H    basis set group =>   7
Atom 107H    basis set group =>   7
Atom 108H    basis set group =>   7
Atom 109H    basis set group =>   7
Atom 110H    basis set group =>   7
Atom 111H    basis set group =>   7


           ************************************************************
           *        Program running with 6 parallel MPI-processes     *
           *              working on a common directory               *
           ************************************************************
------------------------------------------------------------------------------
                           ORCA GTO INTEGRAL CALCULATION
                           -- RI-GTO INTEGRALS CHOSEN --
------------------------------------------------------------------------------

                         BASIS SET STATISTICS AND STARTUP INFO

Gaussian basis set:
 # of primitive gaussian shells          ... 1264
 # of primitive gaussian functions       ... 2468
 # of contracted shells                  ...  632
 # of contracted basis functions         ... 1428
 Highest angular momentum                ...    2
 Maximum contraction depth               ...    5
Auxiliary gaussian basis set:
 # of primitive gaussian shells          ... 2398
 # of primitive gaussian functions       ... 6830
 # of contracted shells                  ... 1500
 # of contracted aux-basis functions     ... 4748
 Highest angular momentum                ...    4
 Maximum contraction depth               ...    7
Ratio of auxiliary to basis functions    ...  3.32
Integral package used                  ... LIBINT
 One Electron integrals                  ... done
 Ordering auxiliary basis shells         ... done
 Integral threshhold             Thresh  ...  2.500e-11
 Primitive cut-off               TCut    ...  2.500e-12
 Pre-screening matrix                    ... done
 Shell pair data                         ... 
 Ordering of the shell pairs             ... done (   0.010 sec) 51791 of 200028 pairs
 Determination of significant pairs      ... done (   0.000 sec)
 Creation of shell pair data             ... done (   0.008 sec)
 Storage of shell pair data              ... done (   0.009 sec)
 Shell pair data done in (   0.027 sec)
 Computing two index integrals           ... done
 Cholesky decomposition of the V-matrix  ... done


Timings:
 Total evaluation time                   ...   3.406 sec (  0.057 min)
 One electron matrix time                ...   0.796 sec (  0.013 min) = 23.4%
 Schwartz matrix evaluation time         ...   1.013 sec (  0.017 min) = 29.7%
 Two index repulsion integral time       ...   0.636 sec (  0.011 min) = 18.7%
 Cholesky decomposition of V             ...   0.919 sec (  0.015 min) = 27.0%
 Three index repulsion integral time     ...   0.000 sec (  0.000 min) =  0.0%



           ************************************************************
           *        Program running with 6 parallel MPI-processes     *
           *              working on a common directory               *
           ************************************************************
-------------------------------------------------------------------------------
                                 ORCA SCF
-------------------------------------------------------------------------------

------------
SCF SETTINGS
------------
Hamiltonian:
 Density Functional     Method          .... DFT(GTOs)
 Exchange Functional    Exchange        .... WB88
 Correlation Functional Correlation     .... LYP
 LDA part of GGA corr.  LDAOpt          .... VWN-5
 Gradients option       PostSCFGGA      .... off
 Hybrid DFT is turned on
   Fraction HF Exchange ScalHFX         ....  0.190000
   Scaling of DF-GGA-X  ScalDFX         ....  0.350000
   Scaling of DF-GGA-C  ScalDFC         ....  0.810000
   Scaling of DF-LDA-C  ScalLDAC        ....  1.000000
   Perturbative correction              ....  0.000000
   Density functional embedding theory  .... OFF
 Long-range corrected/Screened/Range-Separated Hybrid DFT is turned on
   Amount of maximum screened exact exchange              ....  0.460000
   Range separation parameter mu (erf(mu*r12)/r12)        ....  0.330000
 RI-approximation to the Coulomb term is turned on
   Number of auxiliary basis functions  .... 4748
   RIJ-COSX (HFX calculated with COS-X)).... on


General Settings:
 Integral files         IntName         .... xtbopt
 Hartree-Fock type      HFTyp           .... RHF
 Total Charge           Charge          ....    0
 Multiplicity           Mult            ....    1
 Number of Electrons    NEL             ....  706
 Basis Dimension        Dim             .... 1428
 Nuclear Repulsion      ENuc            ....  16927.8590259564 Eh

Convergence Acceleration:
 DIIS                   CNVDIIS         .... on
   Start iteration      DIISMaxIt       ....    12
   Startup error        DIISStart       ....  0.200000
   # of expansion vecs  DIISMaxEq       ....     5
   Bias factor          DIISBfac        ....   1.050
   Max. coefficient     DIISMaxC        ....  10.000
 Newton-Raphson         CNVNR           .... off
 SOSCF                  CNVSOSCF        .... on
   Start iteration      SOSCFMaxIt      ....   150
   Startup grad/error   SOSCFStart      ....  0.003300
 Level Shifting         CNVShift        .... on
   Level shift para.    LevelShift      ....    0.2500
   Turn off err/grad.   ShiftErr        ....    0.0010
 Zerner damping         CNVZerner       .... off
 Static damping         CNVDamp         .... on
   Fraction old density DampFac         ....    0.7000
   Max. Damping (<1)    DampMax         ....    0.9800
   Min. Damping (>=0)   DampMin         ....    0.0000
   Turn off err/grad.   DampErr         ....    0.1000
 Fernandez-Rico         CNVRico         .... off

SCF Procedure:
 Maximum # iterations   MaxIter         ....   125
 SCF integral mode      SCFMode         .... Direct
   Integral package                     .... LIBINT
 Reset frequency        DirectResetFreq ....    20
 Integral Threshold     Thresh          ....  2.500e-11 Eh
 Primitive CutOff       TCut            ....  2.500e-12 Eh

Convergence Tolerance:
 Convergence Check Mode ConvCheckMode   .... Total+1el-Energy
 Convergence forced     ConvForced      .... 1
 Energy Change          TolE            ....  1.000e-08 Eh
 1-El. energy change                    ....  1.000e-05 Eh
 Orbital Gradient       TolG            ....  1.000e-05
 Orbital Rotation angle TolX            ....  1.000e-05
 DIIS Error             TolErr          ....  5.000e-07


Diagonalization of the overlap matrix:
Smallest eigenvalue                        ... 1.654e-04
Time for diagonalization                   ...    0.291 sec
Threshold for overlap eigenvalues          ... 1.000e-08
Number of eigenvalues below threshold      ... 0
Time for construction of square roots      ...    0.222 sec
Total time needed                          ...    0.517 sec

-------------------
DFT GRID GENERATION
-------------------

General Integration Accuracy     IntAcc      ...  4.670
Radial Grid Type                 RadialGrid  ... Gauss-Chebyshev
Angular Grid (max. acc.)         AngularGrid ... Lebedev-302
Angular grid pruning method      GridPruning ... 3 (G Style)
Weight generation scheme         WeightScheme... Becke
Basis function cutoff            BFCut       ...    1.0000e-11
Integration weight cutoff        WCut        ...    1.0000e-14
Grids for H and He will be reduced by one unit

# of grid points (after initial pruning)     ... 645868 (   0.0 sec)
# of grid points (after weights+screening)   ... 556633 (   8.0 sec)
nearest neighbour list constructed           ...    0.0 sec
Grid point re-assignment to atoms done       ...    0.1 sec
Grid point division into batches done        ...    1.8 sec
Reduced shell lists constructed in    3.1 sec

Total number of grid points                  ...   556633
Total number of batches                      ...     8753
Average number of points per batch           ...       63
Average number of grid points per atom       ...     4970
Average number of shells per batch           ...    77.05 (12.19%)
Average number of basis functions per batch  ...   167.46 (11.73%)
Average number of large shells per batch     ...    47.81 (62.04%)
Average number of large basis fcns per batch ...   105.50 (63.00%)
Maximum spatial batch extension              ...  18.82, 18.11, 20.80 au
Average spatial batch extension              ...   0.38,  0.37,  0.41 au

Time for grid setup =   11.431 sec

------------------------------
INITIAL GUESS: MODEL POTENTIAL
------------------------------
Loading Hartree-Fock densities                     ... done
Calculating cut-offs                               ... done
Setting up the integral package                    ... done
Initializing the effective Hamiltonian             ... done
Starting the Coulomb interaction                   ... done (   1.7 sec)
Reading the grid                                   ... done
Mapping shells                                     ... done
Starting the XC term evaluation                    ... done (   1.6 sec)
  promolecular density results
     # of electrons  =    705.990002842
     EX              =   -729.592402839
     EC              =    -24.979625905
     EX+EC           =   -754.572028743
Transforming the Hamiltonian                       ... done (   0.2 sec)
Diagonalizing the Hamiltonian                      ... done (   0.3 sec)
Back transforming the eigenvectors                 ... done (   0.1 sec)
Now organizing SCF variables                       ... done
                      ------------------
                      INITIAL GUESS DONE (  15.4 sec)
                      ------------------
--------------------
COSX GRID GENERATION
--------------------

General Integration Accuracy     IntAcc      ...  3.340
Radial Grid Type                 RadialGrid  ... Gauss-Chebyshev
Angular Grid (max. acc.)         AngularGrid ... Lebedev-50
Angular grid pruning method      GridPruning ... 3 (G Style)
Weight generation scheme         WeightScheme... Becke
Basis function cutoff            BFCut       ...    1.0000e-11
Integration weight cutoff        WCut        ...    1.0000e-14
Grids for H and He will be reduced by one unit

# of grid points (after initial pruning)     ...  60936 (   0.0 sec)
# of grid points (after weights+screening)   ...  54948 (   0.8 sec)
nearest neighbour list constructed           ...    0.0 sec
Grid point re-assignment to atoms done       ...    0.0 sec
Grid point division into batches done        ...    0.0 sec
Reduced shell lists constructed in    0.2 sec

Total number of grid points                  ...    54948
Total number of batches                      ...      915
Average number of points per batch           ...       60
Average number of grid points per atom       ...      491
Average number of shells per batch           ...    96.39 (15.25%)
Average number of basis functions per batch  ...   211.36 (14.80%)
Average number of large shells per batch     ...    59.53 (61.76%)
Average number of large basis fcns per batch ...   133.14 (62.99%)
Maximum spatial batch extension              ...  17.23, 16.83, 16.48 au
Average spatial batch extension              ...   0.74,  0.72,  0.87 au

Overlap Fitting                  UseSFitting ... on
Constructing numerical overlap ... done (      0.1 sec)
Inverting numerical overlap    ... done (      0.1 sec)
Obtaining analytic overlap     ... done (      0.0 sec)
Final contraction and storage  ... done (      0.1 sec)


General Integration Accuracy     IntAcc      ...  3.670
Radial Grid Type                 RadialGrid  ... Gauss-Chebyshev
Angular Grid (max. acc.)         AngularGrid ... Lebedev-50
Angular grid pruning method      GridPruning ... 3 (G Style)
Weight generation scheme         WeightScheme... Becke
Basis function cutoff            BFCut       ...    1.0000e-11
Integration weight cutoff        WCut        ...    1.0000e-14
Grids for H and He will be reduced by one unit

# of grid points (after initial pruning)     ...  75360 (   0.0 sec)
# of grid points (after weights+screening)   ...  67681 (   0.9 sec)
nearest neighbour list constructed           ...    0.0 sec
Grid point re-assignment to atoms done       ...    0.0 sec
Grid point division into batches done        ...    0.0 sec
Reduced shell lists constructed in    0.2 sec

Total number of grid points                  ...    67681
Total number of batches                      ...     1119
Average number of points per batch           ...       60
Average number of grid points per atom       ...      604
Average number of shells per batch           ...    93.95 (14.87%)
Average number of basis functions per batch  ...   205.71 (14.41%)
Average number of large shells per batch     ...    58.01 (61.75%)
Average number of large basis fcns per batch ...   129.65 (63.02%)
Maximum spatial batch extension              ...  17.68, 18.03, 18.63 au
Average spatial batch extension              ...   0.66,  0.68,  0.83 au

Overlap Fitting                  UseSFitting ... on
Constructing numerical overlap ... done (      0.1 sec)
Inverting numerical overlap    ... done (      0.1 sec)
Obtaining analytic overlap     ... done (      0.0 sec)
Final contraction and storage  ... done (      0.1 sec)


General Integration Accuracy     IntAcc      ...  4.010
Radial Grid Type                 RadialGrid  ... Gauss-Chebyshev
Angular Grid (max. acc.)         AngularGrid ... Lebedev-110
Angular grid pruning method      GridPruning ... 3 (G Style)
Weight generation scheme         WeightScheme... Becke
Basis function cutoff            BFCut       ...    1.0000e-11
Integration weight cutoff        WCut        ...    1.0000e-14
Grids for H and He will be reduced by one unit

# of grid points (after initial pruning)     ... 149788 (   0.0 sec)
# of grid points (after weights+screening)   ... 132889 (   1.9 sec)
nearest neighbour list constructed           ...    0.0 sec
Grid point re-assignment to atoms done       ...    0.0 sec
Grid point division into batches done        ...    0.1 sec
Reduced shell lists constructed in    0.4 sec

Total number of grid points                  ...   132889
Total number of batches                      ...     2136
Average number of points per batch           ...       62
Average number of grid points per atom       ...     1187
Average number of shells per batch           ...    87.02 (13.77%)
Average number of basis functions per batch  ...   190.23 (13.32%)
Average number of large shells per batch     ...    54.32 (62.43%)
Average number of large basis fcns per batch ...   120.70 (63.45%)
Maximum spatial batch extension              ...  18.33, 17.12, 19.63 au
Average spatial batch extension              ...   0.59,  0.56,  0.67 au

Overlap Fitting                  UseSFitting ... on
Constructing numerical overlap ... done (      0.2 sec)
Inverting numerical overlap    ... done (      0.1 sec)
Obtaining analytic overlap     ... done (      0.0 sec)
Final contraction and storage  ... done (      0.1 sec)

Time for X-Grid setup             =    5.734 sec
--------------
SCF ITERATIONS
--------------
ITER       Energy         Delta-E        Max-DP      RMS-DP      [F,P]     Damp
               ***  Starting incremental Fock matrix formation  ***
  0  -7853.7510575275   0.000000000000 0.08432576  0.00094987  0.2405098 0.7000
  1  -7854.5317050162  -0.780647488664 0.06027477  0.00066303  0.1065141 0.7000
                               ***Turning on DIIS***
  2  -7854.8517561145  -0.320051098301 0.09878308  0.00115299  0.0399178 0.0000
  3  -7855.3657587452  -0.514002630714 0.05172206  0.00051211  0.0609814 0.0000
  4  -7855.4769856339  -0.111226888714 0.01778255  0.00016781  0.0218790 0.0000
  5  -7855.4851438788  -0.008158244869 0.00833395  0.00006858  0.0104184 0.0000
                      *** Initiating the SOSCF procedure ***
                           *** Shutting down DIIS ***
                      *** Re-Reading the Fockian *** 
                      *** Removing any level shift *** 
ITER      Energy       Delta-E        Grad      Rot      Max-DP    RMS-DP
  6  -7855.48694625  -0.0018023707  0.001959  0.001959  0.003036  0.000038
               *** Restarting incremental Fock matrix formation ***
  7  -7855.48754205  -0.0005958018  0.001352  0.009367  0.003523  0.000038
  8  -7855.48792191  -0.0003798600  0.000510  0.008441  0.003888  0.000048
  9  -7855.48792185   0.0000000661  0.000836  0.003113  0.001650  0.000018
 10  -7855.48803953  -0.0001176878  0.000158  0.000867  0.000943  0.000007
 11  -7855.48803782   0.0000017113  0.000150  0.000471  0.000518  0.000004
 12  -7855.48804517  -0.0000073449  0.000025  0.000216  0.000242  0.000002
 13  -7855.48804498   0.0000001904  0.000034  0.000066  0.000142  0.000001
 14  -7855.48804542  -0.0000004399  0.000011  0.000047  0.000036  0.000000
 15  -7855.48804550  -0.0000000885  0.000015  0.000014  0.000022  0.000000
 16  -7855.48804546   0.0000000487  0.000003  0.000009  0.000009  0.000000
 17  -7855.48804541   0.0000000503  0.000003  0.000005  0.000005  0.000000
                  ***Gradient check signals convergence***
              ***Rediagonalizing the Fockian in SOSCF/NRSCF***

               *****************************************************
               *                     SUCCESS                       *
               *           SCF CONVERGED AFTER  18 CYCLES          *
               *****************************************************

Setting up the final grid:

General Integration Accuracy     IntAcc      ...  5.010
Radial Grid Type                 RadialGrid  ... Gauss-Chebyshev
Angular Grid (max. acc.)         AngularGrid ... Lebedev-434
Angular grid pruning method      GridPruning ... 3 (G Style)
Weight generation scheme         WeightScheme... Becke
Basis function cutoff            BFCut       ...    1.0000e-11
Integration weight cutoff        WCut        ...    1.0000e-14
Grids for H and He will be reduced by one unit

# of grid points (after initial pruning)     ... 1129412 (   0.1 sec)
# of grid points (after weights+screening)   ... 970106 (  13.7 sec)
nearest neighbour list constructed           ...    0.0 sec
Grid point re-assignment to atoms done       ...    0.1 sec
Grid point division into batches done        ...    5.8 sec
Reduced shell lists constructed in    7.8 sec

Total number of grid points                  ...   970106
Total number of batches                      ...    15217
Average number of points per batch           ...       63
Average number of grid points per atom       ...     8662
Average number of shells per batch           ...    75.13 (11.89%)
Average number of basis functions per batch  ...   162.93 (11.41%)
Average number of large shells per batch     ...    46.61 (62.04%)
Average number of large basis fcns per batch ...   102.73 (63.06%)
Maximum spatial batch extension              ...  20.58, 19.08, 21.42 au
Average spatial batch extension              ...   0.32,  0.30,  0.33 au

Final grid set up in   22.0 sec
Final integration                            ... done (   3.1 sec)
Change in XC energy                          ...    -0.000082552
Integrated number of electrons               ...   705.999961792
Previous integrated no of electrons          ...   705.999983363
Old exchange energy                            =   -195.819738452 Eh
New exchange energy                            =   -195.816134061 Eh
Exchange energy change after final integration =      0.003604390 Eh
Total energy after final integration           =  -7855.484523617 Eh
Final COS-X integration done in                =    75.887 sec

----------------
TOTAL SCF ENERGY
----------------

Total Energy       :        -7855.48452362 Eh         -213758.60116 eV

Components:
Nuclear Repulsion  :        16927.85902596 Eh          460630.46210 eV
Electronic Energy  :       -24783.34354957 Eh         -674389.06326 eV
One Electron Energy:       -44529.50535372 Eh        -1211709.44279 eV
Two Electron Energy:        19746.16180415 Eh          537320.37953 eV

Virial components:
Potential Energy   :       -15669.47481639 Eh         -426388.08691 eV
Kinetic Energy     :         7813.99029277 Eh          212629.48574 eV
Virial Ratio       :            2.00531025


DFT components:
N(Alpha)           :      352.999980895774 electrons
N(Beta)            :      352.999980895774 electrons
N(Total)           :      705.999961791548 electrons
E(XC)              :     -568.663281413453 Eh       
DFET-embed. en.    :        0.000000000000 Eh       

---------------
SCF CONVERGENCE
---------------

  Last Energy change         ...   -4.9535e-08  Tolerance :   1.0000e-08
  Last MAX-Density change    ...    1.0658e-14  Tolerance :   1.0000e-07
  Last RMS-Density change    ...    3.7409e-17  Tolerance :   5.0000e-09
  Last Orbital Gradient      ...    5.3649e-07  Tolerance :   1.0000e-05
  Last Orbital Rotation      ...    3.2535e-06  Tolerance :   1.0000e-05

             **** THE GBW FILE WAS UPDATED (xtbopt.gbw) ****
             **** DENSITY FILE WAS UPDATED (xtbopt.scfp) ****
             **** ENERGY FILE WAS UPDATED (xtbopt.en.tmp) ****
             **** THE GBW FILE WAS UPDATED (xtbopt.gbw) ****
             **** DENSITY FILE WAS UPDATED (xtbopt.scfp) ****
----------------
ORBITAL ENERGIES
----------------

  NO   OCC          E(Eh)            E(eV) 
   0   2.0000    -101.590880     -2764.4284 
   1   2.0000    -101.590129     -2764.4080 
   2   2.0000     -89.007865     -2422.0271 
   3   2.0000     -89.006409     -2421.9875 
   4   2.0000     -88.989977     -2421.5404 
   5   2.0000     -88.975107     -2421.1357 
   6   2.0000     -88.974245     -2421.1123 
   7   2.0000     -88.973305     -2421.0867 
   8   2.0000     -88.970703     -2421.0159 
   9   2.0000     -88.969406     -2420.9806 
  10   2.0000     -24.816886      -675.3018 
  11   2.0000     -24.816071      -675.2796 
  12   2.0000     -24.815139      -675.2543 
  13   2.0000     -24.813422      -675.2075 
  14   2.0000     -24.812129      -675.1724 
  15   2.0000     -24.810011      -675.1147 
  16   2.0000     -19.272038      -524.4188 
  17   2.0000     -19.228263      -523.2276 
  18   2.0000     -19.223504      -523.0981 
  19   2.0000     -19.216530      -522.9084 
  20   2.0000     -14.441649      -392.9773 
  21   2.0000     -14.441503      -392.9733 
  22   2.0000     -14.430265      -392.6675 
  23   2.0000     -14.428810      -392.6279 
  24   2.0000     -14.422999      -392.4698 
  25   2.0000     -14.421911      -392.4401 
  26   2.0000     -10.416221      -283.4398 
  27   2.0000     -10.405908      -283.1592 
  28   2.0000     -10.403328      -283.0890 
  29   2.0000     -10.400727      -283.0182 
  30   2.0000     -10.400541      -283.0131 
  31   2.0000     -10.397626      -282.9338 
  32   2.0000     -10.396036      -282.8905 
  33   2.0000     -10.384938      -282.5885 
  34   2.0000     -10.379773      -282.4480 
  35   2.0000     -10.378979      -282.4264 
  36   2.0000     -10.365701      -282.0651 
  37   2.0000     -10.360637      -281.9273 
  38   2.0000     -10.359555      -281.8978 
  39   2.0000     -10.357976      -281.8549 
  40   2.0000     -10.351386      -281.6755 
  41   2.0000     -10.350495      -281.6513 
  42   2.0000     -10.350404      -281.6488 
  43   2.0000     -10.346914      -281.5539 
  44   2.0000     -10.346415      -281.5403 
  45   2.0000     -10.341212      -281.3987 
  46   2.0000     -10.341153      -281.3971 
  47   2.0000     -10.339661      -281.3565 
  48   2.0000     -10.337694      -281.3030 
  49   2.0000     -10.335306      -281.2380 
  50   2.0000     -10.334150      -281.2065 
  51   2.0000     -10.333792      -281.1968 
  52   2.0000     -10.332591      -281.1641 
  53   2.0000     -10.332259      -281.1551 
  54   2.0000     -10.331732      -281.1407 
  55   2.0000     -10.330477      -281.1066 
  56   2.0000     -10.330133      -281.0972 
  57   2.0000     -10.328578      -281.0549 
  58   2.0000     -10.328491      -281.0525 
  59   2.0000     -10.327608      -281.0285 
  60   2.0000     -10.327139      -281.0157 
  61   2.0000     -10.326570      -281.0003 
  62   2.0000     -10.326447      -280.9969 
  63   2.0000     -10.325942      -280.9832 
  64   2.0000     -10.325580      -280.9733 
  65   2.0000     -10.325516      -280.9716 
  66   2.0000     -10.324508      -280.9441 
  67   2.0000     -10.323731      -280.9230 
  68   2.0000     -10.319880      -280.8182 
  69   2.0000     -10.319515      -280.8083 
  70   2.0000     -10.319463      -280.8069 
  71   2.0000     -10.319058      -280.7958 
  72   2.0000     -10.317725      -280.7596 
  73   2.0000     -10.317372      -280.7500 
  74   2.0000     -10.316860      -280.7360 
  75   2.0000     -10.316807      -280.7346 
  76   2.0000     -10.315465      -280.6981 
  77   2.0000     -10.315181      -280.6903 
  78   2.0000     -10.314236      -280.6646 
  79   2.0000     -10.313695      -280.6499 
  80   2.0000     -10.311827      -280.5991 
  81   2.0000     -10.310976      -280.5759 
  82   2.0000     -10.309510      -280.5360 
  83   2.0000     -10.308889      -280.5191 
  84   2.0000     -10.305399      -280.4242 
  85   2.0000     -10.304303      -280.3943 
  86   2.0000     -10.301009      -280.3047 
  87   2.0000     -10.299361      -280.2599 
  88   2.0000     -10.291358      -280.0421 
  89   2.0000     -10.291023      -280.0330 
  90   2.0000     -10.285441      -279.8811 
  91   2.0000     -10.283692      -279.8335 
  92   2.0000      -9.545651      -259.7504 
  93   2.0000      -9.544908      -259.7301 
  94   2.0000      -8.102032      -220.4675 
  95   2.0000      -8.100811      -220.4343 
  96   2.0000      -8.084978      -220.0034 
  97   2.0000      -8.070156      -219.6001 
  98   2.0000      -8.069172      -219.5733 
  99   2.0000      -8.068294      -219.5495 
 100   2.0000      -8.066336      -219.4962 
 101   2.0000      -8.065055      -219.4613 
 102   2.0000      -7.315956      -199.0773 
 103   2.0000      -7.315202      -199.0568 
 104   2.0000      -7.305696      -198.7981 
 105   2.0000      -7.305587      -198.7951 
 106   2.0000      -7.304957      -198.7780 
 107   2.0000      -7.304849      -198.7750 
 108   2.0000      -6.071250      -165.2071 
 109   2.0000      -6.070118      -165.1763 
 110   2.0000      -6.067058      -165.0930 
 111   2.0000      -6.065900      -165.0615 
 112   2.0000      -6.064474      -165.0227 
 113   2.0000      -6.063103      -164.9854 
 114   2.0000      -6.054339      -164.7469 
 115   2.0000      -6.050133      -164.6325 
 116   2.0000      -6.047031      -164.5481 
 117   2.0000      -6.039962      -164.3557 
 118   2.0000      -6.038916      -164.3272 
 119   2.0000      -6.038054      -164.3038 
 120   2.0000      -6.035660      -164.2387 
 121   2.0000      -6.035533      -164.2352 
 122   2.0000      -6.034667      -164.2116 
 123   2.0000      -6.034375      -164.2037 
 124   2.0000      -6.033798      -164.1880 
 125   2.0000      -6.031483      -164.1250 
 126   2.0000      -6.031391      -164.1225 
 127   2.0000      -6.030439      -164.0966 
 128   2.0000      -6.030182      -164.0896 
 129   2.0000      -6.029542      -164.0722 
 130   2.0000      -6.028399      -164.0411 
 131   2.0000      -6.027122      -164.0063 
 132   2.0000      -1.344123       -36.5754 
 133   2.0000      -1.339718       -36.4556 
 134   2.0000      -1.333542       -36.2875 
 135   2.0000      -1.328614       -36.1534 
 136   2.0000      -1.322404       -35.9844 
 137   2.0000      -1.318033       -35.8655 
 138   2.0000      -1.204092       -32.7650 
 139   2.0000      -1.146636       -31.2016 
 140   2.0000      -1.141518       -31.0623 
 141   2.0000      -1.110670       -30.2229 
 142   2.0000      -1.061984       -28.8981 
 143   2.0000      -1.038040       -28.2465 
 144   2.0000      -1.037296       -28.2262 
 145   2.0000      -1.034069       -28.1385 
 146   2.0000      -1.029974       -28.0270 
 147   2.0000      -1.028729       -27.9931 
 148   2.0000      -1.019538       -27.7430 
 149   2.0000      -1.017436       -27.6858 
 150   2.0000      -1.016739       -27.6669 
 151   2.0000      -1.012831       -27.5605 
 152   2.0000      -1.011236       -27.5171 
 153   2.0000      -1.008027       -27.4298 
 154   2.0000      -1.006656       -27.3925 
 155   2.0000      -1.001112       -27.2416 
 156   2.0000      -0.998691       -27.1758 
 157   2.0000      -0.977404       -26.5965 
 158   2.0000      -0.974036       -26.5049 
 159   2.0000      -0.969567       -26.3833 
 160   2.0000      -0.965377       -26.2692 
 161   2.0000      -0.954943       -25.9853 
 162   2.0000      -0.951860       -25.9014 
 163   2.0000      -0.938723       -25.5439 
 164   2.0000      -0.930030       -25.3074 
[...]
  67   4.966     249.7   0.018557   0.014776  -13.826177  -5.316206     0.19 ( 123-> 134)    0.10 ( 111-> 124)    0.06 ( 112-> 125)
  68   4.976     249.2   0.006386   0.004818  -1.620563  -2.363024     0.31 ( 116-> 126)    0.12 ( 112-> 125)    0.05 ( 115-> 126)
  69   4.985     248.7   0.013105   0.009745  38.783282  34.170698     0.19 ( 114-> 126)    0.16 ( 123-> 134)    0.06 ( 120-> 127)

-----------------------------------------------------------------------------
         ABSORPTION SPECTRUM VIA TRANSITION ELECTRIC DIPOLE MOMENTS
-----------------------------------------------------------------------------
State   Energy  Wavelength   fosc         T2         TX        TY        TZ  
        (cm-1)    (nm)                  (au**2)     (au)      (au)      (au) 
-----------------------------------------------------------------------------
   0   12583.2    794.7   0.600392003  15.70795  -0.59359  -3.67300   1.36553
   1   15699.8    637.0   0.993906854  20.84147  -0.87488  -4.00238   2.01420
   2   17883.3    559.2   0.127702695   2.35086   0.22932  -1.51585  -0.02146
   3   19802.8    505.0   0.572386917   9.51566  -0.46377   3.04850  -0.08485
   4   20286.2    492.9   0.226451117   3.67492  -0.25447   1.89309   0.16244
   5   23130.9    432.3   0.087718415   1.24846  -0.89441   0.06843   0.66618
   6   23525.6    425.1   0.037584528   0.52595   0.56562   0.37493  -0.25583
   7   24412.3    409.6   0.214078470   2.88695  -0.64161  -1.28644   0.90574
   8   25127.7    398.0   0.296568746   3.88552  -1.21979  -0.25721   1.52691
   9   25798.7    387.6   0.013487554   0.17211  -0.10487   0.35847  -0.18059
  10   25954.0    385.3   0.031704820   0.40216  -0.46942  -0.42481  -0.03654
  11   26540.7    376.8   0.099441441   1.23348   0.34676   0.84231  -0.63541
  12   27332.5    365.9   0.322670799   3.88648   0.78452  -1.24269  -1.31405
  13   27512.1    363.5   0.123522588   1.47808  -0.67119  -0.77167   0.65735
  14   28214.8    354.4   0.021777035   0.25410  -0.01481  -0.04096  -0.50219
  15   28886.7    346.2   0.108564824   1.23728  -0.09302  -0.77104  -0.79631
  16   29113.0    343.5   0.053764216   0.60797  -0.70824   0.18594   0.26793
  17   29386.7    340.3   0.084873038   0.95081   0.08323  -0.70454  -0.66896
  18   29775.1    335.9   0.199999597   2.21132  -0.36697   0.99043   1.04676
  19   29849.2    335.0   0.135101525   1.49006   0.77290   0.38786  -0.86154
  20   30392.5    329.0   0.165772253   1.79565  -0.54355  -0.04210   1.22410
  21   30627.6    326.5   0.036869496   0.39631  -0.54717   0.03227   0.30963
  22   30693.1    325.8   0.010768214   0.11550  -0.12571   0.11637  -0.29352
  23   30774.7    324.9   0.062487646   0.66846   0.33194  -0.49036  -0.56376
  24   30953.6    323.1   0.021209198   0.22557  -0.20459  -0.36902   0.21805
  25   31234.5    320.2   0.038582846   0.40666   0.19229   0.58982  -0.14766
  26   31396.2    318.5   0.270707005   2.83856  -0.20364  -1.67228   0.02396
  27   31549.1    317.0   0.004364777   0.04555   0.14170   0.15425   0.04089
  28   31715.0    315.3   0.401137978   4.16394   0.06826   2.03246  -0.16844
  29   32009.8    312.4   0.055696352   0.57282   0.42280   0.24017  -0.57998
  30   32377.5    308.9   0.085524799   0.86961   0.76442   0.18497  -0.50106
  31   32429.6    308.4   0.055332851   0.56172  -0.68845   0.06149   0.28978
  32   32669.7    306.1   0.062375825   0.62856   0.01527   0.59123   0.52799
  33   33047.7    302.6   0.287362671   2.86262  -0.31186  -1.64882  -0.21627
  34   33409.6    299.3   0.014531432   0.14319   0.14573  -0.12333  -0.32671
  35   33570.7    297.9   0.279377218   2.73972  -0.85510   0.87285   1.11653
  36   33725.2    296.5   0.011177110   0.10911   0.15127  -0.23873   0.17097
  37   33771.2    296.1   0.007791040   0.07595   0.13541  -0.19268  -0.14313
  38   34069.7    293.5   0.018118722   0.17508   0.37059   0.18186   0.06835
  39   34245.1    292.0   0.104254166   1.00224   0.12079  -0.77087  -0.62722
  40   34272.7    291.8   0.064231235   0.61698  -0.51239  -0.19762  -0.56159
  41   34768.3    287.6   0.081840725   0.77493   0.12279   0.87068   0.04197
  42   34962.3    286.0   0.053158084   0.50055   0.18202   0.62172  -0.28439
  43   35497.3    281.7   0.028901308   0.26804   0.17169   0.31911   0.36977
  44   35636.5    280.6   0.198367966   1.83254   1.29088   0.01851  -0.40721
  45   35798.7    279.3   0.029519444   0.27147   0.21295  -0.31559  -0.35570
  46   36034.7    277.5   0.407647022   3.72426   1.89973  -0.05065  -0.33571
  47   36115.5    276.9   0.136847724   1.24744   0.58187   0.94922   0.08860
  48   36367.1    275.0   0.012833727   0.11618   0.06269   0.20075   0.26823
  49   36659.0    272.8   0.068821615   0.61804  -0.51592   0.40331   0.43499
  50   36759.1    272.0   0.067405380   0.60368   0.44052   0.64001   0.00040
  51   36908.0    270.9   0.003751457   0.03346  -0.01362   0.18216   0.00971
  52   37027.1    270.1   0.000022494   0.00020   0.01026  -0.00900   0.00372
  53   37138.5    269.3   0.001524191   0.01351   0.09536   0.05602  -0.03579
  54   37529.7    266.5   0.091137064   0.79946  -0.78948  -0.41599   0.05596
  55   37595.8    266.0   0.244480815   2.14083  -0.77481  -1.13367  -0.50526
  56   37933.2    263.6   0.005672612   0.04923  -0.18583   0.08736  -0.08406
  57   38262.8    261.4   0.004120816   0.03546  -0.05536   0.12049   0.13369
  58   38308.5    261.0   0.019228740   0.16525   0.20934  -0.07830  -0.33955
  59   38766.3    258.0   0.018875527   0.16029  -0.03729   0.32507   0.23073
  60   38853.6    257.4   0.144613347   1.22533   0.42189  -0.67722  -0.76727
  61   39296.6    254.5   0.090279910   0.75633   0.35584   0.61440  -0.50222
  62   39419.8    253.7   0.091566792   0.76471  -0.05571   0.78325  -0.38487
  63   39605.4    252.5   0.012849973   0.10681  -0.27760   0.12010   0.12380
  64   39694.9    251.9   0.003948987   0.03275   0.09292   0.15324   0.02523
  65   39868.0    250.8   0.008640565   0.07135   0.01341   0.25796  -0.06801
  66   40023.0    249.9   0.031907037   0.26245   0.45114   0.01716  -0.24214
  67   40052.5    249.7   0.018557216   0.15253   0.37282   0.10715  -0.04533
  68   40136.0    249.2   0.006385706   0.05238  -0.22185  -0.02549  -0.05011
  69   40205.8    248.7   0.013105461   0.10731  -0.30590   0.04354   0.10881

-----------------------------------------------------------------------------
         ABSORPTION SPECTRUM VIA TRANSITION VELOCITY DIPOLE MOMENTS
-----------------------------------------------------------------------------
State   Energy  Wavelength   fosc         P2         PX        PY        PZ  
        (cm-1)    (nm)                  (au**2)     (au)      (au)      (au) 
-----------------------------------------------------------------------------
   0   12583.2    794.7   0.819462791   0.07047  -0.03954  -0.24627   0.09090
   1   15699.8    637.0   1.245937130   0.13369  -0.06770  -0.32249   0.15845
   2   17883.3    559.2   0.150043440   0.01834   0.02008  -0.13389  -0.00294
   3   19802.8    505.0   0.610306471   0.08260  -0.04523   0.28378  -0.00456
   4   20286.2    492.9   0.244434150   0.03389  -0.02494   0.18171   0.01576
   5   23130.9    432.3   0.093511448   0.01478  -0.09689   0.01828   0.07114
   6   23525.6    425.1   0.038713368   0.00622   0.06045   0.04318  -0.02657
   7   24412.3    409.6   0.196030800   0.03271  -0.07327  -0.13085   0.10108
   8   25127.7    398.0   0.291733204   0.05010  -0.13951  -0.02056   0.17382
   9   25798.7    387.6   0.012470123   0.00220  -0.01105   0.04225  -0.01708
  10   25954.0    385.3   0.033880151   0.00601  -0.05932  -0.04988  -0.00179
  11   26540.7    376.8   0.106937550   0.01940   0.04227   0.10614  -0.07965
  12   27332.5    365.9   0.322568213   0.06026   0.09887  -0.15141  -0.16600
  13   27512.1    363.5   0.119594004   0.02249  -0.08396  -0.09219   0.08330
  14   28214.8    354.4   0.019991970   0.00386  -0.00156  -0.00912  -0.06140
  15   28886.7    346.2   0.101338201   0.02001  -0.01076  -0.09562  -0.10367
  16   29113.0    343.5   0.053308685   0.01061  -0.09269   0.02808   0.03504
  17   29386.7    340.3   0.072828112   0.01463   0.01025  -0.08516  -0.08527
  18   29775.1    335.9   0.192217212   0.03912  -0.05077   0.13364   0.13667
  19   29849.2    335.0   0.116181239   0.02370   0.09927   0.04912  -0.10693
  20   30392.5    329.0   0.146844994   0.03050  -0.07058  -0.00677   0.15961
  21   30627.6    326.5   0.033683522   0.00705  -0.07339   0.00626   0.04032
  22   30693.1    325.8   0.011802177   0.00248  -0.01726   0.02190  -0.04121
  23   30774.7    324.9   0.056499038   0.01188   0.04471  -0.06581  -0.07452
  24   30953.6    323.1   0.018310794   0.00387  -0.02613  -0.04898   0.02814
  25   31234.5    320.2   0.034252699   0.00731   0.02482   0.07974  -0.01838
  26   31396.2    318.5   0.245807818   0.05274  -0.02825  -0.22788   0.00410
  27   31549.1    317.0   0.003455057   0.00074   0.02156   0.01655   0.00249
  28   31715.0    315.3   0.375127517   0.08131   0.00835   0.28416  -0.02229
  29   32009.8    312.4   0.046483618   0.01017   0.05612   0.03314  -0.07695
  30   32377.5    308.9   0.079246567   0.01754   0.10716   0.02826  -0.07249
  31   32429.6    308.4   0.055427517   0.01228  -0.10123   0.00861   0.04430
  32   32669.7    306.1   0.056098593   0.01253   0.00224   0.08265   0.07543
  33   33047.7    302.6   0.264552602   0.05975  -0.04549  -0.23859  -0.02755
  34   33409.6    299.3   0.012623477   0.00288   0.01961  -0.01650  -0.04718
  35   33570.7    297.9   0.243130575   0.05578  -0.12090   0.12602   0.15902
  36   33725.2    296.5   0.010606280   0.00244   0.02234  -0.03536   0.02637
  37   33771.2    296.1   0.007186549   0.00166   0.01911  -0.02919  -0.02101
  38   34069.7    293.5   0.015915618   0.00371   0.05475   0.02531   0.00824
  39   34245.1    292.0   0.094787833   0.02218   0.01716  -0.11484  -0.09328
  40   34272.7    291.8   0.058727915   0.01376  -0.07434  -0.02961  -0.08575
  41   34768.3    287.6   0.068815891   0.01635   0.01441   0.12677   0.00854
  42   34962.3    286.0   0.046064047   0.01101   0.02496   0.09434  -0.03852
  43   35497.3    281.7   0.025244352   0.00612   0.02419   0.04581   0.05866
  44   35636.5    280.6   0.178292302   0.04342   0.19860   0.00331  -0.06302
  45   35798.7    279.3   0.026361461   0.00645   0.03445  -0.04738  -0.05494
  46   36034.7    277.5   0.363353388   0.08949   0.29427  -0.00814  -0.05317
  47   36115.5    276.9   0.116508069   0.02876   0.08770   0.14449   0.01378
  48   36367.1    275.0   0.011846687   0.00294   0.00740   0.03105   0.04389
  49   36659.0    272.8   0.059340784   0.01487  -0.08151   0.05837   0.06939
  50   36759.1    272.0   0.057545367   0.01446   0.06559   0.10073   0.00294
  51   36908.0    270.9   0.003615149   0.00091  -0.00128   0.03017  -0.00026
  52   37027.1    270.1   0.000014236   0.00000   0.00143  -0.00114   0.00052
  53   37138.5    269.3   0.000832734   0.00021   0.01298   0.00476  -0.00450
  54   37529.7    266.5   0.077209569   0.01980  -0.12380  -0.06629   0.00911
  55   37595.8    266.0   0.203620101   0.05232  -0.12193  -0.17663  -0.07908
  56   37933.2    263.6   0.004842206   0.00126  -0.02888   0.01406  -0.01495
  57   38262.8    261.4   0.003222287   0.00084  -0.00985   0.01879   0.01981
  58   38308.5    261.0   0.015771778   0.00413   0.03440  -0.01152  -0.05304
  59   38766.3    258.0   0.016899868   0.00448  -0.00720   0.05117   0.04252
  60   38853.6    257.4   0.121787145   0.03234   0.06985  -0.10911  -0.12472
  61   39296.6    254.5   0.070809037   0.01902   0.05679   0.09798  -0.07869
  62   39419.8    253.7   0.070941018   0.01911  -0.00887   0.12321  -0.06207
  63   39605.4    252.5   0.010019692   0.00271  -0.04531   0.01687   0.01935
  64   39694.9    251.9   0.003558035   0.00097   0.01617   0.02631   0.00337
  65   39868.0    250.8   0.007042894   0.00192   0.00327   0.04223  -0.01119
  66   40023.0    249.9   0.026677349   0.00730   0.07540   0.00346  -0.04000
  67   40052.5    249.7   0.014775965   0.00404   0.06147   0.01381  -0.00868
  68   40136.0    249.2   0.004817575   0.00132  -0.03490  -0.00448  -0.00913
  69   40205.8    248.7   0.009744832   0.00268  -0.04828   0.00803   0.01681

-------------------------------------------------------------------
                             CD SPECTRUM
-------------------------------------------------------------------
State   Energy Wavelength       R         MX        MY        MZ   
        (cm-1)   (nm)       (1e40*cgs)   (au)      (au)      (au)  
-------------------------------------------------------------------
   0   12583.2    794.7    -36.34163   1.15787  -0.88276  -1.75824
   1   15699.8    637.0    -42.32711  -0.14831  -1.81736  -3.58652
   2   17883.3    559.2     29.19798   0.78286   0.21003  -0.69770
   3   19802.8    505.0    -78.22011  -5.60256  -0.79795  -1.95733
   4   20286.2    492.9    -78.00012  -0.49581  -0.06449   2.01189
   5   23130.9    432.3    -35.38893  -1.18786  -1.17682  -1.24856
   6   23525.6    425.1    -21.99826   0.12052   0.29762   0.33785
   7   24412.3    409.6     43.78460   0.67663  -1.40054  -1.71499
   8   25127.7    398.0    248.14522  -2.92118  -2.73461  -3.48368
   9   25798.7    387.6    -49.31844  -0.83013  -0.42400  -1.51809
  10   25954.0    385.3    -77.26696  -0.06483  -0.56210  -1.60267
  11   26540.7    376.8    -21.13139  -0.77676   1.06499   0.84678
  12   27332.5    365.9    183.15179   4.33453   2.02660   1.26256
  13   27512.1    363.5    165.36520   0.76545  -1.52850  -2.07995
  14   28214.8    354.4    -26.36451   1.29000   0.28466  -0.28398
  15   28886.7    346.2    -235.94462   2.16662   0.23896  -1.74145
  16   29113.0    343.5    -266.42464  -1.43454  -0.12356   0.51216
  17   29386.7    340.3    -37.04997   3.21729   0.45688  -0.31584
  18   29775.1    335.9    120.57317  -6.67223  -1.22610  -1.66766
  19   29849.2    335.0     37.53164   1.37892   1.60518   2.14449
  20   30392.5    329.0    151.98772  -2.60481  -1.88078  -1.74805
  21   30627.6    326.5     32.03545   0.63128  -0.30597   0.70855
  22   30693.1    325.8     28.39555   1.38896   0.19311  -0.10790
  23   30774.7    324.9    -196.11165   2.58628   0.44187  -0.33727
  24   30953.6    323.1    -22.98652  -1.38656  -0.19856  -1.18978
  25   31234.5    320.2     40.67107  -1.13061   0.43431   1.43093
  26   31396.2    318.5    -42.85502   2.60232  -0.45089  -1.76464
  27   31549.1    317.0    -11.62067  -0.01310   0.14898   0.68895
  28   31715.0    315.3    -25.36306  -2.51639   0.33260   2.35470
  29   32009.8    312.4    100.44707   1.53273   1.33462   2.40471
  30   32377.5    308.9    -19.05177   1.62821   1.86982   3.01295
  31   32429.6    308.4    -73.52710  -2.04822  -1.34042  -3.50530
  32   32669.7    306.1    -135.62747  -4.68697   0.06714   1.15008
  33   33047.7    302.6    317.56144   5.99696  -0.23327  -0.64002
  34   33409.6    299.3     -0.24924   1.27955   0.42312   0.40778
  35   33570.7    297.9    222.95745  -5.38421  -2.41971  -3.07904
  36   33725.2    296.5     -0.20223  -0.23421  -0.06735   0.11821
  37   33771.2    296.1    -24.78399   0.78296   0.21090  -0.27777
  38   34069.7    293.5     45.69180  -0.51811   0.03025  -0.10730
  39   34245.1    292.0    -407.26845   4.96005   0.07533  -1.89199
  40   34272.7    291.8    227.07119   3.83780  -0.49344  -1.61264
  41   34768.3    287.6    -84.50859  -0.99377   0.44017   2.31813
  42   34962.3    286.0     35.58269  -0.55703   0.48966   1.24479
  43   35497.3    281.7    170.49218  -2.37761  -0.34723  -0.55239
  44   35636.5    280.6    -195.12485   0.71730   1.13584   0.29273
  45   35798.7    279.3    -317.26680   1.61334  -0.36262  -2.49634
  46   36034.7    277.5    317.08280  -1.09643   0.69964  -2.30321
  47   36115.5    276.9    143.84827  -2.42516   0.65165   2.05771
  48   36367.1    275.0     13.18322  -0.80343  -0.25575   0.17068
  49   36659.0    272.8    -115.27374  -1.13006  -0.72417   0.45534
  50   36759.1    272.0    107.37710  -1.93156   0.61648   2.04337
  51   36908.0    270.9     -9.11263  -0.61125   0.13914   0.51388
  52   37027.1    270.1      0.30286  -0.05148   0.13507   0.12316
  53   37138.5    269.3     -6.74462   0.46947   0.18777   0.74529
  54   37529.7    266.5    273.09341   1.97342  -1.53270  -4.25607
  55   37595.8    266.0    -225.04361   4.69468  -1.26972  -6.23992
  56   37933.2    263.6     -1.06042   0.27463  -0.40268  -1.07908
  57   38262.8    261.4      9.40074  -0.67450  -0.24408  -0.35766
  58   38308.5    261.0     32.95283  -0.15434   0.66935   0.16220
  59   38766.3    258.0    -33.84730  -0.87845  -0.27143   0.86276
  60   38853.6    257.4    -115.88344   2.48292   1.23815  -0.36830
  61   39296.6    254.5      9.42663   0.91399   0.97736   1.92291
  62   39419.8    253.7     57.05567   0.36842   0.66765   1.93434
  63   39605.4    252.5    -14.93537   0.17596   0.01788   0.88897
  64   39694.9    251.9    -24.91072   1.10851  -0.21507   1.41258
  65   39868.0    250.8     11.33415  -0.04572  -0.18729  -0.01243
  66   40023.0    249.9     68.69453   1.03359   1.36513   3.22597
  67   40052.5    249.7    -13.82618   0.28180   0.64407   2.54598
  68   40136.0    249.2     -1.62056   0.11037  -0.19735  -0.52547
  69   40205.8    248.7     38.78328   0.08706  -0.80204  -0.94640

sTD-DFT done

Total run time:        5.118 sec

           *** ORCA-CIS/TD-DFT FINISHED WITHOUT ERROR ***

-------------------------   --------------------
FINAL SINGLE POINT ENERGY     -7855.484523616876
-------------------------   --------------------


                            ***************************************
                            *     ORCA property calculations      *
                            ***************************************

                                    ---------------------
                                    Active property flags
                                    ---------------------
   (+) Dipole Moment


------------------------------------------------------------------------------
                       ORCA ELECTRIC PROPERTIES CALCULATION
------------------------------------------------------------------------------

Dipole Moment Calculation                       ... on
Quadrupole Moment Calculation                   ... off
Polarizability Calculation                      ... off
GBWName                                         ... xtbopt.gbw
Electron density file                           ... xtbopt.scfp
The origin for moment calculation is the CENTER OF MASS  = (-6.913664, 16.369013 -8.250443)

-------------
DIPOLE MOMENT
-------------
                                X             Y             Z
Electronic contribution:     -1.75077      29.98823      -5.58458
Nuclear contribution   :      1.26722     -29.59701       7.30808
                        -----------------------------------------
Total Dipole Moment    :     -0.48355       0.39122       1.72349
                        -----------------------------------------
Magnitude (a.u.)       :      1.83230
Magnitude (Debye)      :      4.65733



--------------------
Rotational spectrum 
--------------------
 
Rotational constants in cm-1:     0.000976     0.000145     0.000129 
Rotational constants in MHz :    29.253810     4.336734     3.873136 

 Dipole components along the rotational axes: 
x,y,z [a.u.] :     0.329375    -1.692358    -0.620277 
x,y,z [Debye]:     0.837203    -4.301633    -1.576618 

 

Timings for individual modules:

Sum of individual times         ...      800.657 sec (=  13.344 min)
GTO integral calculation        ...        4.060 sec (=   0.068 min)   0.5 %
SCF iterations                  ...      790.779 sec (=  13.180 min)  98.8 %
CIS module                      ...        5.819 sec (=   0.097 min)   0.7 %
                             ****ORCA TERMINATED NORMALLY****
TOTAL RUN TIME: 0 days 0 hours 13 minutes 21 seconds 729 msec
