
                                 *****************
                                 * O   R   C   A *
                                 *****************

           --- An Ab Initio, DFT and Semiempirical electronic structure package ---

                  #######################################################
                  #                        -***-                        #
                  #          Department of theory and spectroscopy      #
                  #               Directorship: Frank Neese             #
                  #        Max Planck Institute fuer Kohlenforschung    #
                  #                Kaiser Wilhelm Platz 1               #
                  #                 D-45470 Muelheim/Ruhr               #
                  #                      Germany                        #
                  #                                                     #
                  #                  All rights reserved                #
                  #                        -***-                        #
                  #######################################################


                         Program Version 4.2.0 -  RELEASE  -


 With contributions from (in alphabetic order):
   Daniel Aravena         : Magnetic Suceptibility
   Michael Atanasov       : Ab Initio Ligand Field Theory (pilot matlab implementation)
   Alexander A. Auer      : GIAO ZORA, VPT2
   Ute Becker             : Parallelization
   Giovanni Bistoni       : ED, misc. LED, open-shell LED, HFLED
   Martin Brehm           : Molecular dynamics
   Dmytro Bykov           : SCF Hessian
   Vijay G. Chilkuri      : MRCI spin determinant printing, contributions to CSF-ICE
   Dipayan Datta          : RHF DLPNO-CCSD density
   Achintya Kumar Dutta   : EOM-CC, STEOM-CC
   Dmitry Ganyushin       : Spin-Orbit,Spin-Spin,Magnetic field MRCI
   Miquel Garcia          : C-PCM Hessian, Gaussian charge scheme
   Yang Guo               : DLPNO-NEVPT2, CIM, IAO-localization
   Andreas Hansen         : Spin unrestricted coupled pair/coupled cluster methods
   Benjamin Helmich-Paris : CASSCF linear response (MC-RPA)
   Lee Huntington         : MR-EOM, pCC
   Robert Izsak           : Overlap fitted RIJCOSX, COSX-SCS-MP3, EOM
   Christian Kollmar      : KDIIS, OOCD, Brueckner-CCSD(T), CCSD density
   Simone Kossmann        : Meta GGA functionals, TD-DFT gradient, OOMP2, MP2 Hessian
   Martin Krupicka        : AUTO-CI
   Lucas Lang             : DCDCAS
   Dagmar Lenk            : GEPOL surface, SMD
   Dimitrios Liakos       : Extrapolation schemes; Compound Job, initial MDCI parallelization
   Dimitrios Manganas     : Further ROCIS development; embedding schemes
   Dimitrios Pantazis     : SARC Basis sets
   Taras Petrenko         : DFT Hessian,TD-DFT gradient, ASA, ECA, R-Raman, ABS, FL, XAS/XES, NRVS
   Peter Pinski           : DLPNO-MP2, DLPNO-MP2 Gradient
   Christoph Reimann      : Effective Core Potentials
   Marius Retegan         : Local ZFS, SOC
   Christoph Riplinger    : Optimizer, TS searches, QM/MM, DLPNO-CCSD(T), (RO)-DLPNO pert. Triples
   Tobias Risthaus        : Range-separated hybrids, TD-DFT gradient, RPA, STAB
   Michael Roemelt        : Original ROCIS implementation
   Masaaki Saitow         : Open-shell DLPNO-CCSD energy and density
   Barbara Sandhoefer     : DKH picture change effects
   Avijit Sen             : IP-ROCIS
   Kantharuban Sivalingam : CASSCF convergence, NEVPT2, FIC-MRCI
   Bernardo de Souza      : ESD, SOC TD-DFT
   Georgi Stoychev        : AutoAux, RI-MP2 NMR
   Willem Van den Heuvel  : Paramagnetic NMR
   Boris Wezisla          : Elementary symmetry handling
   Frank Wennmohs         : Technical directorship


 We gratefully acknowledge several colleagues who have allowed us to
 interface, adapt or use parts of their codes:
   Stefan Grimme, W. Hujo, H. Kruse,             : VdW corrections, initial TS optimization,
                  C. Bannwarth                     DFT functionals, gCP, sTDA/sTD-DF
   Ed Valeev, F. Pavosevic, A. Kumar             : LibInt (2-el integral package), F12 methods
   Garnet Chan, S. Sharma, J. Yang, R. Olivares  : DMRG
   Ulf Ekstrom                                   : XCFun DFT Library
   Mihaly Kallay                                 : mrcc  (arbitrary order and MRCC methods)
   Andreas Klamt, Michael Diedenhofen            : otool_cosmo (COSMO solvation model)
   Jiri Pittner, Ondrej Demel                    : Mk-CCSD
   Frank Weinhold                                : gennbo (NPA and NBO analysis)
   Christopher J. Cramer and Donald G. Truhlar   : smd solvation model
   Lars Goerigk                                  : TD-DFT with DH, B97 family of functionals
   V. Asgeirsson, H. Jonsson                     : NEB implementation
   FAccTs GmbH                                   : IRC, NEB, NEB-TS, Multilevel, MM, QM/MM, CI optimization
   S Lehtola, MJT Oliveira, MAL Marques          : LibXC Library


 Your calculation uses the libint2 library for the computation of 2-el integrals
 For citations please refer to: http://libint.valeyev.net

 Your ORCA version has been built with support for libXC version: 4.2.3
 For citations please refer to: https://tddft.org/programs/libxc/

 This ORCA versions uses:
   CBLAS   interface :  Fast vector & matrix operations
   LAPACKE interface :  Fast linear algebra routines
   SCALAPACK package :  Parallel linear algebra routines


XCFun DFT library Copyright 2009-2010 Ulf Ekstrom and contributors.
See http://admol.org/xcfun for more information. This is free soft-
ware; see the source code for copying conditions. There is ABSOLUTELY
NO WARRANTY; not even for MERCHANTABILITY or FITNESS FOR A PARTICULAR
PURPOSE. For details see the documentation. Scientific users of this 
library should cite U. Ekstrom, L. Visscher, R. Bast, A. J. Thorvald-
sen and K. Ruud; J.Chem.Theor.Comp. 2010, DOI: 10.1021/ct100117s
XCFun Version 0.99 
----- Orbital basis set information -----
Your calculation utilizes the basis: def2-SVP
   F. Weigend and R. Ahlrichs, Phys. Chem. Chem. Phys. 7, 3297 (2005).

----- AuxJ basis set information -----
Your calculation utilizes the auxiliary basis: def2/J
   F. Weigend, Phys. Chem. Chem. Phys. 8, 1057 (2006).

================================================================================
                                        WARNINGS
                       Please study these warnings very carefully!
================================================================================

INFO   : Checking CIS options ...

WARNING: CIS/ROCIS methods need fully converged wavefunctions
  ===> : Setting SCFConvForced true
         You can overwrite this default with %scf ConvForced false 


INFO   : the flag for use of LIBINT has been found!

================================================================================
                                       INPUT FILE
================================================================================
NAME = xtbopt.inp
|  1> # ORCA input file
|  2> # SCF done       -240.119606669270          0.000964883900
|  3> ! CAM-B3LYP def2-SVP def2/J RIJCOSX Grid4 TightSCF
|  4> %maxcore 5000
|  5> %tddft
|  6>     Mode sTDDFT
|  7>     Ethresh 5.0
|  8>     maxcore 5000
|  9> end
| 10> 
| 11> %pal
| 12>   nprocs 6
| 13>   end
| 14> * xyz 0 1
| 15>    C        5.19319        -7.22704         6.45435
| 16>    C        4.97327        -7.01067         7.80688
| 17>    F        5.57466        -7.80665         8.69716
| 18>    C        4.13912        -5.98688         8.25796
| 19>    F        3.96246        -5.80943         9.57250
| 20>    C        3.48888        -5.15443         7.36048
| 21>    C        3.69740        -5.37602         6.01359
| 22>    C        4.54701        -6.39794         5.55300
| 23>    C        4.60075        -6.33841         4.09200
| 24>    C        5.62422        -6.82496         3.32020
| 25>    C        6.65539        -7.65150         3.80947
| 26>    N        7.50112        -8.34503         4.15711
| 27>    C        5.80909        -6.45772         1.97115
| 28>    N        6.01307        -6.12965         0.89020
| 29>    C        3.57285        -5.41856         3.66586
| 30>    C        3.11056        -4.66158         4.85514
| 31>    O        2.37585        -3.70171         4.87004
| 32>    C        2.95730        -5.22167         2.46000
| 33>    C        2.89335        -6.06660         1.34274
| 34>    S        3.23427        -7.78123         1.39131
| 35>    C        2.84379        -8.01339        -0.28434
| 36>    C        2.45641        -6.80721        -0.84602
| 37>    C        2.45853        -5.71402         0.05849
| 38>    C        2.06425        -4.50922        -0.56416
| 39>    C        1.77225        -4.69248        -1.88456
| 40>    C        1.33069        -3.70848        -2.87959
| 41>    O        1.10716        -3.97972        -4.03361
| 42>    O        1.20637        -2.48604        -2.35191
| 43>    C        0.78601        -1.46714        -3.24981
| 44>    S        1.96673        -6.33540        -2.43817
| 45>    C        2.96169        -9.27898        -0.90761
| 46>    C        2.69974        -9.57248        -2.22037
| 47>    C        2.96348       -10.91500        -2.56240
| 48>    C        2.78195       -11.53729        -3.81737
| 49>    C        2.35630       -10.80688        -4.99140
| 50>    C        1.52677       -11.23346        -5.99120
| 51>    C        1.35572       -10.27054        -7.00773
| 52>    C        2.05555        -9.11323        -6.81413
| 53>    S        2.94657        -9.20116        -5.33585
| 54>    C        2.10803        -7.89954        -7.66517
| 55>   Cl        0.34384       -10.54744        -8.37161
| 56>    C        3.05243       -12.90039        -3.86982
| 57>    C        3.49306       -13.65640        -2.75313
| 58>    C        3.67337       -13.03350        -1.49899
| 59>    C        3.41394       -11.66830        -1.44739
| 60>    S        3.53463       -10.67400        -0.02165
| 61>    C        4.08349       -13.75778        -0.31461
| 62>    C        4.89708       -13.32463         0.69390
| 63>    C        5.02002       -14.26302         1.74112
| 64>    C        4.30154       -15.40951         1.55975
| 65>    S        3.45749       -15.34519         0.05039
| 66>    C        4.19232       -16.59102         2.45087
| 67>   Cl        5.99482       -13.96473         3.12799
| 68>    C        3.76324       -14.99854        -3.10211
| 69>    C        3.53810       -15.27959        -4.42152
| 70>    S        2.96552       -13.88233        -5.30594
| 71>    C        3.72032       -16.52180        -5.08673
| 72>    C        3.55207       -16.78396        -6.43368
| 73>    C        3.82539       -18.11576        -6.74270
| 74>    C        4.20163       -18.87224        -5.61825
| 75>    S        4.22073       -17.94139        -4.18543
| 76>    C        4.46505       -20.20122        -6.03102
| 77>    C        4.25179       -20.28341        -7.42363
| 78>    C        3.85602       -18.97486        -7.91570
| 79>    C        3.61314       -18.62989        -9.21225
| 80>    C        3.24978       -17.31931        -9.58807
| 81>    N        2.94840       -16.25720        -9.89598
| 82>    C        3.71991       -19.57714       -10.25299
| 83>    N        3.80887       -20.36228       -11.08384
| 84>    C        4.51296       -21.54455        -7.93789
| 85>    C        4.93032       -22.43683        -6.95813
| 86>    S        4.96016       -21.68427        -5.36431
| 87>    C        5.26214       -23.80052        -7.07677
| 88>    C        5.57504       -24.52179        -8.19224
| 89>    C        5.46556       -26.00505        -8.12699
| 90>    O        5.32381       -26.67736        -7.13351
| 91>    C        5.51381       -26.45799        -9.53430
| 92>    C        5.76000       -25.35591       -10.37206
| 93>    C        5.81002       -25.52406       -11.74629
| 94>    C        5.62044       -26.80231       -12.25061
| 95>    C        5.39365       -27.89494       -11.41159
| 96>    C        5.33547       -27.73217       -10.03677
| 97>    F        5.22533       -29.11128       -11.94184
| 98>    F        5.65332       -26.98892       -13.57321
| 99>    C        5.95013       -24.16369        -9.54320
|100>    C        6.61285       -23.03474        -9.94709
|101>    C        7.01099       -22.00153        -9.07606
|102>    N        7.37974       -21.15156        -8.39827
|103>    C        7.06671       -22.81622       -11.26604
|104>    N        7.45862       -22.58981       -12.31972
|105>    H        5.84380        -8.03075         6.14991
|106>    H        2.84479        -4.36307         7.70923
|107>    H        2.36351        -4.31485         2.39265
|108>    H        1.99894        -3.55474        -0.07616
|109>    H        0.73109        -0.55311        -2.66484
|110>    H       -0.19001        -1.71389        -3.67239
|111>    H        1.50503        -1.36059        -4.06443
|112>    H        2.31920        -8.84232        -2.90822
|113>    H        1.01639       -12.17848        -5.99346
|114>    H        3.12627        -7.71213        -8.00480
|115>    H        1.77689        -7.02566        -7.10470
|116>    H        1.46504        -8.03106        -8.53162
|117>    H        5.42838       -12.39130         0.68534
|118>    H        4.77873       -16.42339         3.35055
|119>    H        4.55967       -17.48640         1.95027
|120>    H        3.15421       -16.76632         2.73129
|121>    H        4.13303       -15.73575        -2.41327
|122>    H        3.24925       -16.02999        -7.13801
|123>    H        4.36510       -21.82934        -8.96346
|124>    H        5.19910       -24.38820        -6.16553
|125>    H        5.97552       -24.70971       -12.43274
|126>    H        5.15690       -28.57455        -9.38771
|127> *
|128> 
|129>                          ****END OF INPUT****
================================================================================

                       ****************************
                       * Single Point Calculation *
                       ****************************

---------------------------------
CARTESIAN COORDINATES (ANGSTROEM)
---------------------------------
  C      5.193190   -7.227040    6.454350
  C      4.973270   -7.010670    7.806880
  F      5.574660   -7.806650    8.697160
  C      4.139120   -5.986880    8.257960
  F      3.962460   -5.809430    9.572500
  C      3.488880   -5.154430    7.360480
  C      3.697400   -5.376020    6.013590
  C      4.547010   -6.397940    5.553000
  C      4.600750   -6.338410    4.092000
  C      5.624220   -6.824960    3.320200
  C      6.655390   -7.651500    3.809470
  N      7.501120   -8.345030    4.157110
  C      5.809090   -6.457720    1.971150
  N      6.013070   -6.129650    0.890200
  C      3.572850   -5.418560    3.665860
  C      3.110560   -4.661580    4.855140
  O      2.375850   -3.701710    4.870040
  C      2.957300   -5.221670    2.460000
  C      2.893350   -6.066600    1.342740
  S      3.234270   -7.781230    1.391310
  C      2.843790   -8.013390   -0.284340
  C      2.456410   -6.807210   -0.846020
  C      2.458530   -5.714020    0.058490
  C      2.064250   -4.509220   -0.564160
  C      1.772250   -4.692480   -1.884560
  C      1.330690   -3.708480   -2.879590
  O      1.107160   -3.979720   -4.033610
  O      1.206370   -2.486040   -2.351910
  C      0.786010   -1.467140   -3.249810
  S      1.966730   -6.335400   -2.438170
  C      2.961690   -9.278980   -0.907610
  C      2.699740   -9.572480   -2.220370
  C      2.963480  -10.915000   -2.562400
  C      2.781950  -11.537290   -3.817370
  C      2.356300  -10.806880   -4.991400
  C      1.526770  -11.233460   -5.991200
  C      1.355720  -10.270540   -7.007730
  C      2.055550   -9.113230   -6.814130
  S      2.946570   -9.201160   -5.335850
  C      2.108030   -7.899540   -7.665170
  Cl     0.343840  -10.547440   -8.371610
  C      3.052430  -12.900390   -3.869820
  C      3.493060  -13.656400   -2.753130
  C      3.673370  -13.033500   -1.498990
  C      3.413940  -11.668300   -1.447390
  S      3.534630  -10.674000   -0.021650
  C      4.083490  -13.757780   -0.314610
  C      4.897080  -13.324630    0.693900
  C      5.020020  -14.263020    1.741120
  C      4.301540  -15.409510    1.559750
  S      3.457490  -15.345190    0.050390
  C      4.192320  -16.591020    2.450870
  Cl     5.994820  -13.964730    3.127990
  C      3.763240  -14.998540   -3.102110
  C      3.538100  -15.279590   -4.421520
  S      2.965520  -13.882330   -5.305940
  C      3.720320  -16.521800   -5.086730
  C      3.552070  -16.783960   -6.433680
  C      3.825390  -18.115760   -6.742700
  C      4.201630  -18.872240   -5.618250
  S      4.220730  -17.941390   -4.185430
  C      4.465050  -20.201220   -6.031020
  C      4.251790  -20.283410   -7.423630
  C      3.856020  -18.974860   -7.915700
  C      3.613140  -18.629890   -9.212250
  C      3.249780  -17.319310   -9.588070
  N      2.948400  -16.257200   -9.895980
  C      3.719910  -19.577140  -10.252990
  N      3.808870  -20.362280  -11.083840
  C      4.512960  -21.544550   -7.937890
  C      4.930320  -22.436830   -6.958130
  S      4.960160  -21.684270   -5.364310
  C      5.262140  -23.800520   -7.076770
  C      5.575040  -24.521790   -8.192240
  C      5.465560  -26.005050   -8.126990
  O      5.323810  -26.677360   -7.133510
  C      5.513810  -26.457990   -9.534300
  C      5.760000  -25.355910  -10.372060
  C      5.810020  -25.524060  -11.746290
  C      5.620440  -26.802310  -12.250610
  C      5.393650  -27.894940  -11.411590
  C      5.335470  -27.732170  -10.036770
  F      5.225330  -29.111280  -11.941840
  F      5.653320  -26.988920  -13.573210
  C      5.950130  -24.163690   -9.543200
  C      6.612850  -23.034740   -9.947090
  C      7.010990  -22.001530   -9.076060
  N      7.379740  -21.151560   -8.398270
  C      7.066710  -22.816220  -11.266040
  N      7.458620  -22.589810  -12.319720
  H      5.843800   -8.030750    6.149910
  H      2.844790   -4.363070    7.709230
  H      2.363510   -4.314850    2.392650
  H      1.998940   -3.554740   -0.076160
  H      0.731090   -0.553110   -2.664840
  H     -0.190010   -1.713890   -3.672390
  H      1.505030   -1.360590   -4.064430
  H      2.319200   -8.842320   -2.908220
  H      1.016390  -12.178480   -5.993460
  H      3.126270   -7.712130   -8.004800
  H      1.776890   -7.025660   -7.104700
  H      1.465040   -8.031060   -8.531620
  H      5.428380  -12.391300    0.685340
  H      4.778730  -16.423390    3.350550
  H      4.559670  -17.486400    1.950270
  H      3.154210  -16.766320    2.731290
  H      4.133030  -15.735750   -2.413270
  H      3.249250  -16.029990   -7.138010
  H      4.365100  -21.829340   -8.963460
  H      5.199100  -24.388200   -6.165530
  H      5.975520  -24.709710  -12.432740
  H      5.156900  -28.574550   -9.387710

----------------------------
CARTESIAN COORDINATES (A.U.)
----------------------------
  NO LB      ZA    FRAG     MASS         X           Y           Z
   0 C     6.0000    0    12.011    9.813707  -13.657126   12.196954
   1 C     6.0000    0    12.011    9.398118  -13.248246   14.752865
   2 F     9.0000    0    18.998   10.534581  -14.752431   16.435251
   3 C     6.0000    0    12.011    7.821803  -11.313564   15.605283
   4 F     9.0000    0    18.998    7.487964  -10.978232   18.089403
   5 C     6.0000    0    12.011    6.593028   -9.740461   13.909291
   6 C     6.0000    0    12.011    6.987073  -10.159205   11.364038
   7 C     6.0000    0    12.011    8.592604  -12.090354   10.493649
   8 C     6.0000    0    12.011    8.694158  -11.977859    7.732759
   9 C     6.0000    0    12.011   10.628236  -12.897305    6.274269
  10 C     6.0000    0    12.011   12.576864  -14.459240    7.198855
  11 N     7.0000    0    14.007   14.175062  -15.769821    7.855799
  12 C     6.0000    0    12.011   10.977589  -12.203322    3.724934
  13 N     7.0000    0    14.007   11.363056  -11.583360    1.682234
  14 C     6.0000    0    12.011    6.751708  -10.239594    6.927471
  15 C     6.0000    0    12.011    5.878107   -8.809110    9.174885
  16 O     8.0000    0    15.999    4.489706   -6.995218    9.203042
  17 C     6.0000    0    12.011    5.588487   -9.867526    4.648726
  18 C     6.0000    0    12.011    5.467639  -11.464213    2.537411
  19 S    16.0000    0    32.060    6.111885  -14.704394    2.629195
  20 C     6.0000    0    12.011    5.373984  -15.143113   -0.537325
  21 C     6.0000    0    12.011    4.641942  -12.863763   -1.598746
  22 C     6.0000    0    12.011    4.645948  -10.797933    0.110530
  23 C     6.0000    0    12.011    3.900867   -8.521191   -1.066108
  24 C     6.0000    0    12.011    3.349067   -8.867502   -3.561302
  25 C     6.0000    0    12.011    2.514640   -7.008012   -5.441636
  26 O     8.0000    0    15.999    2.092229   -7.520581   -7.622418
  27 O     8.0000    0    15.999    2.279709   -4.697935   -4.444466
  28 C     6.0000    0    12.011    1.485344   -2.772493   -6.141251
  29 S    16.0000    0    32.060    3.716581  -11.972171   -4.607474
  30 C     6.0000    0    12.011    5.596783  -17.534731   -1.715134
  31 C     6.0000    0    12.011    5.101769  -18.089366   -4.195891
  32 C     6.0000    0    12.011    5.600166  -20.626361   -4.842234
  33 C     6.0000    0    12.011    5.257124  -21.802318   -7.213784
  34 C     6.0000    0    12.011    4.452762  -20.422044   -9.432379
  35 C     6.0000    0    12.011    2.885177  -21.228163  -11.321727
  36 C     6.0000    0    12.011    2.561940  -19.408508  -13.242691
  37 C     6.0000    0    12.011    3.884427  -17.221509  -12.876840
  38 S    16.0000    0    32.060    5.568210  -17.387673  -10.083295
  39 C     6.0000    0    12.011    3.983599  -14.927967  -14.485072
  40 Cl   17.0000    0    35.453    0.649763  -19.931773  -15.820050
  41 C     6.0000    0    12.011    5.768257  -24.378204   -7.312900
  42 C     6.0000    0    12.011    6.600927  -25.806856   -5.202662
  43 C     6.0000    0    12.011    6.941663  -24.629746   -2.832681
  44 C     6.0000    0    12.011    6.451412  -22.049891   -2.735171
  45 S    16.0000    0    32.060    6.679483  -20.170937   -0.040913
  46 C     6.0000    0    12.011    7.716678  -25.998436   -0.594527
  47 C     6.0000    0    12.011    9.254140  -25.179902    1.311281
  48 C     6.0000    0    12.011    9.486463  -26.953202    3.290240
  49 C     6.0000    0    12.011    8.128733  -29.119754    2.947500
  50 S    16.0000    0    32.060    6.533709  -28.998207    0.095223
  51 C     6.0000    0    12.011    7.922337  -31.352484    4.631473
  52 Cl   17.0000    0    35.453   11.328568  -26.389515    5.911044
  53 C     6.0000    0    12.011    7.111493  -28.343133   -5.862138
  54 C     6.0000    0    12.011    6.686040  -28.874241   -8.355462
  55 S    16.0000    0    32.060    5.604021  -26.233802  -10.026773
  56 C     6.0000    0    12.011    7.030386  -31.221677   -9.612527
  57 C     6.0000    0    12.011    6.712440  -31.717088  -12.157893
  58 C     6.0000    0    12.011    7.228939  -34.233825  -12.741856
  59 C     6.0000    0    12.011    7.939930  -35.663365  -10.616954
  60 S    16.0000    0    32.060    7.976024  -33.904314   -7.909316
  61 C     6.0000    0    12.011    8.437722  -38.174773  -11.396976
  62 C     6.0000    0    12.011    8.034719  -38.330090  -14.028628
  63 C     6.0000    0    12.011    7.286822  -35.857289  -14.958505
  64 C     6.0000    0    12.011    6.827845  -35.205390  -17.408630
  65 C     6.0000    0    12.011    6.141194  -32.728753  -18.118826
  66 N     7.0000    0    14.007    5.571669  -30.721656  -18.700692
  67 C     6.0000    0    12.011    7.029611  -36.995433  -19.375343
  68 N     7.0000    0    14.007    7.197721  -38.479133  -20.945422
  69 C     6.0000    0    12.011    8.528258  -40.713299  -15.000438
  70 C     6.0000    0    12.011    9.316955  -42.399464  -13.148960
  71 S    16.0000    0    32.060    9.373344  -40.977332  -10.137077
  72 C     6.0000    0    12.011    9.944003  -44.976465  -13.373157
  73 C     6.0000    0    12.011   10.535299  -46.339467  -15.481090
  74 C     6.0000    0    12.011   10.328412  -49.142423  -15.357785
  75 O     8.0000    0    15.999   10.060543  -50.412904  -13.480380
  76 C     6.0000    0    12.011   10.419591  -49.998355  -18.017216
  77 C     6.0000    0    12.011   10.884823  -47.915726  -19.600353
  78 C     6.0000    0    12.011   10.979347  -48.233483  -22.197271
  79 C     6.0000    0    12.011   10.621092  -50.649026  -23.150298
  80 C     6.0000    0    12.011   10.192521  -52.713797  -21.564780
  81 C     6.0000    0    12.011   10.082577  -52.406206  -18.966747
  82 F     9.0000    0    18.998    9.874443  -55.012347  -22.566807
  83 F     9.0000    0    18.998   10.683227  -51.001667  -25.649650
  84 C     6.0000    0    12.011   11.244116  -45.662756  -18.034034
  85 C     6.0000    0    12.011   12.496475  -43.529350  -18.797276
  86 C     6.0000    0    12.011   13.248851  -41.576866  -17.151268
  87 N     7.0000    0    14.007   13.945688  -39.970656  -15.870430
  88 C     6.0000    0    12.011   13.354147  -43.116407  -21.289730
  89 N     7.0000    0    14.007   14.094749  -42.688554  -23.280897
  90 H     1.0000    0     1.008   11.043182  -15.175918   11.621646
  91 H     1.0000    0     1.008    5.375874   -8.245007   14.568333
  92 H     1.0000    0     1.008    4.466387   -8.153885    4.521453
  93 H     1.0000    0     1.008    3.777449   -6.717485   -0.143922
  94 H     1.0000    0     1.008    1.381560   -1.045226   -5.035818
  95 H     1.0000    0     1.008   -0.359067   -3.238783   -6.939811
  96 H     1.0000    0     1.008    2.844095   -2.571142   -7.680660
  97 H     1.0000    0     1.008    4.382653  -16.709563   -5.495739
  98 H     1.0000    0     1.008    1.920699  -23.013992  -11.325998
  99 H     1.0000    0     1.008    5.907794  -14.573814  -15.126880
 100 H     1.0000    0     1.008    3.357835  -13.276573  -13.425937
 101 H     1.0000    0     1.008    2.768524  -15.176504  -16.122425
 102 H     1.0000    0     1.008   10.258152  -23.416163    1.295105
 103 H     1.0000    0     1.008    9.030491  -31.035709    6.331622
 104 H     1.0000    0     1.008    8.616528  -33.044507    3.685476
 105 H     1.0000    0     1.008    5.960593  -31.683753    5.161390
 106 H     1.0000    0     1.008    7.810295  -29.736258   -4.560419
 107 H     1.0000    0     1.008    6.140193  -30.292291  -13.488884
 108 H     1.0000    0     1.008    8.248844  -41.251474  -16.938485
 109 H     1.0000    0     1.008    9.824875  -46.087019  -11.651163
 110 H     1.0000    0     1.008   11.292096  -46.694585  -23.494474
 111 H     1.0000    0     1.008    9.745129  -53.998074  -17.740201

--------------------------------
INTERNAL COORDINATES (ANGSTROEM)
--------------------------------
 C      0   0   0     0.000000000000     0.00000000     0.00000000
 C      1   0   0     1.387270047323     0.00000000     0.00000000
 F      2   1   0     1.337106043252   119.01271444     0.00000000
 C      2   1   3     1.395501828376   121.62289398   180.15615435
 F      4   2   1     1.338175126693   119.58572308   180.41618110
 C      4   2   1     1.386093579272   120.77841065     0.59584959
 C      6   4   2     1.380831412809   117.66843871     0.00000000
 C      1   2   3     1.384697521085   117.85725263   179.30982198
 C      8   1   2     1.463199510832   131.08508016   177.78328640
 C      9   8   1     1.371093353277   125.10247580   338.13931562
 C     10   9   8     1.409207249981   123.98064467    11.38628872
 N     11  10   9     1.147648318693   177.24974670   153.96034701
 C     10   9   8     1.410311326268   122.94962357   196.64343652
 N     13  10   9     1.147907081518   176.84064788   113.20738807
 C      9   8   1     1.443709711853   107.12749108   171.47390327
 C      7   6   4     1.482164667539   128.69965031   178.55510933
 O     16   7   6     1.208871875345   127.86037962     3.58215207
 C     15   9   8     1.368124926386   132.23652140   198.38150969
 C     18  15   9     1.402236148086   129.49965435    17.83935588
 S     19  18  15     1.748868642351   124.03809395    17.65112575
 C     20  19  18     1.736138191072    93.46595951   176.98292696
 C     21  20  19     1.385791427019   109.73517482   359.55547274
 C     19  18  15     1.400956512994   126.36332958   192.47401984
 C     23  19  18     1.412335930613   134.86791790     5.29027668
 C     24  23  19     1.364662737676   111.82320917   177.50658502
 C     25  24  23     1.467418118499   129.08147769   180.07016947
 O     26  25  24     1.206357724268   123.61769385   179.47001813
 O     26  25  24     1.337258837473   111.92510454   359.37708481
 C     28  26  25     1.421648391692   115.68545036   179.78634441
 S     22  21  20     1.731280682327   133.55147081   179.14726954
 C     21  20  19     1.415656720748   121.71843377   178.30871581
 C     31  21  20     1.370437473984   126.67556990   180.93899267
 C     32  31  21     1.410284814816   113.60610766   177.48636237
 C     33  32  31     1.412496968457   127.64990534   179.00390992
 C     34  33  32     1.446728423547   122.43826456     4.14998667
 C     35  34  33     1.367366284980   127.90450190   216.46895041
 C     36  35  34     1.410604930447   112.80032366   181.74801851
 C     37  36  35     1.366239153662   114.45701754     0.78953439
 S     38  37  36     1.728282408549   110.01036017   359.70149087
 C     38  37  36     1.483262164319   129.04619349   180.27595152
 Cl    37  36  35     1.720681085733   122.18539780   180.83782626
 C     34  33  32     1.390666042909   116.12562471   183.38478328
 C     42  34  33     1.418697456507   123.57640678   359.68983190
 C     43  42  34     1.411872248364   120.24827245     0.36190246
 C     44  43  42     1.390588912979   116.24864978   359.15268022
 S     45  44  43     1.742392927471   125.28709249   178.95125303
 C     44  43  42     1.447596600300   122.83396402   178.18087005
 C     47  44  43     1.366250354327   127.88113655   144.31741879
 C     48  47  44     1.411509746371   112.87661550   176.21115462
 C     49  48  47     1.365118275975   114.45188690   359.40160215
 S     50  49  48     1.730527397789   109.96035408     0.52960923
 C     50  49  48     1.483910288023   128.87697590   180.38170124
 Cl    49  48  47     1.721226411894   122.13452444   179.67125815
 C     43  42  34     1.412842543385   111.78922347   183.29148229
 C     54  43  42     1.367669503279   113.70464595   359.65436675
 S     42  34  33     1.741895566933   125.02514744   182.47378043
 C     55  54  43     1.420842762800   127.60455238   179.54237602
 C     57  55  54     1.382501439638   127.32385444   183.35628238
 C     58  57  55     1.394233991409   111.91434554   179.62951346
 C     59  58  57     1.406487230834   112.89286849     0.14628953
 S     60  59  58     1.708747987534   112.35649354   359.88609405
 C     60  59  58     1.416318117409   108.74995659   180.34502802
 C     62  60  59     1.411239751353   108.30853248   359.91903619
 C     63  62  60     1.452952125949   108.83895737     0.57724086
 C     64  63  62     1.363465033582   126.75786450   177.14739896
 C     65  64  63     1.410989404071   122.28687555   180.88401481
 N     66  65  64     1.146174561138   179.64033145   240.64302759
 C     65  64  63     1.411319291656   121.19425548     0.63269312
 N     68  65  64     1.146590783017   178.92514412     8.78508013
 C     63  62  60     1.386775834841   112.98187857   178.63451296
 C     70  63  62     1.389346114401   112.27872210   359.79138449
 S     62  60  59     1.699727460124   139.33904821   179.33169927
 C     71  70  63     1.408485135917   129.28474726   178.68583946
 C     73  71  70     1.364701485234   129.38842108    17.69578873
 C     74  73  71     1.488725515500   118.28723286   199.15078312
 O     75  74  73     1.207930589479   126.81366835   347.76283831
 C     75  74  73     1.479190367127   105.12854691   165.58151667
 C     77  75  74     1.406069578684   109.42474111     5.15640260
 C     78  77  75     1.385382443876   120.14623833   181.90937697
 C     79  78  77     1.387156192107   117.87525156   359.54536367
 C     80  79  78     1.396147764887   121.65990793   359.61786506
 C     77  75  74     1.381237100899   128.63578315   186.15997650
 F     81  80  79     1.337527450373   119.59690904   180.46148796
 F     80  79  78     1.336104466911   119.02740767   179.46783686
 C     74  73  71     1.447073266874   133.76680352    15.10691428
 C     85  74  73     1.369982858652   127.19633341    29.26577273
 C     86  85  74     1.408805034276   123.97255717   358.23773624
 N     87  86  85     1.147965525397   177.24255142   146.63359931
 C     86  85  74     1.411867200731   123.94931773   173.21449315
 N     89  86  85     1.146776560015   177.15357906   183.31057627
 H      1   2   3     1.077927107832   119.16539593   359.96277367
 H      6   4   2     1.078299188630   120.76757007   180.03301642
 H     18  15   9     1.086022605198   114.88659775   192.09300493
 H     24  23  19     1.073983922831   125.08484707   357.69179511
 H     29  28  26     1.086580391964   106.12969151   179.63056029
 H     29  28  26     1.091821624305   110.29181207    59.69435148
 H     29  28  26     1.091763897232   110.27180138   299.52606726
 H     32  31  21     1.072884867868   122.42422122   356.80393335
 H     36  35  34     1.074037081483   124.35509212     4.49051676
 H     40  38  37     1.089625505667   110.64875049   240.48303557
 H     40  38  37     1.089700222492   110.50812632   121.10954683
 H     40  38  37     1.086954117247   109.72028019     0.76106321
 H     48  47  44     1.073991551410   124.34795891   353.61676351
 H     52  50  49     1.086922539742   109.54609644     1.31057776
 H     52  50  49     1.089610814420   110.70589896   241.11014803
 H     52  50  49     1.089512661009   110.65880079   121.53435628
 H     54  43  42     1.074580743267   123.99924228   178.29499210
 H     58  57  55     1.075291338289   122.64822096   359.85520474
 H     70  63  62     1.074598412711   124.68117043   176.74490719
 H     73  71  70     1.086140028541   116.07337955   202.26539629
 H     79  78  77     1.077854245712   123.06446665   178.73168248
 H     82  77  75     1.078318224320   121.53792943   358.25707732

---------------------------
INTERNAL COORDINATES (A.U.)
---------------------------
 C      0   0   0     0.000000000000     0.00000000     0.00000000
 C      1   0   0     2.621560463233     0.00000000     0.00000000
 F      2   1   0     2.526764233757   119.01271444     0.00000000
 C      2   1   3     2.637116275017   121.62289398   180.15615435
 F      4   2   1     2.528784508675   119.58572308   180.41618110
 C      4   2   1     2.619337260811   120.77841065     0.59584959
 C      6   4   2     2.609393207325   117.66843871     0.00000000
 C      1   2   3     2.616699093171   117.85725263   179.30982198
 C      8   1   2     2.765046354761   131.08508016   177.78328640
 C      9   8   1     2.590990941733   125.10247580   338.13931562
 C     10   9   8     2.663015768401   123.98064467    11.38628872
 N     11  10   9     2.168741020386   177.24974670   153.96034701
 C     10   9   8     2.665102170214   122.94962357   196.64343652
 N     13  10   9     2.169230011259   176.84064788   113.20738807
 C      9   8   1     2.728215972285   107.12749108   171.47390327
 C      7   6   4     2.800885307023   128.69965031   178.55510933
 O     16   7   6     2.284436775402   127.86037962     3.58215207
 C     15   9   8     2.585381427862   132.23652140   198.38150969
 C     18  15   9     2.649842294968   129.49965435    17.83935588
 S     19  18  15     3.304882778247   124.03809395    17.65112575
 C     20  19  18     3.280825711768    93.46595951   176.98292696
 C     21  20  19     2.618766275802   109.73517482   359.55547274
 C     19  18  15     2.647424135092   126.36332958   192.47401984
 C     23  19  18     2.668928117955   134.86791790     5.29027668
 C     24  23  19     2.578838839374   111.82320917   177.50658502
 C     25  24  23     2.773018367918   129.08147769   180.07016947
 O     26  25  24     2.279685718406   123.61769385   179.47001813
 O     26  25  24     2.527052972990   111.92510454   359.37708481
 C     28  26  25     2.686526119027   115.68545036   179.78634441
 S     22  21  20     3.271646350547   133.55147081   179.14726954
 C     21  20  19     2.675203501859   121.71843377   178.30871581
 C     31  21  20     2.589751509493   126.67556990   180.93899267
 C     32  31  21     2.665052070830   113.60610766   177.48636237
 C     33  32  31     2.669232435378   127.64990534   179.00390992
 C     34  33  32     2.733920510664   122.43826456     4.14998667
 C     35  34  33     2.583947803370   127.90450190   216.46895041
 C     36  35  34     2.665657001703   112.80032366   181.74801851
 C     37  36  35     2.581817833862   114.45701754     0.78953439
 S     38  37  36     3.265980434231   110.01036017   359.70149087
 C     38  37  36     2.802959275370   129.04619349   180.27595152
 Cl    37  36  35     3.251616015854   122.18539780   180.83782626
 C     34  33  32     2.627977964842   116.12562471   183.38478328
 C     42  34  33     2.680949659689   123.57640678   359.68983190
 C     43  42  34     2.668051885491   120.24827245     0.36190246
 C     44  43  42     2.627832210397   116.24864978   359.15268022
 S     45  44  43     3.292645450601   125.28709249   178.95125303
 C     44  43  42     2.735561126962   122.83396402   178.18087005
 C     47  44  43     2.581839000052   127.88113655   144.31741879
 C     48  47  44     2.667366856002   112.87661550   176.21115462
 C     49  48  47     2.579699682003   114.45188690   359.40160215
 S     50  49  48     3.270222849070   109.96035408     0.52960923
 C     50  49  48     2.804184051671   128.87697590   180.38170124
 Cl    49  48  47     3.252646532951   122.13452444   179.67125815
 C     43  42  34     2.669885477351   111.78922347   183.29148229
 C     54  43  42     2.584520802914   113.70464595   359.65436675
 S     42  34  33     3.291705575394   125.02514744   182.47378043
 C     55  54  43     2.685003701055   127.60455238   179.54237602
 C     57  55  54     2.612549100667   127.32385444   183.35628238
 C     58  57  55     2.634720410367   111.91434554   179.62951346
 C     59  58  57     2.657875677134   112.89286849     0.14628953
 S     60  59  58     3.229065728328   112.35649354   359.88609405
 C     60  59  58     2.676453360413   108.74995659   180.34502802
 C     62  60  59     2.666856639361   108.30853248   359.91903619
 C     63  62  60     2.745681603742   108.83895737     0.57724086
 C     64  63  62     2.576575506647   126.75786450   177.14739896
 C     65  64  63     2.666383551559   122.28687555   180.88401481
 N     66  65  64     2.165956022218   179.64033145   240.64302759
 C     65  64  63     2.667006948749   121.19425548     0.63269312
 N     68  65  64     2.166742567581   178.92514412     8.78508013
 C     63  62  60     2.620626536990   112.98187857   178.63451296
 C     70  63  62     2.625483661445   112.27872210   359.79138449
 S     62  60  59     3.212019401940   139.33904821   179.33169927
 C     71  70  63     2.661651170583   129.28474726   178.68583946
 C     73  71  70     2.578912061648   129.38842108    17.69578873
 C     74  73  71     2.813283512875   118.28723286   199.15078312
 O     75  74  73     2.282658002902   126.81366835   347.76283831
 C     75  74  73     2.795264693804   105.12854691   165.58151667
 C     77  75  74     2.657086428950   109.42474111     5.15640260
 C     78  77  75     2.617993409668   120.14623833   181.90937697
 C     79  78  77     2.621345308055   117.87525156   359.54536367
 C     80  79  78     2.638336918123   121.65990793   359.61786506
 C     77  75  74     2.610159846711   128.63578315   186.15997650
 F     81  80  79     2.527560577806   119.59690904   180.46148796
 F     80  79  78     2.524871528771   119.02740767   179.46783686
 C     74  73  71     2.734572170110   133.76680352    15.10691428
 C     85  74  73     2.588892411019   127.19633341    29.26577273
 C     86  85  74     2.662255690870   123.97255717   358.23773624
 N     87  86  85     2.169340454183   177.24255142   146.63359931
 C     86  85  74     2.668042346848   123.94931773   173.21449315
 N     89  86  85     2.167093635229   177.15357906   183.31057627
 H      1   2   3     2.036987026133   119.16539593   359.96277367
 H      6   4   2     2.037690156940   120.76757007   180.03301642
 H     18  15   9     2.052285299071   114.88659775   192.09300493
 H     24  23  19     2.029535486385   125.08484707   357.69179511
 H     29  28  26     2.053339363300   106.12969151   179.63056029
 H     29  28  26     2.063243857030   110.29181207    59.69435148
 H     29  28  26     2.063134768672   110.27180138   299.52606726
 H     32  31  21     2.027458573499   122.42422122   356.80393335
 H     36  35  34     2.029635941678   124.35509212     4.49051676
 H     40  38  37     2.059093794246   110.64875049   240.48303557
 H     40  38  37     2.059234988584   110.50812632   121.10954683
 H     40  38  37     2.054045601735   109.72028019     0.76106321
 H     48  47  44     2.029549902310   124.34795891   353.61676351
 H     52  50  49     2.053985928899   109.54609644     1.31057776
 H     52  50  49     2.059066031812   110.70589896   241.11014803
 H     52  50  49     2.058880548748   110.65880079   121.53435628
 H     54  43  42     2.030663313560   123.99924228   178.29499210
 H     58  57  55     2.032006143544   122.64822096   359.85520474
 H     70  63  62     2.030696703969   124.68117043   176.74490719
 H     73  71  70     2.052507197033   116.07337955   202.26539629
 H     79  78  77     2.036849336680   123.06446665   178.73168248
 H     82  77  75     2.037726129181   121.53792943   358.25707732

---------------------
BASIS SET INFORMATION
---------------------
There are 7 groups of distinct atoms

 Group   1 Type C   : 7s4p1d contracted to 3s2p1d pattern {511/31/1}
 Group   2 Type F   : 7s4p1d contracted to 3s2p1d pattern {511/31/1}
 Group   3 Type N   : 7s4p1d contracted to 3s2p1d pattern {511/31/1}
 Group   4 Type O   : 7s4p1d contracted to 3s2p1d pattern {511/31/1}
 Group   5 Type S   : 10s7p1d contracted to 4s3p1d pattern {5311/511/1}
 Group   6 Type Cl  : 10s7p1d contracted to 4s3p1d pattern {5311/511/1}
 Group   7 Type H   : 4s1p contracted to 2s1p pattern {31/1}

Atom   0C    basis set group =>   1
Atom   1C    basis set group =>   1
Atom   2F    basis set group =>   2
Atom   3C    basis set group =>   1
Atom   4F    basis set group =>   2
Atom   5C    basis set group =>   1
Atom   6C    basis set group =>   1
Atom   7C    basis set group =>   1
Atom   8C    basis set group =>   1
Atom   9C    basis set group =>   1
Atom  10C    basis set group =>   1
Atom  11N    basis set group =>   3
Atom  12C    basis set group =>   1
Atom  13N    basis set group =>   3
Atom  14C    basis set group =>   1
Atom  15C    basis set group =>   1
Atom  16O    basis set group =>   4
Atom  17C    basis set group =>   1
Atom  18C    basis set group =>   1
Atom  19S    basis set group =>   5
Atom  20C    basis set group =>   1
Atom  21C    basis set group =>   1
Atom  22C    basis set group =>   1
Atom  23C    basis set group =>   1
Atom  24C    basis set group =>   1
Atom  25C    basis set group =>   1
Atom  26O    basis set group =>   4
Atom  27O    basis set group =>   4
Atom  28C    basis set group =>   1
Atom  29S    basis set group =>   5
Atom  30C    basis set group =>   1
Atom  31C    basis set group =>   1
Atom  32C    basis set group =>   1
Atom  33C    basis set group =>   1
Atom  34C    basis set group =>   1
Atom  35C    basis set group =>   1
Atom  36C    basis set group =>   1
Atom  37C    basis set group =>   1
Atom  38S    basis set group =>   5
Atom  39C    basis set group =>   1
Atom  40Cl   basis set group =>   6
Atom  41C    basis set group =>   1
Atom  42C    basis set group =>   1
Atom  43C    basis set group =>   1
Atom  44C    basis set group =>   1
Atom  45S    basis set group =>   5
Atom  46C    basis set group =>   1
Atom  47C    basis set group =>   1
Atom  48C    basis set group =>   1
Atom  49C    basis set group =>   1
Atom  50S    basis set group =>   5
Atom  51C    basis set group =>   1
Atom  52Cl   basis set group =>   6
Atom  53C    basis set group =>   1
Atom  54C    basis set group =>   1
Atom  55S    basis set group =>   5
Atom  56C    basis set group =>   1
Atom  57C    basis set group =>   1
Atom  58C    basis set group =>   1
Atom  59C    basis set group =>   1
Atom  60S    basis set group =>   5
Atom  61C    basis set group =>   1
Atom  62C    basis set group =>   1
Atom  63C    basis set group =>   1
Atom  64C    basis set group =>   1
Atom  65C    basis set group =>   1
Atom  66N    basis set group =>   3
Atom  67C    basis set group =>   1
Atom  68N    basis set group =>   3
Atom  69C    basis set group =>   1
Atom  70C    basis set group =>   1
Atom  71S    basis set group =>   5
Atom  72C    basis set group =>   1
Atom  73C    basis set group =>   1
Atom  74C    basis set group =>   1
Atom  75O    basis set group =>   4
Atom  76C    basis set group =>   1
Atom  77C    basis set group =>   1
Atom  78C    basis set group =>   1
Atom  79C    basis set group =>   1
Atom  80C    basis set group =>   1
Atom  81C    basis set group =>   1
Atom  82F    basis set group =>   2
Atom  83F    basis set group =>   2
Atom  84C    basis set group =>   1
Atom  85C    basis set group =>   1
Atom  86C    basis set group =>   1
Atom  87N    basis set group =>   3
Atom  88C    basis set group =>   1
Atom  89N    basis set group =>   3
Atom  90H    basis set group =>   7
Atom  91H    basis set group =>   7
Atom  92H    basis set group =>   7
Atom  93H    basis set group =>   7
Atom  94H    basis set group =>   7
Atom  95H    basis set group =>   7
Atom  96H    basis set group =>   7
Atom  97H    basis set group =>   7
Atom  98H    basis set group =>   7
Atom  99H    basis set group =>   7
Atom 100H    basis set group =>   7
Atom 101H    basis set group =>   7
Atom 102H    basis set group =>   7
Atom 103H    basis set group =>   7
Atom 104H    basis set group =>   7
Atom 105H    basis set group =>   7
Atom 106H    basis set group =>   7
Atom 107H    basis set group =>   7
Atom 108H    basis set group =>   7
Atom 109H    basis set group =>   7
Atom 110H    basis set group =>   7
Atom 111H    basis set group =>   7
---------------------------------
AUXILIARY/J BASIS SET INFORMATION
---------------------------------
There are 7 groups of distinct atoms

 Group   1 Type C   : 12s5p4d2f1g contracted to 6s4p3d1f1g pattern {711111/2111/211/2/1}
 Group   2 Type F   : 12s5p4d2f1g contracted to 6s4p3d1f1g pattern {711111/2111/211/2/1}
 Group   3 Type N   : 12s5p4d2f1g contracted to 6s4p3d1f1g pattern {711111/2111/211/2/1}
 Group   4 Type O   : 12s5p4d2f1g contracted to 6s4p3d1f1g pattern {711111/2111/211/2/1}
 Group   5 Type S   : 14s5p5d2f1g contracted to 8s4p3d1f1g pattern {71111111/2111/311/2/1}
 Group   6 Type Cl  : 14s5p5d2f1g contracted to 8s4p3d1f1g pattern {71111111/2111/311/2/1}
 Group   7 Type H   : 5s2p1d contracted to 3s1p1d pattern {311/2/1}

Atom   0C    basis set group =>   1
Atom   1C    basis set group =>   1
Atom   2F    basis set group =>   2
Atom   3C    basis set group =>   1
Atom   4F    basis set group =>   2
Atom   5C    basis set group =>   1
Atom   6C    basis set group =>   1
Atom   7C    basis set group =>   1
Atom   8C    basis set group =>   1
Atom   9C    basis set group =>   1
Atom  10C    basis set group =>   1
Atom  11N    basis set group =>   3
Atom  12C    basis set group =>   1
Atom  13N    basis set group =>   3
Atom  14C    basis set group =>   1
Atom  15C    basis set group =>   1
Atom  16O    basis set group =>   4
Atom  17C    basis set group =>   1
Atom  18C    basis set group =>   1
Atom  19S    basis set group =>   5
Atom  20C    basis set group =>   1
Atom  21C    basis set group =>   1
Atom  22C    basis set group =>   1
Atom  23C    basis set group =>   1
Atom  24C    basis set group =>   1
Atom  25C    basis set group =>   1
Atom  26O    basis set group =>   4
Atom  27O    basis set group =>   4
Atom  28C    basis set group =>   1
Atom  29S    basis set group =>   5
Atom  30C    basis set group =>   1
Atom  31C    basis set group =>   1
Atom  32C    basis set group =>   1
Atom  33C    basis set group =>   1
Atom  34C    basis set group =>   1
Atom  35C    basis set group =>   1
Atom  36C    basis set group =>   1
Atom  37C    basis set group =>   1
Atom  38S    basis set group =>   5
Atom  39C    basis set group =>   1
Atom  40Cl   basis set group =>   6
Atom  41C    basis set group =>   1
Atom  42C    basis set group =>   1
Atom  43C    basis set group =>   1
Atom  44C    basis set group =>   1
Atom  45S    basis set group =>   5
Atom  46C    basis set group =>   1
Atom  47C    basis set group =>   1
Atom  48C    basis set group =>   1
Atom  49C    basis set group =>   1
Atom  50S    basis set group =>   5
Atom  51C    basis set group =>   1
Atom  52Cl   basis set group =>   6
Atom  53C    basis set group =>   1
Atom  54C    basis set group =>   1
Atom  55S    basis set group =>   5
Atom  56C    basis set group =>   1
Atom  57C    basis set group =>   1
Atom  58C    basis set group =>   1
Atom  59C    basis set group =>   1
Atom  60S    basis set group =>   5
Atom  61C    basis set group =>   1
Atom  62C    basis set group =>   1
Atom  63C    basis set group =>   1
Atom  64C    basis set group =>   1
Atom  65C    basis set group =>   1
Atom  66N    basis set group =>   3
Atom  67C    basis set group =>   1
Atom  68N    basis set group =>   3
Atom  69C    basis set group =>   1
Atom  70C    basis set group =>   1
Atom  71S    basis set group =>   5
Atom  72C    basis set group =>   1
Atom  73C    basis set group =>   1
Atom  74C    basis set group =>   1
Atom  75O    basis set group =>   4
Atom  76C    basis set group =>   1
Atom  77C    basis set group =>   1
Atom  78C    basis set group =>   1
Atom  79C    basis set group =>   1
Atom  80C    basis set group =>   1
Atom  81C    basis set group =>   1
Atom  82F    basis set group =>   2
Atom  83F    basis set group =>   2
Atom  84C    basis set group =>   1
Atom  85C    basis set group =>   1
Atom  86C    basis set group =>   1
Atom  87N    basis set group =>   3
Atom  88C    basis set group =>   1
Atom  89N    basis set group =>   3
Atom  90H    basis set group =>   7
Atom  91H    basis set group =>   7
Atom  92H    basis set group =>   7
Atom  93H    basis set group =>   7
Atom  94H    basis set group =>   7
Atom  95H    basis set group =>   7
Atom  96H    basis set group =>   7
Atom  97H    basis set group =>   7
Atom  98H    basis set group =>   7
Atom  99H    basis set group =>   7
Atom 100H    basis set group =>   7
Atom 101H    basis set group =>   7
Atom 102H    basis set group =>   7
Atom 103H    basis set group =>   7
Atom 104H    basis set group =>   7
Atom 105H    basis set group =>   7
Atom 106H    basis set group =>   7
Atom 107H    basis set group =>   7
Atom 108H    basis set group =>   7
Atom 109H    basis set group =>   7
Atom 110H    basis set group =>   7
Atom 111H    basis set group =>   7


           ************************************************************
           *        Program running with 6 parallel MPI-processes     *
           *              working on a common directory               *
           ************************************************************
------------------------------------------------------------------------------
                           ORCA GTO INTEGRAL CALCULATION
                           -- RI-GTO INTEGRALS CHOSEN --
------------------------------------------------------------------------------

                         BASIS SET STATISTICS AND STARTUP INFO

Gaussian basis set:
 # of primitive gaussian shells          ... 1250
 # of primitive gaussian functions       ... 2434
 # of contracted shells                  ...  626
 # of contracted basis functions         ... 1410
 Highest angular momentum                ...    2
 Maximum contraction depth               ...    5
Auxiliary gaussian basis set:
 # of primitive gaussian shells          ... 2366
 # of primitive gaussian functions       ... 6722
 # of contracted shells                  ... 1480
 # of contracted aux-basis functions     ... 4672
 Highest angular momentum                ...    4
 Maximum contraction depth               ...    7
Ratio of auxiliary to basis functions    ...  3.31
Integral package used                  ... LIBINT
 One Electron integrals                  ... done
 Ordering auxiliary basis shells         ... done
 Integral threshhold             Thresh  ...  2.500e-11
 Primitive cut-off               TCut    ...  2.500e-12
 Pre-screening matrix                    ... done
 Shell pair data                         ... 
 Ordering of the shell pairs             ... done (   0.012 sec) 53092 of 196251 pairs
 Determination of significant pairs      ... done (   0.000 sec)
 Creation of shell pair data             ... done (   0.007 sec)
 Storage of shell pair data              ... done (   0.011 sec)
 Shell pair data done in (   0.030 sec)
 Computing two index integrals           ... done
 Cholesky decomposition of the V-matrix  ... done


Timings:
 Total evaluation time                   ...   3.324 sec (  0.055 min)
 One electron matrix time                ...   0.770 sec (  0.013 min) = 23.2%
 Schwartz matrix evaluation time         ...   1.043 sec (  0.017 min) = 31.4%
 Two index repulsion integral time       ...   0.529 sec (  0.009 min) = 15.9%
 Cholesky decomposition of V             ...   0.933 sec (  0.016 min) = 28.1%
 Three index repulsion integral time     ...   0.000 sec (  0.000 min) =  0.0%



           ************************************************************
           *        Program running with 6 parallel MPI-processes     *
           *              working on a common directory               *
           ************************************************************
-------------------------------------------------------------------------------
                                 ORCA SCF
-------------------------------------------------------------------------------

------------
SCF SETTINGS
------------
Hamiltonian:
 Density Functional     Method          .... DFT(GTOs)
 Exchange Functional    Exchange        .... WB88
 Correlation Functional Correlation     .... LYP
 LDA part of GGA corr.  LDAOpt          .... VWN-5
 Gradients option       PostSCFGGA      .... off
 Hybrid DFT is turned on
   Fraction HF Exchange ScalHFX         ....  0.190000
   Scaling of DF-GGA-X  ScalDFX         ....  0.350000
   Scaling of DF-GGA-C  ScalDFC         ....  0.810000
   Scaling of DF-LDA-C  ScalLDAC        ....  1.000000
   Perturbative correction              ....  0.000000
   Density functional embedding theory  .... OFF
 Long-range corrected/Screened/Range-Separated Hybrid DFT is turned on
   Amount of maximum screened exact exchange              ....  0.460000
   Range separation parameter mu (erf(mu*r12)/r12)        ....  0.330000
 RI-approximation to the Coulomb term is turned on
   Number of auxiliary basis functions  .... 4672
   RIJ-COSX (HFX calculated with COS-X)).... on


General Settings:
 Integral files         IntName         .... xtbopt
 Hartree-Fock type      HFTyp           .... RHF
 Total Charge           Charge          ....    0
 Multiplicity           Mult            ....    1
 Number of Electrons    NEL             ....  690
 Basis Dimension        Dim             .... 1410
 Nuclear Repulsion      ENuc            ....  16516.8894067754 Eh

Convergence Acceleration:
 DIIS                   CNVDIIS         .... on
   Start iteration      DIISMaxIt       ....    12
   Startup error        DIISStart       ....  0.200000
   # of expansion vecs  DIISMaxEq       ....     5
   Bias factor          DIISBfac        ....   1.050
   Max. coefficient     DIISMaxC        ....  10.000
 Newton-Raphson         CNVNR           .... off
 SOSCF                  CNVSOSCF        .... on
   Start iteration      SOSCFMaxIt      ....   150
   Startup grad/error   SOSCFStart      ....  0.003300
 Level Shifting         CNVShift        .... on
   Level shift para.    LevelShift      ....    0.2500
   Turn off err/grad.   ShiftErr        ....    0.0010
 Zerner damping         CNVZerner       .... off
 Static damping         CNVDamp         .... on
   Fraction old density DampFac         ....    0.7000
   Max. Damping (<1)    DampMax         ....    0.9800
   Min. Damping (>=0)   DampMin         ....    0.0000
   Turn off err/grad.   DampErr         ....    0.1000
 Fernandez-Rico         CNVRico         .... off

SCF Procedure:
 Maximum # iterations   MaxIter         ....   125
 SCF integral mode      SCFMode         .... Direct
   Integral package                     .... LIBINT
 Reset frequency        DirectResetFreq ....    20
 Integral Threshold     Thresh          ....  2.500e-11 Eh
 Primitive CutOff       TCut            ....  2.500e-12 Eh

Convergence Tolerance:
 Convergence Check Mode ConvCheckMode   .... Total+1el-Energy
 Convergence forced     ConvForced      .... 1
 Energy Change          TolE            ....  1.000e-08 Eh
 1-El. energy change                    ....  1.000e-05 Eh
 Orbital Gradient       TolG            ....  1.000e-05
 Orbital Rotation angle TolX            ....  1.000e-05
 DIIS Error             TolErr          ....  5.000e-07


Diagonalization of the overlap matrix:
Smallest eigenvalue                        ... 1.769e-04
Time for diagonalization                   ...    0.337 sec
Threshold for overlap eigenvalues          ... 1.000e-08
Number of eigenvalues below threshold      ... 0
Time for construction of square roots      ...    0.241 sec
Total time needed                          ...    0.583 sec

-------------------
DFT GRID GENERATION
-------------------

General Integration Accuracy     IntAcc      ...  4.670
Radial Grid Type                 RadialGrid  ... Gauss-Chebyshev
Angular Grid (max. acc.)         AngularGrid ... Lebedev-302
Angular grid pruning method      GridPruning ... 3 (G Style)
Weight generation scheme         WeightScheme... Becke
Basis function cutoff            BFCut       ...    1.0000e-11
Integration weight cutoff        WCut        ...    1.0000e-14
Grids for H and He will be reduced by one unit

# of grid points (after initial pruning)     ... 640112 (   0.0 sec)
# of grid points (after weights+screening)   ... 549896 (   9.3 sec)
nearest neighbour list constructed           ...    0.0 sec
Grid point re-assignment to atoms done       ...    0.1 sec
Grid point division into batches done        ...    2.1 sec
Reduced shell lists constructed in    3.4 sec

Total number of grid points                  ...   549896
Total number of batches                      ...     8650
Average number of points per batch           ...       63
Average number of grid points per atom       ...     4910
Average number of shells per batch           ...    81.84 (13.07%)
Average number of basis functions per batch  ...   177.75 (12.61%)
Average number of large shells per batch     ...    50.94 (62.24%)
Average number of large basis fcns per batch ...   112.01 (63.02%)
Maximum spatial batch extension              ...  19.59, 18.43, 18.57 au
Average spatial batch extension              ...   0.38,  0.38,  0.35 au

Time for grid setup =   13.163 sec

------------------------------
INITIAL GUESS: MODEL POTENTIAL
------------------------------
Loading Hartree-Fock densities                     ... done
Calculating cut-offs                               ... done
Setting up the integral package                    ... done
Initializing the effective Hamiltonian             ... done
Starting the Coulomb interaction                   ... done (   2.0 sec)
Reading the grid                                   ... done
Mapping shells                                     ... done
Starting the XC term evaluation                    ... done (   1.7 sec)
  promolecular density results
     # of electrons  =    689.988569290
     EX              =   -710.166632605
     EC              =    -24.393298940
     EX+EC           =   -734.559931545
Transforming the Hamiltonian                       ... done (   0.1 sec)
Diagonalizing the Hamiltonian                      ... done (   0.3 sec)
Back transforming the eigenvectors                 ... done (   0.1 sec)
Now organizing SCF variables                       ... done
                      ------------------
                      INITIAL GUESS DONE (  17.6 sec)
                      ------------------
--------------------
COSX GRID GENERATION
--------------------

General Integration Accuracy     IntAcc      ...  3.340
Radial Grid Type                 RadialGrid  ... Gauss-Chebyshev
Angular Grid (max. acc.)         AngularGrid ... Lebedev-50
Angular grid pruning method      GridPruning ... 3 (G Style)
Weight generation scheme         WeightScheme... Becke
Basis function cutoff            BFCut       ...    1.0000e-11
Integration weight cutoff        WCut        ...    1.0000e-14
Grids for H and He will be reduced by one unit

# of grid points (after initial pruning)     ...  60416 (   0.0 sec)
# of grid points (after weights+screening)   ...  54379 (   0.9 sec)
nearest neighbour list constructed           ...    0.0 sec
Grid point re-assignment to atoms done       ...    0.0 sec
Grid point division into batches done        ...    0.0 sec
Reduced shell lists constructed in    0.2 sec

Total number of grid points                  ...    54379
Total number of batches                      ...      915
Average number of points per batch           ...       59
Average number of grid points per atom       ...      486
Average number of shells per batch           ...   100.27 (16.02%)
Average number of basis functions per batch  ...   219.45 (15.56%)
Average number of large shells per batch     ...    61.97 (61.81%)
Average number of large basis fcns per batch ...   137.77 (62.78%)
Maximum spatial batch extension              ...  20.68, 21.07, 14.75 au
Average spatial batch extension              ...   0.86,  0.84,  0.61 au

Overlap Fitting                  UseSFitting ... on
Constructing numerical overlap ... done (      0.1 sec)
Inverting numerical overlap    ... done (      0.1 sec)
Obtaining analytic overlap     ... done (      0.0 sec)
Final contraction and storage  ... done (      0.1 sec)


General Integration Accuracy     IntAcc      ...  3.670
Radial Grid Type                 RadialGrid  ... Gauss-Chebyshev
Angular Grid (max. acc.)         AngularGrid ... Lebedev-50
Angular grid pruning method      GridPruning ... 3 (G Style)
Weight generation scheme         WeightScheme... Becke
Basis function cutoff            BFCut       ...    1.0000e-11
Integration weight cutoff        WCut        ...    1.0000e-14
Grids for H and He will be reduced by one unit

# of grid points (after initial pruning)     ...  74820 (   0.0 sec)
# of grid points (after weights+screening)   ...  67111 (   1.1 sec)
nearest neighbour list constructed           ...    0.0 sec
Grid point re-assignment to atoms done       ...    0.0 sec
Grid point division into batches done        ...    0.0 sec
Reduced shell lists constructed in    0.2 sec

Total number of grid points                  ...    67111
Total number of batches                      ...     1102
Average number of points per batch           ...       60
Average number of grid points per atom       ...      599
Average number of shells per batch           ...    98.45 (15.73%)
Average number of basis functions per batch  ...   215.39 (15.28%)
Average number of large shells per batch     ...    60.55 (61.50%)
Average number of large basis fcns per batch ...   134.24 (62.32%)
Maximum spatial batch extension              ...  27.90, 21.75, 17.72 au
Average spatial batch extension              ...   0.81,  0.78,  0.60 au

Overlap Fitting                  UseSFitting ... on
Constructing numerical overlap ... done (      0.1 sec)
Inverting numerical overlap    ... done (      0.1 sec)
Obtaining analytic overlap     ... done (      0.0 sec)
Final contraction and storage  ... done (      0.1 sec)


General Integration Accuracy     IntAcc      ...  4.010
Radial Grid Type                 RadialGrid  ... Gauss-Chebyshev
Angular Grid (max. acc.)         AngularGrid ... Lebedev-110
Angular grid pruning method      GridPruning ... 3 (G Style)
Weight generation scheme         WeightScheme... Becke
Basis function cutoff            BFCut       ...    1.0000e-11
Integration weight cutoff        WCut        ...    1.0000e-14
Grids for H and He will be reduced by one unit

# of grid points (after initial pruning)     ... 148232 (   0.0 sec)
# of grid points (after weights+screening)   ... 131205 (   2.2 sec)
nearest neighbour list constructed           ...    0.0 sec
Grid point re-assignment to atoms done       ...    0.0 sec
Grid point division into batches done        ...    0.1 sec
Reduced shell lists constructed in    0.5 sec

Total number of grid points                  ...   131205
Total number of batches                      ...     2111
Average number of points per batch           ...       62
Average number of grid points per atom       ...     1171
Average number of shells per batch           ...    92.35 (14.75%)
Average number of basis functions per batch  ...   201.71 (14.31%)
Average number of large shells per batch     ...    57.39 (62.14%)
Average number of large basis fcns per batch ...   126.95 (62.94%)
Maximum spatial batch extension              ...  19.83, 19.79, 18.83 au
Average spatial batch extension              ...   0.63,  0.63,  0.52 au

Overlap Fitting                  UseSFitting ... on
Constructing numerical overlap ... done (      0.2 sec)
Inverting numerical overlap    ... done (      0.1 sec)
Obtaining analytic overlap     ... done (      0.0 sec)
Final contraction and storage  ... done (      0.1 sec)

Time for X-Grid setup             =    6.460 sec
--------------
SCF ITERATIONS
--------------
ITER       Energy         Delta-E        Max-DP      RMS-DP      [F,P]     Damp
               ***  Starting incremental Fock matrix formation  ***
  0  -7655.5000456496   0.000000000000 0.08059716  0.00093092  0.2430484 0.7000
  1  -7656.2754120992  -0.775366449658 0.05448354  0.00065305  0.1084786 0.7000
                               ***Turning on DIIS***
  2  -7656.5944022745  -0.318990175267 0.10633605  0.00115862  0.0408319 0.0000
  3  -7657.1056084463  -0.511206171754 0.05488492  0.00050166  0.0623117 0.0000
  4  -7657.2161113622  -0.110502915941 0.01735955  0.00016880  0.0217454 0.0000
  5  -7657.2241713892  -0.008060027008 0.00865108  0.00007071  0.0107370 0.0000
                      *** Initiating the SOSCF procedure ***
                           *** Shutting down DIIS ***
                      *** Re-Reading the Fockian *** 
                      *** Removing any level shift *** 
ITER      Energy       Delta-E        Grad      Rot      Max-DP    RMS-DP
  6  -7657.22600639  -0.0018349961  0.002500  0.002500  0.003450  0.000040
               *** Restarting incremental Fock matrix formation ***
  7  -7657.22661347  -0.0006070884  0.001977  0.014388  0.004783  0.000043
  8  -7657.22705905  -0.0004455762  0.000477  0.014204  0.006462  0.000059
  9  -7657.22706337  -0.0000043174  0.000974  0.003147  0.002124  0.000021
 10  -7657.22721059  -0.0001472243  0.000172  0.001068  0.001062  0.000009
 11  -7657.22720834   0.0000022523  0.000184  0.000941  0.000534  0.000005
 12  -7657.22721846  -0.0000101258  0.000028  0.000322  0.000302  0.000002
 13  -7657.22721848  -0.0000000126  0.000038  0.000085  0.000149  0.000001
 14  -7657.22721897  -0.0000004952  0.000014  0.000092  0.000054  0.000000
 15  -7657.22721898  -0.0000000070  0.000019  0.000044  0.000028  0.000000
 16  -7657.22721904  -0.0000000602  0.000004  0.000031  0.000016  0.000000
 17  -7657.22721905  -0.0000000060  0.000005  0.000009  0.000008  0.000000
                  ***Gradient check signals convergence***
              ***Rediagonalizing the Fockian in SOSCF/NRSCF***

               *****************************************************
               *                     SUCCESS                       *
               *           SCF CONVERGED AFTER  18 CYCLES          *
               *****************************************************

Setting up the final grid:

General Integration Accuracy     IntAcc      ...  5.010
Radial Grid Type                 RadialGrid  ... Gauss-Chebyshev
Angular Grid (max. acc.)         AngularGrid ... Lebedev-434
Angular grid pruning method      GridPruning ... 3 (G Style)
Weight generation scheme         WeightScheme... Becke
Basis function cutoff            BFCut       ...    1.0000e-11
Integration weight cutoff        WCut        ...    1.0000e-14
Grids for H and He will be reduced by one unit

# of grid points (after initial pruning)     ... 1121160 (   0.1 sec)
# of grid points (after weights+screening)   ... 959864 (  16.0 sec)
nearest neighbour list constructed           ...    0.0 sec
Grid point re-assignment to atoms done       ...    0.1 sec
Grid point division into batches done        ...    6.7 sec
Reduced shell lists constructed in    8.8 sec

Total number of grid points                  ...   959864
Total number of batches                      ...    15052
Average number of points per batch           ...       63
Average number of grid points per atom       ...     8570
Average number of shells per batch           ...    79.53 (12.70%)
Average number of basis functions per batch  ...   172.39 (12.23%)
Average number of large shells per batch     ...    49.51 (62.25%)
Average number of large basis fcns per batch ...   108.67 (63.04%)
Maximum spatial batch extension              ...  19.56, 17.13, 18.44 au
Average spatial batch extension              ...   0.31,  0.31,  0.29 au

Final grid set up in   25.4 sec
Final integration                            ... done (   3.9 sec)
Change in XC energy                          ...    -0.000071522
Integrated number of electrons               ...   689.999997939
Previous integrated no of electrons          ...   689.999808901
Old exchange energy                            =   -190.825304908 Eh
New exchange energy                            =   -190.820903721 Eh
Exchange energy change after final integration =      0.004401187 Eh
Total energy after final integration           =  -7657.222889422 Eh
Final COS-X integration done in                =    85.434 sec

----------------
TOTAL SCF ENERGY
----------------

Total Energy       :        -7657.22288942 Eh         -208363.62782 eV

Components:
Nuclear Repulsion  :        16516.88940678 Eh          449447.41022 eV
Electronic Energy  :       -24174.11229620 Eh         -657811.03805 eV
One Electron Energy:       -43434.26614226 Eh        -1181906.46869 eV
Two Electron Energy:        19260.15384606 Eh          524095.43065 eV

Virial components:
Potential Energy   :       -15274.02205122 Eh         -415627.27010 eV
Kinetic Energy     :         7616.79916180 Eh          207263.64227 eV
Virial Ratio       :            2.00530718


DFT components:
N(Alpha)           :      344.999998969596 electrons
N(Beta)            :      344.999998969596 electrons
N(Total)           :      689.999997939192 electrons
E(XC)              :     -553.541985930789 Eh       
DFET-embed. en.    :        0.000000000000 Eh       

---------------
SCF CONVERGENCE
---------------

  Last Energy change         ...   -4.0458e-08  Tolerance :   1.0000e-08
  Last MAX-Density change    ...    8.4377e-15  Tolerance :   1.0000e-07
  Last RMS-Density change    ...    3.9762e-17  Tolerance :   5.0000e-09
  Last Orbital Gradient      ...    8.0241e-07  Tolerance :   1.0000e-05
  Last Orbital Rotation      ...    5.6011e-06  Tolerance :   1.0000e-05

             **** THE GBW FILE WAS UPDATED (xtbopt.gbw) ****
             **** DENSITY FILE WAS UPDATED (xtbopt.scfp) ****
             **** ENERGY FILE WAS UPDATED (xtbopt.en.tmp) ****
             **** THE GBW FILE WAS UPDATED (xtbopt.gbw) ****
             **** DENSITY FILE WAS UPDATED (xtbopt.scfp) ****
----------------
ORBITAL ENERGIES
----------------

  NO   OCC          E(Eh)            E(eV) 
   0   2.0000    -101.588696     -2764.3690 
   1   2.0000    -101.585642     -2764.2858 
   2   2.0000     -89.002913     -2421.8924 
   3   2.0000     -89.001403     -2421.8513 
   4   2.0000     -88.988877     -2421.5105 
   5   2.0000     -88.977118     -2421.1905 
   6   2.0000     -88.969018     -2420.9701 
   7   2.0000     -88.968689     -2420.9611 
   8   2.0000     -88.967524     -2420.9294 
   9   2.0000     -88.964069     -2420.8354 
  10   2.0000     -24.804741      -674.9713 
  11   2.0000     -24.803936      -674.9494 
  12   2.0000     -24.803039      -674.9250 
  13   2.0000     -24.802795      -674.9184 
  14   2.0000     -19.275277      -524.5070 
  15   2.0000     -19.225364      -523.1487 
  16   2.0000     -19.221020      -523.0305 
  17   2.0000     -19.220280      -523.0104 
  18   2.0000     -14.438714      -392.8974 
  19   2.0000     -14.436935      -392.8490 
  20   2.0000     -14.425262      -392.5313 
  21   2.0000     -14.420282      -392.3958 
  22   2.0000     -14.419777      -392.3821 
  23   2.0000     -14.417673      -392.3248 
  24   2.0000     -10.419846      -283.5384 
  25   2.0000     -10.390757      -282.7469 
  26   2.0000     -10.390049      -282.7276 
  27   2.0000     -10.388950      -282.6977 
  28   2.0000     -10.387986      -282.6715 
  29   2.0000     -10.376980      -282.3720 
  30   2.0000     -10.373943      -282.2893 
  31   2.0000     -10.373195      -282.2690 
  32   2.0000     -10.360700      -281.9290 
  33   2.0000     -10.353123      -281.7228 
  34   2.0000     -10.352256      -281.6992 
  35   2.0000     -10.350889      -281.6620 
  36   2.0000     -10.348681      -281.6019 
  37   2.0000     -10.347933      -281.5816 
  38   2.0000     -10.345463      -281.5144 
  39   2.0000     -10.342800      -281.4419 
  40   2.0000     -10.340349      -281.3752 
  41   2.0000     -10.338769      -281.3322 
  42   2.0000     -10.336642      -281.2743 
  43   2.0000     -10.334133      -281.2061 
  44   2.0000     -10.333320      -281.1839 
  45   2.0000     -10.332763      -281.1688 
  46   2.0000     -10.330058      -281.0952 
  47   2.0000     -10.330034      -281.0945 
  48   2.0000     -10.329721      -281.0860 
  49   2.0000     -10.329177      -281.0712 
  50   2.0000     -10.328397      -281.0500 
  51   2.0000     -10.326162      -280.9892 
  52   2.0000     -10.326024      -280.9854 
  53   2.0000     -10.324873      -280.9541 
  54   2.0000     -10.322539      -280.8906 
  55   2.0000     -10.322250      -280.8827 
  56   2.0000     -10.322214      -280.8817 
  57   2.0000     -10.322182      -280.8808 
  58   2.0000     -10.322009      -280.8762 
  59   2.0000     -10.320767      -280.8424 
  60   2.0000     -10.320073      -280.8235 
  61   2.0000     -10.319876      -280.8181 
  62   2.0000     -10.319624      -280.8113 
  63   2.0000     -10.317454      -280.7522 
  64   2.0000     -10.316808      -280.7346 
  65   2.0000     -10.315006      -280.6856 
  66   2.0000     -10.314009      -280.6585 
  67   2.0000     -10.313893      -280.6553 
  68   2.0000     -10.313593      -280.6471 
  69   2.0000     -10.313101      -280.6337 
  70   2.0000     -10.312642      -280.6213 
  71   2.0000     -10.312442      -280.6158 
  72   2.0000     -10.312252      -280.6106 
  73   2.0000     -10.311981      -280.6033 
  74   2.0000     -10.311362      -280.5864 
  75   2.0000     -10.311073      -280.5785 
  76   2.0000     -10.309083      -280.5244 
  77   2.0000     -10.308988      -280.5218 
  78   2.0000     -10.307824      -280.4901 
  79   2.0000     -10.307720      -280.4873 
  80   2.0000     -10.305372      -280.4234 
  81   2.0000     -10.305317      -280.4219 
  82   2.0000     -10.304023      -280.3867 
  83   2.0000     -10.301200      -280.3099 
  84   2.0000     -10.296733      -280.1884 
  85   2.0000     -10.294500      -280.1276 
  86   2.0000     -10.287974      -279.9500 
  87   2.0000     -10.286299      -279.9044 
  88   2.0000     -10.283579      -279.8304 
  89   2.0000     -10.277065      -279.6531 
  90   2.0000      -9.543437      -259.6901 
  91   2.0000      -9.540398      -259.6074 
  92   2.0000      -8.097570      -220.3461 
  93   2.0000      -8.095837      -220.2989 
  94   2.0000      -8.083286      -219.9574 
  95   2.0000      -8.071696      -219.6420 
  96   2.0000      -8.064285      -219.4403 
  97   2.0000      -8.063724      -219.4251 
  98   2.0000      -8.063149      -219.4094 
  99   2.0000      -8.059571      -219.3121 
 100   2.0000      -7.313727      -199.0166 
 101   2.0000      -7.310678      -198.9337 
 102   2.0000      -7.303488      -198.7380 
 103   2.0000      -7.303387      -198.7353 
 104   2.0000      -7.300442      -198.6551 
 105   2.0000      -7.300371      -198.6532 
 106   2.0000      -6.066744      -165.0845 
 107   2.0000      -6.065149      -165.0411 
 108   2.0000      -6.062559      -164.9706 
 109   2.0000      -6.060927      -164.9262 
 110   2.0000      -6.060076      -164.9030 
 111   2.0000      -6.058130      -164.8501 
 112   2.0000      -6.052683      -164.7019 
 113   2.0000      -6.048381      -164.5848 
 114   2.0000      -6.045428      -164.5045 
 115   2.0000      -6.041504      -164.3977 
 116   2.0000      -6.037151      -164.2792 
 117   2.0000      -6.034052      -164.1949 
 118   2.0000      -6.033486      -164.1795 
 119   2.0000      -6.033017      -164.1667 
 120   2.0000      -6.032486      -164.1523 
 121   2.0000      -6.029764      -164.0782 
 122   2.0000      -6.029218      -164.0634 
 123   2.0000      -6.028914      -164.0551 
 124   2.0000      -6.028290      -164.0381 
 125   2.0000      -6.025508      -163.9624 
 126   2.0000      -6.025209      -163.9543 
 127   2.0000      -6.024972      -163.9478 
 128   2.0000      -6.024688      -163.9401 
 129   2.0000      -6.021643      -163.8572 
 130   2.0000      -1.328493       -36.1501 
 131   2.0000      -1.326817       -36.1045 
 132   2.0000      -1.313199       -35.7340 
 133   2.0000      -1.311569       -35.6896 
 134   2.0000      -1.207126       -32.8476 
 135   2.0000      -1.141453       -31.0605 
 136   2.0000      -1.136632       -30.9293 
 137   2.0000      -1.113951       -30.3121 
 138   2.0000      -1.056895       -28.7596 
 139   2.0000      -1.036975       -28.2175 
 140   2.0000      -1.030402       -28.0387 
 141   2.0000      -1.028912       -27.9981 
 142   2.0000      -1.026280       -27.9265 
 143   2.0000      -1.023678       -27.8557 
 144   2.0000      -1.015633       -27.6368 
 145   2.0000      -1.012603       -27.5543 
 146   2.0000      -1.009182       -27.4612 
 147   2.0000      -1.008922       -27.4542 
 148   2.0000      -1.005288       -27.3553 
 149   2.0000      -1.002910       -27.2906 
 150   2.0000      -1.000352       -27.2210 
 151   2.0000      -0.997377       -27.1400 
 152   2.0000      -0.994781       -27.0694 
 153   2.0000      -0.973949       -26.5025 
 154   2.0000      -0.970301       -26.4032 
 155   2.0000      -0.962115       -26.1805 
 156   2.0000      -0.959799       -26.1175 
 157   2.0000      -0.951495       -25.8915 
 158   2.0000      -0.947345       -25.7786 
 159   2.0000      -0.934245       -25.4221 
 160   2.0000      -0.925318       -25.1792 
 161   2.0000      -0.912780       -24.8380 
 162   2.0000      -0.910556       -24.7775 
 163   2.0000      -0.909035       -24.7361 
 164   2.0000      -0.901143       -24.5213 
[...]
  64   4.944     250.8   0.004537   0.004084  13.315894  12.869853     0.11 ( 121-> 132)    0.09 ( 118-> 126)    0.09 ( 121-> 133)
  65   4.957     250.1   0.008686   0.006047  32.425408  25.671149     0.25 ( 113-> 124)    0.13 ( 114-> 124)    0.06 ( 113-> 125)
  66   4.969     249.5   0.010130   0.007878  -38.377652  -26.273315     0.11 ( 121-> 133)    0.08 ( 121-> 132)    0.06 ( 118-> 125)
  67   4.971     249.4   0.023183   0.018577  77.138270  65.821073     0.13 ( 111-> 125)    0.12 ( 111-> 126)    0.09 ( 112-> 125)
  68   4.984     248.8   0.041672   0.032609  -67.602699  -55.840564     0.10 ( 102-> 124)    0.09 ( 114-> 123)    0.08 ( 105-> 124)

-----------------------------------------------------------------------------
         ABSORPTION SPECTRUM VIA TRANSITION ELECTRIC DIPOLE MOMENTS
-----------------------------------------------------------------------------
State   Energy  Wavelength   fosc         T2         TX        TY        TZ  
        (cm-1)    (nm)                  (au**2)     (au)      (au)      (au) 
-----------------------------------------------------------------------------
   0   12860.2    777.6   0.511698164  13.09912  -0.33900   2.92885   2.09905
   1   15421.5    648.4   0.866368086  18.49491  -0.86742  -2.33050  -3.50874
   2   18297.6    546.5   0.006579920   0.11839   0.23186   0.23137   0.10534
   3   19500.4    512.8   0.098677403   1.66591  -0.21395  -0.97539  -0.81777
   4   20013.5    499.7   0.732319901  12.04632   1.36022  -2.86017  -1.41970
   5   23427.8    426.8   0.058294227   0.81916   0.16405  -0.88290  -0.11283
   6   24138.4    414.3   0.411626945   5.61399  -0.51903   2.18096   0.76681
   7   24526.4    407.7   0.114080024   1.53127  -0.21352  -0.09321  -1.21531
   8   25545.4    391.5   0.050553873   0.65150  -0.23369  -0.34565  -0.69095
   9   26417.9    378.5   0.015757986   0.19637  -0.40679  -0.13735  -0.10968
  10   26944.8    371.1   0.150490691   1.83870   0.27815  -1.06699  -0.78922
  11   27306.2    366.2   0.223078406   2.68951   0.07711  -0.21292  -1.62426
  12   27444.4    364.4   0.111628405   1.33905  -0.59199   0.97465  -0.19660
  13   28047.7    356.5   0.051598681   0.60564  -0.26149  -0.40137   0.61332
  14   28548.8    350.3   0.018982884   0.21890  -0.08517   0.37420  -0.26762
  15   28893.6    346.1   0.133304145   1.51886   0.02796  -1.20444   0.25964
  16   29102.4    343.6   0.021986319   0.24871  -0.10855   0.47908  -0.08608
  17   29500.4    339.0   0.147582258   1.64695   0.33926  -1.13869   0.48503
  18   29846.2    335.1   0.123399922   1.36113  -0.32483   0.66782  -0.89980
  19   29969.0    333.7   0.072397479   0.79529   0.09438  -0.09903  -0.88124
  20   30390.9    329.0   0.291209701   3.15456   0.27549   0.78751   1.56796
  21   30629.6    326.5   0.017192543   0.18479   0.11419  -0.25560  -0.32622
  22   30911.5    323.5   0.106330729   1.13244  -0.02065   0.97637   0.42275
  23   30932.7    323.3   0.043702987   0.46512  -0.30762   0.28658   0.53699
  24   31218.2    320.3   0.012708115   0.13401  -0.04848   0.25993  -0.25317
  25   31359.0    318.9   0.073267758   0.76918  -0.23020   0.33197  -0.77845
  26   31669.6    315.8   0.375619768   3.90464  -0.11798   1.93387   0.38843
  27   31778.8    314.7   0.184705154   1.91345  -0.29866   1.10891  -0.77109
  28   32071.0    311.8   0.388274287   3.98567   0.88642  -1.41410   1.09556
  29   32174.2    310.8   0.023887315   0.24442   0.44744   0.19871  -0.06879
  30   32446.0    308.2   0.030623770   0.31072   0.01533   0.48910   0.26697
  31   32583.0    306.9   0.172386034   1.74175  -0.34748   0.84138  -0.95555
  32   32748.3    305.4   0.130946648   1.31638   0.18695  -0.20858  -1.11262
  33   32837.2    304.5   0.035152882   0.35243  -0.48433   0.24774  -0.23765
  34   33245.4    300.8   0.005399371   0.05347   0.22632  -0.02630  -0.03943
  35   33406.6    299.3   0.135614106   1.33644  -0.02349  -1.10671  -0.33327
  36   33521.9    298.3   0.045316788   0.44505   0.05440  -0.65297  -0.12535
  37   33797.6    295.9   0.021054462   0.20508  -0.24132  -0.20075  -0.32642
  38   34022.7    293.9   0.022216662   0.21497   0.16859  -0.07912   0.42461
  39   34225.9    292.2   0.319408215   3.07232  -0.48920   0.99629  -1.35662
  40   34830.0    287.1   0.020447114   0.19327  -0.16330   0.36225  -0.18808
  41   35399.6    282.5   0.179301034   1.66748  -0.16143   0.46223  -1.19489
  42   35539.9    281.4   0.029404834   0.27238  -0.13248   0.21018  -0.45897
  43   35705.0    280.1   0.034440961   0.31756  -0.04203  -0.56195  -0.00054
  44   35965.7    278.0   0.115326459   1.05564  -0.23724  -0.96304  -0.26818
  45   36241.0    275.9   0.043533709   0.39546  -0.24622   0.47993  -0.32327
  46   36256.8    275.8   0.051227451   0.46515   0.10690   0.20003  -0.64320
  47   36422.7    274.6   0.060848119   0.54998   0.04989  -0.22029  -0.70638
  48   36806.6    271.7   0.047440148   0.42432   0.27632  -0.41348  -0.42072
  49   37014.1    270.2   0.064825432   0.57657  -0.00910  -0.61074   0.45110
  50   37300.6    268.1   0.095077991   0.83915  -0.53608  -0.15923   0.72554
  51   37395.6    267.4   0.486101940   4.27940  -0.36466  -2.03620   0.01778
  52   37447.0    267.0   0.251929192   2.21481   0.57409  -0.75698  -1.14552
  53   37544.3    266.4   0.189485115   1.66153   0.86050   0.07869  -0.95649
  54   37992.4    263.2   0.027866200   0.24147  -0.04737  -0.37417   0.31500
  55   38058.9    262.8   0.019317500   0.16710   0.02115   0.34225  -0.22252
  56   38246.6    261.5   0.014284308   0.12295   0.08932   0.04452  -0.33615
  57   38402.0    260.4   0.007173526   0.06150  -0.15876   0.12360   0.14497
  58   38636.8    258.8   0.006116517   0.05212  -0.06259  -0.08278   0.20334
  59   38947.4    256.8   0.089227915   0.75422  -0.08585   0.44143  -0.74296
  60   39230.2    254.9   0.010943669   0.09184  -0.10182  -0.25704  -0.12411
  61   39400.6    253.8   0.005924774   0.04950  -0.16836   0.14281   0.02761
  62   39578.8    252.7   0.038841777   0.32308   0.32723  -0.31209  -0.34439
  63   39786.1    251.3   0.007781071   0.06438   0.02341  -0.13769   0.21185
  64   39878.3    250.8   0.004537421   0.03746   0.07353   0.10104   0.14779
  65   39977.1    250.1   0.008686462   0.07153   0.09664   0.13725  -0.20822
  66   40075.1    249.5   0.010130418   0.08322   0.13837   0.25103   0.03255
  67   40091.5    249.4   0.023183163   0.19037   0.20017  -0.37386   0.10261
  68   40198.4    248.8   0.041671979   0.34128  -0.10513   0.07757   0.56939

-----------------------------------------------------------------------------
         ABSORPTION SPECTRUM VIA TRANSITION VELOCITY DIPOLE MOMENTS
-----------------------------------------------------------------------------
State   Energy  Wavelength   fosc         P2         PX        PY        PZ  
        (cm-1)    (nm)                  (au**2)     (au)      (au)      (au) 
-----------------------------------------------------------------------------
   0   12860.2    777.6   0.686314001   0.06032  -0.02234   0.19708   0.14486
   1   15421.5    648.4   1.122534605   0.11831  -0.07225  -0.18113  -0.28335
   2   18297.6    546.5   0.008010486   0.00100   0.02298   0.01730   0.01320
   3   19500.4    512.8   0.110873858   0.01478  -0.02331  -0.08609  -0.08259
   4   20013.5    499.7   0.771083845   0.10547   0.12941  -0.26749  -0.13105
   5   23427.8    426.8   0.052065156   0.00834   0.01690  -0.08910  -0.01056
   6   24138.4    414.3   0.392096912   0.06469  -0.05734   0.23490   0.07885
   7   24526.4    407.7   0.116624196   0.01955  -0.02252  -0.01361  -0.13732
   8   25545.4    391.5   0.044653071   0.00780  -0.02701  -0.03674  -0.07561
   9   26417.9    378.5   0.017051056   0.00308  -0.04905  -0.01702  -0.01957
  10   26944.8    371.1   0.152680587   0.02812   0.03349  -0.13165  -0.09831
  11   27306.2    366.2   0.226064594   0.04219   0.01061  -0.03043  -0.20286
  12   27444.4    364.4   0.107850741   0.02023  -0.07364   0.11893  -0.02571
  13   28047.7    356.5   0.048193523   0.00924  -0.03322  -0.04877   0.07587
  14   28548.8    350.3   0.020174731   0.00394  -0.01318   0.04973  -0.03591
  15   28893.6    346.1   0.122942876   0.02428   0.00355  -0.15139   0.03670
  16   29102.4    343.6   0.018634065   0.00371  -0.01104   0.05886  -0.01093
  17   29500.4    339.0   0.131268015   0.02647   0.04397  -0.14307   0.06376
  18   29846.2    335.1   0.122726043   0.02503  -0.04379   0.08891  -0.12334
  19   29969.0    333.7   0.064459828   0.01320   0.01285  -0.01115  -0.11364
  20   30390.9    329.0   0.259438433   0.05389   0.03461   0.10565   0.20378
  21   30629.6    326.5   0.016034637   0.00336   0.01393  -0.03533  -0.04375
  22   30911.5    323.5   0.092027816   0.01944  -0.00342   0.12793   0.05537
  23   30932.7    323.3   0.041098135   0.00869  -0.04343   0.03837   0.07301
  24   31218.2    320.3   0.012511783   0.00267  -0.00839   0.03678  -0.03531
  25   31359.0    318.9   0.071362108   0.01529  -0.03261   0.04532  -0.11035
  26   31669.6    315.8   0.358553557   0.07761  -0.01600   0.27306   0.05282
  27   31778.8    314.7   0.159351886   0.03461  -0.04217   0.14718  -0.10569
  28   32071.0    311.8   0.366999690   0.08044   0.12630  -0.20083   0.15543
  29   32174.2    310.8   0.022055100   0.00485   0.06385   0.02610  -0.00959
  30   32446.0    308.2   0.025340801   0.00562   0.00413   0.06570   0.03585
  31   32583.0    306.9   0.155365999   0.03460  -0.04932   0.11695  -0.13597
  32   32748.3    305.4   0.116664093   0.02611   0.02677  -0.02906  -0.15669
  33   32837.2    304.5   0.033218122   0.00746  -0.06978   0.03785  -0.03395
  34   33245.4    300.8   0.005394668   0.00123   0.03382  -0.00438  -0.00793
  35   33406.6    299.3   0.129743412   0.02962  -0.00144  -0.16530  -0.04792
  36   33521.9    298.3   0.044323341   0.01015   0.00921  -0.09863  -0.01848
  37   33797.6    295.9   0.019039646   0.00440  -0.03493  -0.02964  -0.04795
  38   34022.7    293.9   0.020530068   0.00477   0.02418  -0.01193   0.06361
  39   34225.9    292.2   0.287641208   0.06728  -0.07097   0.14709  -0.20152
  40   34830.0    287.1   0.017723076   0.00422  -0.02480   0.05338  -0.02746
  41   35399.6    282.5   0.164040071   0.03969  -0.02538   0.06632  -0.18613
  42   35539.9    281.4   0.025039656   0.00608  -0.01884   0.03012  -0.06943
  43   35705.0    280.1   0.030041803   0.00733  -0.00570  -0.08536   0.00345
  44   35965.7    278.0   0.103839398   0.02552  -0.03554  -0.15051  -0.04010
  45   36241.0    275.9   0.037516865   0.00929  -0.03750   0.07307  -0.05048
  46   36256.8    275.8   0.042859103   0.01062   0.01615   0.02509  -0.09864
  47   36422.7    274.6   0.053969492   0.01343   0.00816  -0.03249  -0.11096
  48   36806.6    271.7   0.039713681   0.00999   0.04288  -0.06146  -0.06614
  49   37014.1    270.2   0.055233373   0.01397  -0.00147  -0.09352   0.07227
  50   37300.6    268.1   0.081300179   0.02073  -0.08311  -0.02202   0.11547
  51   37395.6    267.4   0.408458164   0.10439  -0.05599  -0.31821   0.00052
  52   37447.0    267.0   0.205860944   0.05269   0.08691  -0.11225  -0.18037
  53   37544.3    266.4   0.156083849   0.04005   0.13548   0.01406  -0.14662
  54   37992.4    263.2   0.024336093   0.00632  -0.00735  -0.05914   0.05260
  55   38058.9    262.8   0.015424519   0.00401   0.00363   0.05241  -0.03538
  56   38246.6    261.5   0.011036080   0.00288   0.01350   0.00853  -0.05128
  57   38402.0    260.4   0.005501122   0.00144  -0.02438   0.01678   0.02383
  58   38636.8    258.8   0.005049214   0.00133  -0.01122  -0.00947   0.03343
  59   38947.4    256.8   0.073491401   0.01956  -0.01412   0.07038  -0.12004
  60   39230.2    254.9   0.007766595   0.00208  -0.01474  -0.03950  -0.01747
  61   39400.6    253.8   0.004908410   0.00132  -0.02872   0.02217   0.00234
  62   39578.8    252.7   0.028855999   0.00781   0.04965  -0.04878  -0.05441
  63   39786.1    251.3   0.006081963   0.00165   0.00506  -0.02192   0.03388
  64   39878.3    250.8   0.004084302   0.00111   0.01221   0.01725   0.02581
  65   39977.1    250.1   0.006047049   0.00165   0.01476   0.01706  -0.03381
  66   40075.1    249.5   0.007877567   0.00216   0.02201   0.04003   0.00843
  67   40091.5    249.4   0.018576551   0.00509   0.03140  -0.06212   0.01566
  68   40198.4    248.8   0.032608888   0.00896  -0.01801   0.01567   0.09159

-------------------------------------------------------------------
                             CD SPECTRUM
-------------------------------------------------------------------
State   Energy Wavelength       R         MX        MY        MZ   
        (cm-1)   (nm)       (1e40*cgs)   (au)      (au)      (au)  
-------------------------------------------------------------------
   0   12860.2    777.6    -114.89850   2.76900   0.68772  -0.28017
   1   15421.5    648.4    -12.85022  -3.43964  -1.06514   1.54226
   2   18297.6    546.5     24.07571  -0.22054  -0.12163  -0.21702
   3   19500.4    512.8     29.09124  -0.00050   0.14659  -0.02380
   4   20013.5    499.7    202.54916  -3.57012  -0.25556  -2.30045
   5   23427.8    426.8    -57.86227   0.17446  -0.37285   0.99564
   6   24138.4    414.3    -100.77613   0.76328   0.75849  -1.08314
   7   24526.4    407.7     10.05609  -2.56917  -0.83925   0.55085
   8   25545.4    391.5     88.44503  -1.58326  -0.87999   1.51873
   9   26417.9    378.5    110.26942   0.80019  -0.33737   1.71968
  10   26944.8    371.1    -55.10117  -1.51522  -0.02724  -0.79337
  11   27306.2    366.2    299.95898  -4.57123  -1.91308   0.81721
  12   27444.4    364.4    -251.17037  -2.14883  -0.14762   0.31880
  13   28047.7    356.5    -128.47670   0.63991   0.34670   1.38837
  14   28548.8    350.3    -13.50911  -0.63681  -0.12219  -0.18232
  15   28893.6    346.1    -23.44282   3.67485   0.27441   1.26033
  16   29102.4    343.6    -49.65780  -0.58408   0.17049  -0.76183
  17   29500.4    339.0    -70.07822   0.70588   0.14229   0.45325
  18   29846.2    335.1    -75.23345  -5.38406  -1.25486   0.65764
  19   29969.0    333.7     18.52181  -1.55122  -1.29488   0.06853
  20   30390.9    329.0    -26.63743   6.16010   1.91634  -1.97275
  21   30629.6    326.5    -38.61304   0.13726  -0.13847  -0.34560
  22   30911.5    323.5    -88.19267   3.09254   1.25079  -1.85268
  23   30932.7    323.3     48.43449   2.47619   0.59448   0.71862
  24   31218.2    320.3    -27.67443  -0.47295   0.04167  -0.33037
  25   31359.0    318.9    -91.89175  -3.46541  -0.84709   0.16275
  26   31669.6    315.8    -76.79046  -1.10103   0.52763  -2.12263
  27   31778.8    314.7     25.74332  -3.63898  -0.94968   0.18536
  28   32071.0    311.8    379.15458   4.20346   1.81385  -2.52797
  29   32174.2    310.8    153.44852  -2.08837   0.49750  -2.68357
  30   32446.0    308.2     25.77187   0.96415  -0.55105   0.54465
  31   32583.0    306.9    -190.45385  -2.69360  -0.49961  -0.30594
  32   32748.3    305.4     11.04902  -2.80205  -1.38778  -0.16853
  33   32837.2    304.5    -42.82927  -0.32077   0.56714   0.48039
  34   33245.4    300.8     16.95980  -0.57914   0.48363  -1.82216
  35   33406.6    299.3    -59.53160  -0.31992  -0.90913   2.28378
  36   33521.9    298.3    -25.56143  -0.12978  -0.39505   1.13650
  37   33797.6    295.9    178.13192   2.07551  -0.24377   0.93058
  38   34022.7    293.9     15.25749  -0.27339   0.19988  -0.00664
  39   34225.9    292.2    -190.80243  -6.73146  -1.78412   0.52049
  40   34830.0    287.1      0.68969  -1.05693  -0.31388   0.32867
  41   35399.6    282.5      6.50018  -6.37489  -1.70486   0.22483
  42   35539.9    281.4     40.39879   0.67906  -0.26404   0.05649
  43   35705.0    280.1     17.01788   2.66660  -0.07200   1.08394
  44   35965.7    278.0      3.54278   0.73308  -1.10789   3.38597
  45   36241.0    275.9    -61.80018  -1.64349  -0.21572   0.12048
  46   36256.8    275.8     41.25610  -2.57806  -0.77368  -0.39698
  47   36422.7    274.6    -28.57439  -1.30650  -0.90877   0.01953
  48   36806.6    271.7    -109.05088   0.53512  -0.80213   0.04018
  49   37014.1    270.2     52.09733   3.13040   0.77747   0.62578
  50   37300.6    268.1    338.60581   4.96814   1.50168   2.02053
  51   37395.6    267.4    -393.20263   5.67161  -1.77471   6.89567
  52   37447.0    267.0    -87.33649  -1.38088  -3.10638   1.03728
  53   37544.3    266.4    305.68492  -4.81181  -1.70640  -3.11348
  54   37992.4    263.2     -4.89076   2.15069   0.34672   0.80110
  55   38058.9    262.8    -38.84186  -3.49963   0.07493  -0.95782
  56   38246.6    261.5     37.91264  -1.74911  -0.77732  -0.08923
  57   38402.0    260.4    -14.66164   0.10800   0.28236   0.30657
  58   38636.8    258.8      3.59048   0.85045   0.24677   0.28734
  59   38947.4    256.8    -40.36858  -3.29212  -0.81885  -0.33659
  60   39230.2    254.9     -9.80459  -0.88574  -0.04319   0.48097
  61   39400.6    253.8     -3.03890   0.62694   0.84966  -0.10503
  62   39578.8    252.7     20.82803  -1.05365  -0.35397  -0.42382
  63   39786.1    251.3     -1.42962   0.87969   0.26249   0.10203
  64   39878.3    250.8     13.31589  -0.07495   0.25627  -0.52014
  65   39977.1    250.1     32.42541  -2.31108  -0.06606  -0.45552
  66   40075.1    249.5    -38.37765   0.49373   0.60021  -1.72581
  67   40091.5    249.4     77.13827  -1.43837  -0.03011  -0.49291
  68   40198.4    248.8    -67.60270   3.14047   0.22223   1.05326

sTD-DFT done

Total run time:        5.990 sec

           *** ORCA-CIS/TD-DFT FINISHED WITHOUT ERROR ***

-------------------------   --------------------
FINAL SINGLE POINT ENERGY     -7657.222889422149
-------------------------   --------------------


                            ***************************************
                            *     ORCA property calculations      *
                            ***************************************

                                    ---------------------
                                    Active property flags
                                    ---------------------
   (+) Dipole Moment


------------------------------------------------------------------------------
                       ORCA ELECTRIC PROPERTIES CALCULATION
------------------------------------------------------------------------------

Dipole Moment Calculation                       ... on
Quadrupole Moment Calculation                   ... off
Polarizability Calculation                      ... off
GBWName                                         ... xtbopt.gbw
Electron density file                           ... xtbopt.scfp
The origin for moment calculation is the CENTER OF MASS  = ( 7.434706, -25.921472 -5.924526)

-------------
DIPOLE MOMENT
-------------
                                X             Y             Z
Electronic contribution:     14.35600     -46.65430       4.20232
Nuclear contribution   :    -16.96090      47.13490      -2.28947
                        -----------------------------------------
Total Dipole Moment    :     -2.60490       0.48060       1.91285
                        -----------------------------------------
Magnitude (a.u.)       :      3.26733
Magnitude (Debye)      :      8.30490



--------------------
Rotational spectrum 
--------------------
 
Rotational constants in cm-1:     0.000959     0.000161     0.000141 
Rotational constants in MHz :    28.759441     4.838814     4.232760 

 Dipole components along the rotational axes: 
x,y,z [a.u.] :     1.695376     0.395365     2.764932 
x,y,z [Debye]:     4.309304     1.004939     7.027899 

 

Timings for individual modules:

Sum of individual times         ...      906.677 sec (=  15.111 min)
GTO integral calculation        ...        4.034 sec (=   0.067 min)   0.4 %
SCF iterations                  ...      895.882 sec (=  14.931 min)  98.8 %
CIS module                      ...        6.761 sec (=   0.113 min)   0.7 %
                             ****ORCA TERMINATED NORMALLY****
TOTAL RUN TIME: 0 days 0 hours 15 minutes 7 seconds 853 msec
