
                                 *****************
                                 * O   R   C   A *
                                 *****************

           --- An Ab Initio, DFT and Semiempirical electronic structure package ---

                  #######################################################
                  #                        -***-                        #
                  #          Department of theory and spectroscopy      #
                  #               Directorship: Frank Neese             #
                  #        Max Planck Institute fuer Kohlenforschung    #
                  #                Kaiser Wilhelm Platz 1               #
                  #                 D-45470 Muelheim/Ruhr               #
                  #                      Germany                        #
                  #                                                     #
                  #                  All rights reserved                #
                  #                        -***-                        #
                  #######################################################


                         Program Version 4.2.0 -  RELEASE  -


 With contributions from (in alphabetic order):
   Daniel Aravena         : Magnetic Suceptibility
   Michael Atanasov       : Ab Initio Ligand Field Theory (pilot matlab implementation)
   Alexander A. Auer      : GIAO ZORA, VPT2
   Ute Becker             : Parallelization
   Giovanni Bistoni       : ED, misc. LED, open-shell LED, HFLED
   Martin Brehm           : Molecular dynamics
   Dmytro Bykov           : SCF Hessian
   Vijay G. Chilkuri      : MRCI spin determinant printing, contributions to CSF-ICE
   Dipayan Datta          : RHF DLPNO-CCSD density
   Achintya Kumar Dutta   : EOM-CC, STEOM-CC
   Dmitry Ganyushin       : Spin-Orbit,Spin-Spin,Magnetic field MRCI
   Miquel Garcia          : C-PCM Hessian, Gaussian charge scheme
   Yang Guo               : DLPNO-NEVPT2, CIM, IAO-localization
   Andreas Hansen         : Spin unrestricted coupled pair/coupled cluster methods
   Benjamin Helmich-Paris : CASSCF linear response (MC-RPA)
   Lee Huntington         : MR-EOM, pCC
   Robert Izsak           : Overlap fitted RIJCOSX, COSX-SCS-MP3, EOM
   Christian Kollmar      : KDIIS, OOCD, Brueckner-CCSD(T), CCSD density
   Simone Kossmann        : Meta GGA functionals, TD-DFT gradient, OOMP2, MP2 Hessian
   Martin Krupicka        : AUTO-CI
   Lucas Lang             : DCDCAS
   Dagmar Lenk            : GEPOL surface, SMD
   Dimitrios Liakos       : Extrapolation schemes; Compound Job, initial MDCI parallelization
   Dimitrios Manganas     : Further ROCIS development; embedding schemes
   Dimitrios Pantazis     : SARC Basis sets
   Taras Petrenko         : DFT Hessian,TD-DFT gradient, ASA, ECA, R-Raman, ABS, FL, XAS/XES, NRVS
   Peter Pinski           : DLPNO-MP2, DLPNO-MP2 Gradient
   Christoph Reimann      : Effective Core Potentials
   Marius Retegan         : Local ZFS, SOC
   Christoph Riplinger    : Optimizer, TS searches, QM/MM, DLPNO-CCSD(T), (RO)-DLPNO pert. Triples
   Tobias Risthaus        : Range-separated hybrids, TD-DFT gradient, RPA, STAB
   Michael Roemelt        : Original ROCIS implementation
   Masaaki Saitow         : Open-shell DLPNO-CCSD energy and density
   Barbara Sandhoefer     : DKH picture change effects
   Avijit Sen             : IP-ROCIS
   Kantharuban Sivalingam : CASSCF convergence, NEVPT2, FIC-MRCI
   Bernardo de Souza      : ESD, SOC TD-DFT
   Georgi Stoychev        : AutoAux, RI-MP2 NMR
   Willem Van den Heuvel  : Paramagnetic NMR
   Boris Wezisla          : Elementary symmetry handling
   Frank Wennmohs         : Technical directorship


 We gratefully acknowledge several colleagues who have allowed us to
 interface, adapt or use parts of their codes:
   Stefan Grimme, W. Hujo, H. Kruse,             : VdW corrections, initial TS optimization,
                  C. Bannwarth                     DFT functionals, gCP, sTDA/sTD-DF
   Ed Valeev, F. Pavosevic, A. Kumar             : LibInt (2-el integral package), F12 methods
   Garnet Chan, S. Sharma, J. Yang, R. Olivares  : DMRG
   Ulf Ekstrom                                   : XCFun DFT Library
   Mihaly Kallay                                 : mrcc  (arbitrary order and MRCC methods)
   Andreas Klamt, Michael Diedenhofen            : otool_cosmo (COSMO solvation model)
   Jiri Pittner, Ondrej Demel                    : Mk-CCSD
   Frank Weinhold                                : gennbo (NPA and NBO analysis)
   Christopher J. Cramer and Donald G. Truhlar   : smd solvation model
   Lars Goerigk                                  : TD-DFT with DH, B97 family of functionals
   V. Asgeirsson, H. Jonsson                     : NEB implementation
   FAccTs GmbH                                   : IRC, NEB, NEB-TS, Multilevel, MM, QM/MM, CI optimization
   S Lehtola, MJT Oliveira, MAL Marques          : LibXC Library


 Your calculation uses the libint2 library for the computation of 2-el integrals
 For citations please refer to: http://libint.valeyev.net

 Your ORCA version has been built with support for libXC version: 4.2.3
 For citations please refer to: https://tddft.org/programs/libxc/

 This ORCA versions uses:
   CBLAS   interface :  Fast vector & matrix operations
   LAPACKE interface :  Fast linear algebra routines
   SCALAPACK package :  Parallel linear algebra routines


XCFun DFT library Copyright 2009-2010 Ulf Ekstrom and contributors.
See http://admol.org/xcfun for more information. This is free soft-
ware; see the source code for copying conditions. There is ABSOLUTELY
NO WARRANTY; not even for MERCHANTABILITY or FITNESS FOR A PARTICULAR
PURPOSE. For details see the documentation. Scientific users of this 
library should cite U. Ekstrom, L. Visscher, R. Bast, A. J. Thorvald-
sen and K. Ruud; J.Chem.Theor.Comp. 2010, DOI: 10.1021/ct100117s
XCFun Version 0.99 
----- Orbital basis set information -----
Your calculation utilizes the basis: def2-SVP
   F. Weigend and R. Ahlrichs, Phys. Chem. Chem. Phys. 7, 3297 (2005).

----- AuxJ basis set information -----
Your calculation utilizes the auxiliary basis: def2/J
   F. Weigend, Phys. Chem. Chem. Phys. 8, 1057 (2006).

================================================================================
                                        WARNINGS
                       Please study these warnings very carefully!
================================================================================

INFO   : Checking CIS options ...

WARNING: CIS/ROCIS methods need fully converged wavefunctions
  ===> : Setting SCFConvForced true
         You can overwrite this default with %scf ConvForced false 


INFO   : the flag for use of LIBINT has been found!

================================================================================
                                       INPUT FILE
================================================================================
NAME = xtbopt.inp
|  1> # ORCA input file
|  2> # SCF done       -187.738531305332          0.000909186982
|  3> ! CAM-B3LYP def2-SVP def2/J RIJCOSX Grid4 TightSCF
|  4> %maxcore 5000
|  5> %tddft
|  6>     Mode sTDDFT
|  7>     Ethresh 5.0
|  8>     maxcore 5000
|  9> end
| 10> 
| 11> %pal
| 12>   nprocs 6
| 13>   end
| 14> * xyz 0 1
| 15>    C       -4.60941        -2.18642        -1.21779
| 16>    O       -4.45317        -2.08916        -0.01373
| 17>    C       -5.45848        -1.32923        -2.06871
| 18>    C       -5.43913        -1.81184        -3.38973
| 19>    C       -6.19120        -1.17684        -4.36339
| 20>    C       -6.94695        -0.06662        -4.00178
| 21>    C       -6.95632         0.40692        -2.68890
| 22>    C       -6.20818        -0.23007        -1.70706
| 23>   Br       -7.99081         1.91928        -2.22617
| 24>   Br       -7.97930         0.79950        -5.32829
| 25>    C       -4.55113        -2.97126        -3.45215
| 26>    C       -4.17134        -3.62829        -4.59117
| 27>    C       -4.65734        -3.31645        -5.87906
| 28>    N       -5.02334        -3.10085        -6.94491
| 29>    C       -3.21353        -4.66510        -4.63682
| 30>    N       -2.41714        -5.48352        -4.74906
| 31>    C       -4.07164        -3.22357        -2.10734
| 32>    C       -3.39880        -4.34340        -1.68454
| 33>    C       -2.79950        -4.57033        -0.43713
| 34>    C       -2.18312        -3.70611         0.46993
| 35>    C       -1.65085        -4.37819         1.59083
| 36>    O       -0.92041        -3.83197         2.57561
| 37>    C       -0.89076        -2.42226         2.66080
| 38>    C       -0.54369        -1.77958         1.32945
| 39>    S       -1.95081        -2.00642         0.18379
| 40>    C       -1.88223        -5.75865         1.56510
| 41>    S       -2.62143        -6.23981         0.07224
| 42>    C       -1.61072        -6.72808         2.56903
| 43>    C       -1.61286        -8.10320         2.22000
| 44>    C       -1.34390        -9.15475         3.16342
| 45>    N       -1.50396       -10.43194         2.78742
| 46>    C       -1.81410       -10.71079         1.54971
| 47>    C       -1.98112        -9.66688         0.57932
| 48>    N       -1.89619        -8.41475         0.95070
| 49>    C       -2.25404        -9.98388        -0.77410
| 50>    N       -2.47484       -10.28824        -1.85561
| 51>    C       -1.96161       -12.07372         1.18435
| 52>    N       -2.05257       -13.17318         0.87848
| 53>    C       -1.00551        -8.87565         4.50407
| 54>    C       -1.11024        -7.52145         4.87926
| 55>    C       -1.41183        -6.46071         3.94172
| 56>    N       -1.52353        -5.28728         4.56610
| 57>    S       -1.25327        -5.48234         6.12838
| 58>    N       -0.98637        -7.06250         6.12518
| 59>    C       -0.71729        -9.88124         5.47681
| 60>    C       -0.12662       -11.13035         5.32634
| 61>    C       -0.14529       -11.89319         6.51017
| 62>    O        0.37514       -13.11984         6.70276
| 63>    C        1.18798       -13.67285         5.68060
| 64>    C        0.61298       -13.46542         4.29321
| 65>    S        0.68027       -11.69507         3.87670
| 66>    C       -0.76131       -11.22858         7.57886
| 67>    S       -1.19114        -9.60361         7.12052
| 68>    C       -0.98441       -11.63851         8.90315
| 69>    C       -1.02187       -12.88398         9.46848
| 70>    C       -0.87514       -12.98765        10.94529
| 71>    O       -0.90717       -12.08414        11.74678
| 72>    C       -0.63532       -14.42428        11.20881
| 73>    C       -0.72941       -15.14173        10.00232
| 74>    C       -1.09567       -14.21588         8.92937
| 75>    C       -1.61376       -14.58691         7.71377
| 76>    C       -2.25150       -13.69247         6.83421
| 77>    N       -2.78297       -12.99140         6.09667
| 78>    C       -1.61266       -15.90806         7.22475
| 79>    N       -1.58690       -16.95523         6.75532
| 80>    C       -0.52071       -16.50971         9.99834
| 81>    C       -0.22269       -17.14076        11.20164
| 82>    C       -0.14362       -16.42314        12.39612
| 83>    C       -0.35145       -15.04919        12.40460
| 84>   Br        0.25036       -17.30954        14.01833
| 85>   Br        0.07556       -19.00768        11.19631
| 86>    H       -6.21253        -1.51711        -5.38604
| 87>    H       -6.21100         0.12498        -0.68833
| 88>    H       -3.36247        -5.19472        -2.35391
| 89>    H       -0.12764        -2.20643         3.41278
| 90>    H       -1.86060        -2.04897         3.01349
| 91>    H        0.34807        -2.23072         0.89461
| 92>    H       -0.40500        -0.70652         1.43405
| 93>    H        1.24862       -14.73859         5.91980
| 94>    H        2.19276       -13.23449         5.73887
| 95>    H       -0.42688       -13.78904         4.23731
| 96>    H        1.20527       -13.98420         3.54370
| 97>    H       -1.10514       -10.82720         9.61609
| 98>    H       -0.57505       -17.09630         9.09532
| 99>    H       -0.29318       -14.48466        13.32224
|100> *
|101> 
|102>                          ****END OF INPUT****
================================================================================

                       ****************************
                       * Single Point Calculation *
                       ****************************

---------------------------------
CARTESIAN COORDINATES (ANGSTROEM)
---------------------------------
  C     -4.609410   -2.186420   -1.217790
  O     -4.453170   -2.089160   -0.013730
  C     -5.458480   -1.329230   -2.068710
  C     -5.439130   -1.811840   -3.389730
  C     -6.191200   -1.176840   -4.363390
  C     -6.946950   -0.066620   -4.001780
  C     -6.956320    0.406920   -2.688900
  C     -6.208180   -0.230070   -1.707060
  Br    -7.990810    1.919280   -2.226170
  Br    -7.979300    0.799500   -5.328290
  C     -4.551130   -2.971260   -3.452150
  C     -4.171340   -3.628290   -4.591170
  C     -4.657340   -3.316450   -5.879060
  N     -5.023340   -3.100850   -6.944910
  C     -3.213530   -4.665100   -4.636820
  N     -2.417140   -5.483520   -4.749060
  C     -4.071640   -3.223570   -2.107340
  C     -3.398800   -4.343400   -1.684540
  C     -2.799500   -4.570330   -0.437130
  C     -2.183120   -3.706110    0.469930
  C     -1.650850   -4.378190    1.590830
  O     -0.920410   -3.831970    2.575610
  C     -0.890760   -2.422260    2.660800
  C     -0.543690   -1.779580    1.329450
  S     -1.950810   -2.006420    0.183790
  C     -1.882230   -5.758650    1.565100
  S     -2.621430   -6.239810    0.072240
  C     -1.610720   -6.728080    2.569030
  C     -1.612860   -8.103200    2.220000
  C     -1.343900   -9.154750    3.163420
  N     -1.503960  -10.431940    2.787420
  C     -1.814100  -10.710790    1.549710
  C     -1.981120   -9.666880    0.579320
  N     -1.896190   -8.414750    0.950700
  C     -2.254040   -9.983880   -0.774100
  N     -2.474840  -10.288240   -1.855610
  C     -1.961610  -12.073720    1.184350
  N     -2.052570  -13.173180    0.878480
  C     -1.005510   -8.875650    4.504070
  C     -1.110240   -7.521450    4.879260
  C     -1.411830   -6.460710    3.941720
  N     -1.523530   -5.287280    4.566100
  S     -1.253270   -5.482340    6.128380
  N     -0.986370   -7.062500    6.125180
  C     -0.717290   -9.881240    5.476810
  C     -0.126620  -11.130350    5.326340
  C     -0.145290  -11.893190    6.510170
  O      0.375140  -13.119840    6.702760
  C      1.187980  -13.672850    5.680600
  C      0.612980  -13.465420    4.293210
  S      0.680270  -11.695070    3.876700
  C     -0.761310  -11.228580    7.578860
  S     -1.191140   -9.603610    7.120520
  C     -0.984410  -11.638510    8.903150
  C     -1.021870  -12.883980    9.468480
  C     -0.875140  -12.987650   10.945290
  O     -0.907170  -12.084140   11.746780
  C     -0.635320  -14.424280   11.208810
  C     -0.729410  -15.141730   10.002320
  C     -1.095670  -14.215880    8.929370
  C     -1.613760  -14.586910    7.713770
  C     -2.251500  -13.692470    6.834210
  N     -2.782970  -12.991400    6.096670
  C     -1.612660  -15.908060    7.224750
  N     -1.586900  -16.955230    6.755320
  C     -0.520710  -16.509710    9.998340
  C     -0.222690  -17.140760   11.201640
  C     -0.143620  -16.423140   12.396120
  C     -0.351450  -15.049190   12.404600
  Br     0.250360  -17.309540   14.018330
  Br     0.075560  -19.007680   11.196310
  H     -6.212530   -1.517110   -5.386040
  H     -6.211000    0.124980   -0.688330
  H     -3.362470   -5.194720   -2.353910
  H     -0.127640   -2.206430    3.412780
  H     -1.860600   -2.048970    3.013490
  H      0.348070   -2.230720    0.894610
  H     -0.405000   -0.706520    1.434050
  H      1.248620  -14.738590    5.919800
  H      2.192760  -13.234490    5.738870
  H     -0.426880  -13.789040    4.237310
  H      1.205270  -13.984200    3.543700
  H     -1.105140  -10.827200    9.616090
  H     -0.575050  -17.096300    9.095320
  H     -0.293180  -14.484660   13.322240

----------------------------
CARTESIAN COORDINATES (A.U.)
----------------------------
  NO LB      ZA    FRAG     MASS         X           Y           Z
   0 C     6.0000    0    12.011   -8.710523   -4.131735   -2.301290
   1 O     8.0000    0    15.999   -8.415272   -3.947940   -0.025946
   2 C     6.0000    0    12.011  -10.315032   -2.511881   -3.909295
   3 C     6.0000    0    12.011  -10.278466   -3.423881   -6.405661
   4 C     6.0000    0    12.011  -11.699672   -2.223905   -8.245612
   5 C     6.0000    0    12.011  -13.127833   -0.125894   -7.562268
   6 C     6.0000    0    12.011  -13.145540    0.768967   -5.081285
   7 C     6.0000    0    12.011  -11.731760   -0.434769   -3.225876
   8 Br   35.0000    0    79.900  -15.100442    3.626914   -4.206852
   9 Br   35.0000    0    79.900  -15.078692    1.510836  -10.069009
  10 C     6.0000    0    12.011   -8.600389   -5.614868   -6.523618
  11 C     6.0000    0    12.011   -7.882690   -6.856474   -8.676054
  12 C     6.0000    0    12.011   -8.801097   -6.267182  -11.109813
  13 N     7.0000    0    14.007   -9.492737   -5.859757  -13.123978
  14 C     6.0000    0    12.011   -6.072692   -8.815761   -8.762320
  15 N     7.0000    0    14.007   -4.567733  -10.362351   -8.974423
  16 C     6.0000    0    12.011   -7.694285   -6.091664   -3.982295
  17 C     6.0000    0    12.011   -6.422801   -8.207836   -3.183319
  18 C     6.0000    0    12.011   -5.290288   -8.636672   -0.826056
  19 C     6.0000    0    12.011   -4.125499   -7.003533    0.888039
  20 C     6.0000    0    12.011   -3.119654   -8.273580    3.006233
  21 O     8.0000    0    15.999   -1.739323   -7.241374    4.867198
  22 C     6.0000    0    12.011   -1.683292   -4.577408    5.028183
  23 C     6.0000    0    12.011   -1.027425   -3.362919    2.512296
  24 S    16.0000    0    32.060   -3.686497   -3.791584    0.347313
  25 C     6.0000    0    12.011   -3.556899  -10.882271    2.957610
  26 S    16.0000    0    32.060   -4.953785  -11.791532    0.136514
  27 C     6.0000    0    12.011   -3.043820  -12.714229    4.854763
  28 C     6.0000    0    12.011   -3.047864  -15.312829    4.195192
  29 C     6.0000    0    12.011   -2.539603  -17.299970    5.977997
  30 N     7.0000    0    14.007   -2.842073  -19.713510    5.267460
  31 C     6.0000    0    12.011   -3.428152  -20.240460    2.928527
  32 C     6.0000    0    12.011   -3.743774  -18.267756    1.094756
  33 N     7.0000    0    14.007   -3.583280  -15.901573    1.796563
  34 C     6.0000    0    12.011   -4.259518  -18.866799   -1.462837
  35 N     7.0000    0    14.007   -4.676770  -19.441956   -3.506595
  36 C     6.0000    0    12.011   -3.706906  -22.816024    2.238097
  37 N     7.0000    0    14.007   -3.878795  -24.893703    1.660087
  38 C     6.0000    0    12.011   -1.900139  -16.772548    8.511459
  39 C     6.0000    0    12.011   -2.098050  -14.213481    9.220465
  40 C     6.0000    0    12.011   -2.667972  -12.208973    7.448771
  41 N     7.0000    0    14.007   -2.879054   -9.991511    8.628679
  42 S    16.0000    0    32.060   -2.368337  -10.360121   11.580960
  43 N     7.0000    0    14.007   -1.863969  -13.346191   11.574913
  44 C     6.0000    0    12.011   -1.355482  -18.672837   10.349671
  45 C     6.0000    0    12.011   -0.239277  -21.033313   10.065324
  46 C     6.0000    0    12.011   -0.274558  -22.474872   12.302438
  47 O     8.0000    0    15.999    0.708912  -24.792905   12.666381
  48 C     6.0000    0    12.011    2.244957  -25.837942   10.734778
  49 C     6.0000    0    12.011    1.158364  -25.445956    8.112991
  50 S    16.0000    0    32.060    1.285524  -22.100479    7.325901
  51 C     6.0000    0    12.011   -1.438667  -21.218941   14.321970
  52 S    16.0000    0    32.060   -2.250928  -18.148193   13.455833
  53 C     6.0000    0    12.011   -1.860265  -21.993597   16.824515
  54 C     6.0000    0    12.011   -1.931054  -24.347194   17.892834
  55 C     6.0000    0    12.011   -1.653775  -24.543102   20.683601
  56 O     8.0000    0    15.999   -1.714303  -22.835715   22.198197
  57 C     6.0000    0    12.011   -1.200581  -27.257939   21.181581
  58 C     6.0000    0    12.011   -1.378385  -28.613723   18.901646
  59 C     6.0000    0    12.011   -2.070516  -26.864120   16.874064
  60 C     6.0000    0    12.011   -3.049564  -27.565265   14.576913
  61 C     6.0000    0    12.011   -4.254718  -25.875018   12.914785
  62 N     7.0000    0    14.007   -5.259051  -24.550188   11.521037
  63 C     6.0000    0    12.011   -3.047486  -30.061877   13.652799
  64 N     7.0000    0    14.007   -2.998806  -32.040741   12.765705
  65 C     6.0000    0    12.011   -0.983999  -31.198830   18.894124
  66 C     6.0000    0    12.011   -0.420823  -32.391342   21.168032
  67 C     6.0000    0    12.011   -0.271402  -31.035237   23.425272
  68 C     6.0000    0    12.011   -0.664144  -28.438848   23.441297
  69 Br   35.0000    0    79.900    0.473112  -32.710290   26.490805
  70 Br   35.0000    0    79.900    0.142788  -35.919310   21.157960
  71 H     1.0000    0     1.008  -11.739980   -2.866922  -10.178141
  72 H     1.0000    0     1.008  -11.737089    0.236178   -1.300755
  73 H     1.0000    0     1.008   -6.354147   -9.816598   -4.448245
  74 H     1.0000    0     1.008   -0.241205   -4.169548    6.449220
  75 H     1.0000    0     1.008   -3.516024   -3.871992    5.694671
  76 H     1.0000    0     1.008    0.657757   -4.215450    1.690568
  77 H     1.0000    0     1.008   -0.765339   -1.335129    2.709962
  78 H     1.0000    0     1.008    2.359550  -27.851899   11.186801
  79 H     1.0000    0     1.008    4.143716  -25.009562   10.844893
  80 H     1.0000    0     1.008   -0.806686  -26.057509    8.007355
  81 H     1.0000    0     1.008    2.277630  -26.426308    6.696623
  82 H     1.0000    0     1.008   -2.088412  -20.460443   18.171777
  83 H     1.0000    0     1.008   -1.086687  -32.307325   17.187664
  84 H     1.0000    0     1.008   -0.554030  -27.372041   25.175385

--------------------------------
INTERNAL COORDINATES (ANGSTROEM)
--------------------------------
 C      0   0   0     0.000000000000     0.00000000     0.00000000
 O      1   0   0     1.218043894447     0.00000000     0.00000000
 C      1   2   0     1.476400828840   126.66524817     0.00000000
 C      3   1   2     1.406549208169   109.52256524   183.64703618
 C      4   3   1     1.384502827913   119.71261497   178.66233016
 C      5   4   3     1.390866026258   118.58253612     0.22271838
 C      6   5   4     1.395701193988   121.26745467   359.96590100
 C      3   1   2     1.378765215002   128.63695800     2.34101426
 Br     7   6   5     1.889846920414   120.36523256   179.91633471
 Br     6   5   4     1.890909611007   118.67800316   180.18644529
 C      4   3   1     1.461743819142   108.70010478   358.40963836
 C     11   4   3     1.368683829597   125.79366038   186.98400357
 C     12  11   4     1.411418023726   123.90080912   356.09228596
 N     13  12  11     1.147377698276   177.43437806   180.54807325
 C     12  11   4     1.412253126992   124.57757222   173.67037112
 N     15  12  11     1.147452023442   175.95706189   209.99547917
 C     11   4   3     1.449856866142   107.41740805     2.59290045
 C     17  11   4     1.373132453371   126.12675787   168.38780843
 C     18  17  11     1.402387044649   127.96996421   172.85136530
 C     19  18  17     1.396265861647   131.78485624   327.98037249
 C     20  19  18     1.411176703783   112.81347054   182.94093353
 O     21  20  19     1.342270662124   126.45582073   174.78424475
 C     22  21  20     1.412592914714   117.50168647    13.45240280
 C     23  22  21     1.518547987322   111.97984849   309.16390991
 S     20  19  18     1.739192379181   123.84705606   357.18489740
 C     21  20  19     1.399953052391   113.12170580   358.64186292
 S     26  21  20     1.733944222056   111.09490685     5.67557613
 C     26  21  20     1.421755130077   128.88944318   186.59193126
 C     28  26  21     1.418725320455   119.13649737   195.58858199
 C     29  28  26     1.438102284436   123.16550629   179.71017370
 N     30  29  28     1.340973340414   119.35113560   172.98498755
 C     31  30  29     1.306089654733   119.82822513     4.54970179
 C     32  31  30     1.435026313557   120.87329018     0.29030487
 N     33  32  31     1.308803173208   119.76985890   356.14692106
 C     33  32  31     1.416587456813   120.37788109   176.94992230
 N     35  33  32     1.145011584963   177.51206650     1.76474939
 C     32  31  30     1.418740749609   118.28331385   179.34288070
 N     37  32  31     1.144832944189   178.49008913   261.51394392
 C     30  29  28     1.410583930364   121.57953703   357.48743253
 C     39  30  29     1.409110907275   115.17476261     7.32300748
 C     28  26  21     1.412558595280   125.73358279    19.81039550
 N     41  28  26     1.333891014776   127.56044423     4.70190856
 S     42  41  28     1.597437845301   109.64556705   178.08235194
 N     40  39  30     1.333527474708   124.93277494   172.02845844
 C     39  30  29     1.428462503568   123.80197054   180.60022470
 C     45  39  30     1.389894982328   130.14211296    32.21846179
 C     46  45  39     1.408448402818   112.96245138   186.41564881
 O     47  46  45     1.346331502825   127.48698517   181.97290579
 C     48  47  46     1.418217187634   118.27610289     8.84715844
 C     49  48  47     1.516081533757   112.88184909   316.27665694
 S     46  45  39     1.752551363042   125.08553443    10.97548438
 C     47  46  45     1.401172868921   112.95450586     0.30342031
 S     45  39  30     1.733030525842   118.55026026   214.48428447
 C     52  47  46     1.404122579763   130.59619348   179.72110900
 C     54  52  47     1.368282420190   131.28232109   339.34255418
 C     55  54  52     1.487697865126   118.09103093   161.92969395
 O     56  55  54     1.208198022304   127.14219562    11.05191448
 C     56  55  54     1.480156133555   105.09072182   192.98170675
 C     58  56  55     1.406842404358   109.35732052   355.95459412
 C     55  54  52     1.438764623592   133.56869586   346.62879134
 C     60  55  54     1.372502775589   126.97612772   334.88071098
 C     61  60  55     1.407253003123   123.56022303   355.27028602
 N     62  61  60     1.148009040644   178.17022605   190.72739947
 C     61  60  55     1.408750898101   124.10234267   177.66014029
 N     64  61  60     1.147864587571   175.97036298   225.10994460
 C     59  58  56     1.383813864217   119.76980638   179.01611413
 C     66  59  58     1.391032319143   118.57366819     0.08789219
 C     67  66  59     1.395712362810   121.27899064     0.51821071
 C     58  56  55     1.378770615113   128.87880462   175.60154019
 Br    68  67  66     1.890103299955   120.34495560   179.53635505
 Br    67  66  59     1.890600898603   118.64182689   180.45174131
 H      5   4   3     1.077985001890   122.21724120   180.51157793
 H      8   3   1     1.078832363159   120.76202950     1.39707946
 H     18  17  11     1.083569014046   117.83653883   348.73055521
 H     23  22  21     1.092890041907   104.66898699   188.69737831
 H     23  22  21     1.097417553076   109.89460408    71.55810554
 H     24  23  22     1.089884866763   111.19943188   309.96472095
 H     24  23  22     1.087029824660   111.25860835   186.92558204
 H     49  48  47     1.093935828648   104.71775289   195.70610660
 H     49  48  47     1.097787652918   109.30656471    78.96835235
 H     50  49  48     1.090487750504   111.59021363   308.81311662
 H     50  49  48     1.087062727077   111.03977150   185.65321736
 H     54  52  47     1.086776468553   114.73481760   156.20162951
 H     66  59  58     1.078186340156   122.18367947   180.51985777
 H     69  58  56     1.078959074015   120.77002791     1.03233648

---------------------------
INTERNAL COORDINATES (A.U.)
---------------------------
 C      0   0   0     0.000000000000     0.00000000     0.00000000
 O      1   0   0     2.301769379600     0.00000000     0.00000000
 C      1   2   0     2.789993230402   126.66524817     0.00000000
 C      3   1   2     2.657992797323   109.52256524   183.64703618
 C      4   3   1     2.616331176396   119.71261497   178.66233016
 C      5   4   3     2.628355878604   118.58253612     0.22271838
 C      6   5   4     2.637493021425   121.26745467   359.96590100
 C      3   1   2     2.605488659331   128.63695800     2.34101426
 Br     7   6   5     3.571293114618   120.36523256   179.91633471
 Br     6   5   4     3.573301308803   118.67800316   180.18644529
 C      4   3   1     2.762295496131   108.70010478   358.40963836
 C     11   4   3     2.586437601865   125.79366038   186.98400357
 C     12  11   4     2.667193525323   123.90080912   356.09228596
 N     13  12  11     2.168229621910   177.43437806   180.54807325
 C     12  11   4     2.668771641790   124.57757222   173.67037112
 N     15  12  11     2.168370076118   175.95706189   209.99547917
 C     11   4   3     2.739832410394   107.41740805     2.59290045
 C     17  11   4     2.594844282470   126.12675787   168.38780843
 C     18  17  11     2.650127448146   127.96996421   172.85136530
 C     19  18  17     2.638560088656   131.78485624   327.98037249
 C     20  19  18     2.666737496720   112.81347054   182.94093353
 O     21  20  19     2.536523949012   126.45582073   174.78424475
 C     22  21  20     2.669413747527   117.50168647    13.45240280
 C     23  22  21     2.869639817256   111.97984849   309.16390991
 S     20  19  18     3.286597290854   123.84705606   357.18489740
 C     21  20  19     2.645527869367   113.12170580   358.64186292
 S     26  21  20     3.276679711180   111.09490685     5.67557613
 C     26  21  20     2.686727825343   128.88944318   186.59193126
 C     28  26  21     2.681002314920   119.13649737   195.58858199
 C     29  28  26     2.717619470151   123.16550629   179.71017370
 N     30  29  28     2.534072366271   119.35113560   172.98498755
 C     31  30  29     2.468151753793   119.82822513     4.54970179
 C     32  31  30     2.711806727593   120.87329018     0.29030487
 N     33  32  31     2.473279560571   119.76985890   356.14692106
 C     33  32  31     2.676962338125   120.37788109   176.94992230
 N     35  33  32     2.163758315748   177.51206650     1.76474939
 C     32  31  30     2.681031471794   118.28331385   179.34288070
 N     37  32  31     2.163420733608   178.49008913   261.51394392
 C     30  29  28     2.665617317297   121.57953703   357.48743253
 C     39  30  29     2.662833707070   115.17476261     7.32300748
 C     28  26  21     2.669348893196   125.73358279    19.81039550
 N     41  28  26     2.520688710425   127.56044423     4.70190856
 S     42  41  28     3.018720043580   109.64556705   178.08235194
 N     40  39  30     2.520001719257   124.93277494   172.02845844
 C     39  30  29     2.699402924319   123.80197054   180.60022470
 C     45  39  30     2.626520871511   130.14211296    32.21846179
 C     46  45  39     2.661581755084   112.96245138   186.41564881
 O     47  46  45     2.544197825811   127.48698517   181.97290579
 C     48  47  46     2.680042083048   118.27610289     8.84715844
 C     49  48  47     2.864978895497   112.88184909   316.27665694
 S     46  45  39     3.311842111780   125.08553443    10.97548438
 C     47  46  45     2.647832988541   112.95450586     0.30342031
 S     45  39  30     3.274953075567   118.55026026   214.48428447
 C     52  47  46     2.653407134207   130.59619348   179.72110900
 C     54  52  47     2.585679048017   131.28232109   339.34255418
 C     55  54  52     2.811341535107   118.09103093   161.92969395
 O     56  55  54     2.283163377700   127.14219562    11.05191448
 C     56  55  54     2.797089727862   105.09072182   192.98170675
 C     58  56  55     2.658546857824   109.35732052   355.95459412
 C     55  54  52     2.718871109763   133.56869586   346.62879134
 C     60  55  54     2.593654363910   126.97612772   334.88071098
 C     61  60  55     2.659322777042   123.56022303   355.27028602
 N     62  61  60     2.169422686083   178.17022605   190.72739947
 C     61  60  55     2.662153388326   124.10234267   177.66014029
 N     64  61  60     2.169149709336   175.97036298   225.10994460
 C     59  58  56     2.615029223694   119.76980638   179.01611413
 C     66  59  58     2.628670126613   118.57366819     0.08789219
 C     67  66  59     2.637514127439   121.27899064     0.51821071
 C     58  56  55     2.605498864062   128.87880462   175.60154019
 Br    68  67  66     3.571777601735   120.34495560   179.53635505
 Br    67  66  59     3.572717926906   118.64182689   180.45174131
 H      5   4   3     2.037096430047   122.21724120   180.51157793
 H      8   3   1     2.038697710782   120.76202950     1.39707946
 H     18  17  11     2.047648683749   117.83653883   348.73055521
 H     23  22  21     2.065262873694   104.66898699   188.69737831
 H     23  22  21     2.073818629872   109.89460408    71.55810554
 H     24  23  22     2.059583915688   111.19943188   309.96472095
 H     24  23  22     2.054188668012   111.25860835   186.92558204
 H     49  48  47     2.067239124229   104.71775289   195.70610660
 H     49  48  47     2.074518017216   109.30656471    78.96835235
 H     50  49  48     2.060723200849   111.59021363   308.81311662
 H     50  49  48     2.054250844569   111.03977150   185.65321736
 H     54  52  47     2.053709894355   114.73481760   156.20162951
 H     66  59  58     2.037476904231   122.18367947   180.51985777
 H     69  58  56     2.038937159598   120.77002791     1.03233648

---------------------
BASIS SET INFORMATION
---------------------
There are 6 groups of distinct atoms

 Group   1 Type C   : 7s4p1d contracted to 3s2p1d pattern {511/31/1}
 Group   2 Type O   : 7s4p1d contracted to 3s2p1d pattern {511/31/1}
 Group   3 Type Br  : 14s10p6d contracted to 5s4p3d pattern {63311/5311/411}
 Group   4 Type N   : 7s4p1d contracted to 3s2p1d pattern {511/31/1}
 Group   5 Type S   : 10s7p1d contracted to 4s3p1d pattern {5311/511/1}
 Group   6 Type H   : 4s1p contracted to 2s1p pattern {31/1}

Atom   0C    basis set group =>   1
Atom   1O    basis set group =>   2
Atom   2C    basis set group =>   1
Atom   3C    basis set group =>   1
Atom   4C    basis set group =>   1
Atom   5C    basis set group =>   1
Atom   6C    basis set group =>   1
Atom   7C    basis set group =>   1
Atom   8Br   basis set group =>   3
Atom   9Br   basis set group =>   3
Atom  10C    basis set group =>   1
Atom  11C    basis set group =>   1
Atom  12C    basis set group =>   1
Atom  13N    basis set group =>   4
Atom  14C    basis set group =>   1
Atom  15N    basis set group =>   4
Atom  16C    basis set group =>   1
Atom  17C    basis set group =>   1
Atom  18C    basis set group =>   1
Atom  19C    basis set group =>   1
Atom  20C    basis set group =>   1
Atom  21O    basis set group =>   2
Atom  22C    basis set group =>   1
Atom  23C    basis set group =>   1
Atom  24S    basis set group =>   5
Atom  25C    basis set group =>   1
Atom  26S    basis set group =>   5
Atom  27C    basis set group =>   1
Atom  28C    basis set group =>   1
Atom  29C    basis set group =>   1
Atom  30N    basis set group =>   4
Atom  31C    basis set group =>   1
Atom  32C    basis set group =>   1
Atom  33N    basis set group =>   4
Atom  34C    basis set group =>   1
Atom  35N    basis set group =>   4
Atom  36C    basis set group =>   1
Atom  37N    basis set group =>   4
Atom  38C    basis set group =>   1
Atom  39C    basis set group =>   1
Atom  40C    basis set group =>   1
Atom  41N    basis set group =>   4
Atom  42S    basis set group =>   5
Atom  43N    basis set group =>   4
Atom  44C    basis set group =>   1
Atom  45C    basis set group =>   1
Atom  46C    basis set group =>   1
Atom  47O    basis set group =>   2
Atom  48C    basis set group =>   1
Atom  49C    basis set group =>   1
Atom  50S    basis set group =>   5
Atom  51C    basis set group =>   1
Atom  52S    basis set group =>   5
Atom  53C    basis set group =>   1
Atom  54C    basis set group =>   1
Atom  55C    basis set group =>   1
Atom  56O    basis set group =>   2
Atom  57C    basis set group =>   1
Atom  58C    basis set group =>   1
Atom  59C    basis set group =>   1
Atom  60C    basis set group =>   1
Atom  61C    basis set group =>   1
Atom  62N    basis set group =>   4
Atom  63C    basis set group =>   1
Atom  64N    basis set group =>   4
Atom  65C    basis set group =>   1
Atom  66C    basis set group =>   1
Atom  67C    basis set group =>   1
Atom  68C    basis set group =>   1
Atom  69Br   basis set group =>   3
Atom  70Br   basis set group =>   3
Atom  71H    basis set group =>   6
Atom  72H    basis set group =>   6
Atom  73H    basis set group =>   6
Atom  74H    basis set group =>   6
Atom  75H    basis set group =>   6
Atom  76H    basis set group =>   6
Atom  77H    basis set group =>   6
Atom  78H    basis set group =>   6
Atom  79H    basis set group =>   6
Atom  80H    basis set group =>   6
Atom  81H    basis set group =>   6
Atom  82H    basis set group =>   6
Atom  83H    basis set group =>   6
Atom  84H    basis set group =>   6
---------------------------------
AUXILIARY/J BASIS SET INFORMATION
---------------------------------
There are 6 groups of distinct atoms

 Group   1 Type C   : 12s5p4d2f1g contracted to 6s4p3d1f1g pattern {711111/2111/211/2/1}
 Group   2 Type O   : 12s5p4d2f1g contracted to 6s4p3d1f1g pattern {711111/2111/211/2/1}
 Group   3 Type Br  : 19s5p5d3f1g contracted to 8s4p3d2f1g pattern {121111111/2111/311/21/1}
 Group   4 Type N   : 12s5p4d2f1g contracted to 6s4p3d1f1g pattern {711111/2111/211/2/1}
 Group   5 Type S   : 14s5p5d2f1g contracted to 8s4p3d1f1g pattern {71111111/2111/311/2/1}
 Group   6 Type H   : 5s2p1d contracted to 3s1p1d pattern {311/2/1}

Atom   0C    basis set group =>   1
Atom   1O    basis set group =>   2
Atom   2C    basis set group =>   1
Atom   3C    basis set group =>   1
Atom   4C    basis set group =>   1
Atom   5C    basis set group =>   1
Atom   6C    basis set group =>   1
Atom   7C    basis set group =>   1
Atom   8Br   basis set group =>   3
Atom   9Br   basis set group =>   3
Atom  10C    basis set group =>   1
Atom  11C    basis set group =>   1
Atom  12C    basis set group =>   1
Atom  13N    basis set group =>   4
Atom  14C    basis set group =>   1
Atom  15N    basis set group =>   4
Atom  16C    basis set group =>   1
Atom  17C    basis set group =>   1
Atom  18C    basis set group =>   1
Atom  19C    basis set group =>   1
Atom  20C    basis set group =>   1
Atom  21O    basis set group =>   2
Atom  22C    basis set group =>   1
Atom  23C    basis set group =>   1
Atom  24S    basis set group =>   5
Atom  25C    basis set group =>   1
Atom  26S    basis set group =>   5
Atom  27C    basis set group =>   1
Atom  28C    basis set group =>   1
Atom  29C    basis set group =>   1
Atom  30N    basis set group =>   4
Atom  31C    basis set group =>   1
Atom  32C    basis set group =>   1
Atom  33N    basis set group =>   4
Atom  34C    basis set group =>   1
Atom  35N    basis set group =>   4
Atom  36C    basis set group =>   1
Atom  37N    basis set group =>   4
Atom  38C    basis set group =>   1
Atom  39C    basis set group =>   1
Atom  40C    basis set group =>   1
Atom  41N    basis set group =>   4
Atom  42S    basis set group =>   5
Atom  43N    basis set group =>   4
Atom  44C    basis set group =>   1
Atom  45C    basis set group =>   1
Atom  46C    basis set group =>   1
Atom  47O    basis set group =>   2
Atom  48C    basis set group =>   1
Atom  49C    basis set group =>   1
Atom  50S    basis set group =>   5
Atom  51C    basis set group =>   1
Atom  52S    basis set group =>   5
Atom  53C    basis set group =>   1
Atom  54C    basis set group =>   1
Atom  55C    basis set group =>   1
Atom  56O    basis set group =>   2
Atom  57C    basis set group =>   1
Atom  58C    basis set group =>   1
Atom  59C    basis set group =>   1
Atom  60C    basis set group =>   1
Atom  61C    basis set group =>   1
Atom  62N    basis set group =>   4
Atom  63C    basis set group =>   1
Atom  64N    basis set group =>   4
Atom  65C    basis set group =>   1
Atom  66C    basis set group =>   1
Atom  67C    basis set group =>   1
Atom  68C    basis set group =>   1
Atom  69Br   basis set group =>   3
Atom  70Br   basis set group =>   3
Atom  71H    basis set group =>   6
Atom  72H    basis set group =>   6
Atom  73H    basis set group =>   6
Atom  74H    basis set group =>   6
Atom  75H    basis set group =>   6
Atom  76H    basis set group =>   6
Atom  77H    basis set group =>   6
Atom  78H    basis set group =>   6
Atom  79H    basis set group =>   6
Atom  80H    basis set group =>   6
Atom  81H    basis set group =>   6
Atom  82H    basis set group =>   6
Atom  83H    basis set group =>   6
Atom  84H    basis set group =>   6


           ************************************************************
           *        Program running with 6 parallel MPI-processes     *
           *              working on a common directory               *
           ************************************************************
------------------------------------------------------------------------------
                           ORCA GTO INTEGRAL CALCULATION
                           -- RI-GTO INTEGRALS CHOSEN --
------------------------------------------------------------------------------

                         BASIS SET STATISTICS AND STARTUP INFO

Gaussian basis set:
 # of primitive gaussian shells          ... 1024
 # of primitive gaussian functions       ... 2062
 # of contracted shells                  ...  502
 # of contracted basis functions         ... 1156
 Highest angular momentum                ...    2
 Maximum contraction depth               ...    6
Auxiliary gaussian basis set:
 # of primitive gaussian shells          ... 1867
 # of primitive gaussian functions       ... 5305
 # of contracted shells                  ... 1157
 # of contracted aux-basis functions     ... 3679
 Highest angular momentum                ...    4
 Maximum contraction depth               ...   12
Ratio of auxiliary to basis functions    ...  3.18
Integral package used                  ... LIBINT
 One Electron integrals                  ... done
 Ordering auxiliary basis shells         ... done
 Integral threshhold             Thresh  ...  2.500e-11
 Primitive cut-off               TCut    ...  2.500e-12
 Pre-screening matrix                    ... done
 Shell pair data                         ... 
 Ordering of the shell pairs             ... done (   0.009 sec) 43369 of 126253 pairs
 Determination of significant pairs      ... done (   0.000 sec)
 Creation of shell pair data             ... done (   0.007 sec)
 Storage of shell pair data              ... done (   0.024 sec)
 Shell pair data done in (   0.040 sec)
 Computing two index integrals           ... done
 Cholesky decomposition of the V-matrix  ... done


Timings:
 Total evaluation time                   ...   2.563 sec (  0.043 min)
 One electron matrix time                ...   0.507 sec (  0.008 min) = 19.8%
 Schwartz matrix evaluation time         ...   0.877 sec (  0.015 min) = 34.2%
 Two index repulsion integral time       ...   0.361 sec (  0.006 min) = 14.1%
 Cholesky decomposition of V             ...   0.761 sec (  0.013 min) = 29.7%
 Three index repulsion integral time     ...   0.000 sec (  0.000 min) =  0.0%



           ************************************************************
           *        Program running with 6 parallel MPI-processes     *
           *              working on a common directory               *
           ************************************************************
-------------------------------------------------------------------------------
                                 ORCA SCF
-------------------------------------------------------------------------------

------------
SCF SETTINGS
------------
Hamiltonian:
 Density Functional     Method          .... DFT(GTOs)
 Exchange Functional    Exchange        .... WB88
 Correlation Functional Correlation     .... LYP
 LDA part of GGA corr.  LDAOpt          .... VWN-5
 Gradients option       PostSCFGGA      .... off
 Hybrid DFT is turned on
   Fraction HF Exchange ScalHFX         ....  0.190000
   Scaling of DF-GGA-X  ScalDFX         ....  0.350000
   Scaling of DF-GGA-C  ScalDFC         ....  0.810000
   Scaling of DF-LDA-C  ScalLDAC        ....  1.000000
   Perturbative correction              ....  0.000000
   Density functional embedding theory  .... OFF
 Long-range corrected/Screened/Range-Separated Hybrid DFT is turned on
   Amount of maximum screened exact exchange              ....  0.460000
   Range separation parameter mu (erf(mu*r12)/r12)        ....  0.330000
 RI-approximation to the Coulomb term is turned on
   Number of auxiliary basis functions  .... 3679
   RIJ-COSX (HFX calculated with COS-X)).... on


General Settings:
 Integral files         IntName         .... xtbopt
 Hartree-Fock type      HFTyp           .... RHF
 Total Charge           Charge          ....    0
 Multiplicity           Mult            ....    1
 Number of Electrons    NEL             ....  624
 Basis Dimension        Dim             .... 1156
 Nuclear Repulsion      ENuc            ....  14245.0923183541 Eh

Convergence Acceleration:
 DIIS                   CNVDIIS         .... on
   Start iteration      DIISMaxIt       ....    12
   Startup error        DIISStart       ....  0.200000
   # of expansion vecs  DIISMaxEq       ....     5
   Bias factor          DIISBfac        ....   1.050
   Max. coefficient     DIISMaxC        ....  10.000
 Newton-Raphson         CNVNR           .... off
 SOSCF                  CNVSOSCF        .... on
   Start iteration      SOSCFMaxIt      ....   150
   Startup grad/error   SOSCFStart      ....  0.003300
 Level Shifting         CNVShift        .... on
   Level shift para.    LevelShift      ....    0.2500
   Turn off err/grad.   ShiftErr        ....    0.0010
 Zerner damping         CNVZerner       .... off
 Static damping         CNVDamp         .... on
   Fraction old density DampFac         ....    0.7000
   Max. Damping (<1)    DampMax         ....    0.9800
   Min. Damping (>=0)   DampMin         ....    0.0000
   Turn off err/grad.   DampErr         ....    0.1000
 Fernandez-Rico         CNVRico         .... off

SCF Procedure:
 Maximum # iterations   MaxIter         ....   125
 SCF integral mode      SCFMode         .... Direct
   Integral package                     .... LIBINT
 Reset frequency        DirectResetFreq ....    20
 Integral Threshold     Thresh          ....  2.500e-11 Eh
 Primitive CutOff       TCut            ....  2.500e-12 Eh

Convergence Tolerance:
 Convergence Check Mode ConvCheckMode   .... Total+1el-Energy
 Convergence forced     ConvForced      .... 1
 Energy Change          TolE            ....  1.000e-08 Eh
 1-El. energy change                    ....  1.000e-05 Eh
 Orbital Gradient       TolG            ....  1.000e-05
 Orbital Rotation angle TolX            ....  1.000e-05
 DIIS Error             TolErr          ....  5.000e-07


Diagonalization of the overlap matrix:
Smallest eigenvalue                        ... 1.091e-04
Time for diagonalization                   ...    0.352 sec
Threshold for overlap eigenvalues          ... 1.000e-08
Number of eigenvalues below threshold      ... 0
Time for construction of square roots      ...    0.171 sec
Total time needed                          ...    0.525 sec

-------------------
DFT GRID GENERATION
-------------------

General Integration Accuracy     IntAcc      ...  4.670
Radial Grid Type                 RadialGrid  ... Gauss-Chebyshev
Angular Grid (max. acc.)         AngularGrid ... Lebedev-302
Angular grid pruning method      GridPruning ... 3 (G Style)
Weight generation scheme         WeightScheme... Becke
Basis function cutoff            BFCut       ...    1.0000e-11
Integration weight cutoff        WCut        ...    1.0000e-14
Grids for H and He will be reduced by one unit

# of grid points (after initial pruning)     ... 505354 (   0.0 sec)
# of grid points (after weights+screening)   ... 435128 (   4.4 sec)
nearest neighbour list constructed           ...    0.0 sec
Grid point re-assignment to atoms done       ...    0.1 sec
Grid point division into batches done        ...    1.8 sec
Reduced shell lists constructed in    2.6 sec

Total number of grid points                  ...   435128
Total number of batches                      ...     6842
Average number of points per batch           ...       63
Average number of grid points per atom       ...     5119
Average number of shells per batch           ...    79.12 (15.76%)
Average number of basis functions per batch  ...   175.60 (15.19%)
Average number of large shells per batch     ...    51.38 (64.94%)
Average number of large basis fcns per batch ...   115.06 (65.52%)
Maximum spatial batch extension              ...  19.27, 19.28, 15.91 au
Average spatial batch extension              ...   0.36,  0.36,  0.33 au

Time for grid setup =    7.446 sec

------------------------------
INITIAL GUESS: MODEL POTENTIAL
------------------------------
Loading Hartree-Fock densities                     ... done
Calculating cut-offs                               ... done
Setting up the integral package                    ... done
Initializing the effective Hamiltonian             ... done
Starting the Coulomb interaction                   ... done (   1.3 sec)
Reading the grid                                   ... done
Mapping shells                                     ... done
Starting the XC term evaluation                    ... done (   1.4 sec)
  promolecular density results
     # of electrons  =    623.991600532
     EX              =   -829.412457978
     EC              =    -23.846190427
     EX+EC           =   -853.258648405
Transforming the Hamiltonian                       ... done (   0.1 sec)
Diagonalizing the Hamiltonian                      ... done (   0.2 sec)
Back transforming the eigenvectors                 ... done (   0.1 sec)
Now organizing SCF variables                       ... done
                      ------------------
                      INITIAL GUESS DONE (  10.6 sec)
                      ------------------
--------------------
COSX GRID GENERATION
--------------------

General Integration Accuracy     IntAcc      ...  3.340
Radial Grid Type                 RadialGrid  ... Gauss-Chebyshev
Angular Grid (max. acc.)         AngularGrid ... Lebedev-50
Angular grid pruning method      GridPruning ... 3 (G Style)
Weight generation scheme         WeightScheme... Becke
Basis function cutoff            BFCut       ...    1.0000e-11
Integration weight cutoff        WCut        ...    1.0000e-14
Grids for H and He will be reduced by one unit

# of grid points (after initial pruning)     ...  47998 (   0.0 sec)
# of grid points (after weights+screening)   ...  43340 (   0.4 sec)
nearest neighbour list constructed           ...    0.0 sec
Grid point re-assignment to atoms done       ...    0.0 sec
Grid point division into batches done        ...    0.0 sec
Reduced shell lists constructed in    0.1 sec

Total number of grid points                  ...    43340
Total number of batches                      ...      721
Average number of points per batch           ...       60
Average number of grid points per atom       ...      510
Average number of shells per batch           ...    94.61 (18.85%)
Average number of basis functions per batch  ...   211.75 (18.32%)
Average number of large shells per batch     ...    60.95 (64.42%)
Average number of large basis fcns per batch ...   138.54 (65.43%)
Maximum spatial batch extension              ...  21.14, 15.74, 13.74 au
Average spatial batch extension              ...   0.89,  0.81,  0.62 au

Overlap Fitting                  UseSFitting ... on
Constructing numerical overlap ... done (      0.1 sec)
Inverting numerical overlap    ... done (      0.1 sec)
Obtaining analytic overlap     ... done (      0.0 sec)
Final contraction and storage  ... done (      0.1 sec)


General Integration Accuracy     IntAcc      ...  3.670
Radial Grid Type                 RadialGrid  ... Gauss-Chebyshev
Angular Grid (max. acc.)         AngularGrid ... Lebedev-50
Angular grid pruning method      GridPruning ... 3 (G Style)
Weight generation scheme         WeightScheme... Becke
Basis function cutoff            BFCut       ...    1.0000e-11
Integration weight cutoff        WCut        ...    1.0000e-14
Grids for H and He will be reduced by one unit

# of grid points (after initial pruning)     ...  59146 (   0.0 sec)
# of grid points (after weights+screening)   ...  53183 (   0.5 sec)
nearest neighbour list constructed           ...    0.0 sec
Grid point re-assignment to atoms done       ...    0.0 sec
Grid point division into batches done        ...    0.0 sec
Reduced shell lists constructed in    0.2 sec

Total number of grid points                  ...    53183
Total number of batches                      ...      877
Average number of points per batch           ...       60
Average number of grid points per atom       ...      626
Average number of shells per batch           ...    93.67 (18.66%)
Average number of basis functions per batch  ...   209.67 (18.14%)
Average number of large shells per batch     ...    60.35 (64.43%)
Average number of large basis fcns per batch ...   137.24 (65.46%)
Maximum spatial batch extension              ...  21.15, 19.87, 14.90 au
Average spatial batch extension              ...   0.80,  0.74,  0.60 au

Overlap Fitting                  UseSFitting ... on
Constructing numerical overlap ... done (      0.1 sec)
Inverting numerical overlap    ... done (      0.1 sec)
Obtaining analytic overlap     ... done (      0.0 sec)
Final contraction and storage  ... done (      0.1 sec)


General Integration Accuracy     IntAcc      ...  4.010
Radial Grid Type                 RadialGrid  ... Gauss-Chebyshev
Angular Grid (max. acc.)         AngularGrid ... Lebedev-110
Angular grid pruning method      GridPruning ... 3 (G Style)
Weight generation scheme         WeightScheme... Becke
Basis function cutoff            BFCut       ...    1.0000e-11
Integration weight cutoff        WCut        ...    1.0000e-14
Grids for H and He will be reduced by one unit

# of grid points (after initial pruning)     ... 118672 (   0.0 sec)
# of grid points (after weights+screening)   ... 105333 (   1.0 sec)
nearest neighbour list constructed           ...    0.0 sec
Grid point re-assignment to atoms done       ...    0.0 sec
Grid point division into batches done        ...    0.1 sec
Reduced shell lists constructed in    0.3 sec

Total number of grid points                  ...   105333
Total number of batches                      ...     1691
Average number of points per batch           ...       62
Average number of grid points per atom       ...     1239
Average number of shells per batch           ...    88.06 (17.54%)
Average number of basis functions per batch  ...   197.18 (17.06%)
Average number of large shells per batch     ...    57.49 (65.28%)
Average number of large basis fcns per batch ...   130.30 (66.08%)
Maximum spatial batch extension              ...  17.52, 17.46, 19.31 au
Average spatial batch extension              ...   0.59,  0.57,  0.49 au

Overlap Fitting                  UseSFitting ... on
Constructing numerical overlap ... done (      0.2 sec)
Inverting numerical overlap    ... done (      0.1 sec)
Obtaining analytic overlap     ... done (      0.0 sec)
Final contraction and storage  ... done (      0.1 sec)

Time for X-Grid setup             =    3.666 sec
--------------
SCF ITERATIONS
--------------
ITER       Energy         Delta-E        Max-DP      RMS-DP      [F,P]     Damp
               ***  Starting incremental Fock matrix formation  ***
  0 -14967.3664714064   0.000000000000 0.09383655  0.00102018  0.2341129 0.7000
  1 -14967.9222684672  -0.555797060815 0.04907331  0.00071371  0.1014195 0.7000
                               ***Turning on DIIS***
  2 -14968.1488758506  -0.226607383336 0.12571258  0.00128368  0.0434288 0.0000
  3 -14968.5378362627  -0.388960412161 0.08514508  0.00051345  0.0723046 0.0000
  4 -14968.6047073731  -0.066871110377 0.01634707  0.00018959  0.0216793 0.0000
  5 -14968.6118271246  -0.007119751446 0.00638809  0.00008136  0.0049489 0.0000
                      *** Initiating the SOSCF procedure ***
                           *** Shutting down DIIS ***
                      *** Re-Reading the Fockian *** 
                      *** Removing any level shift *** 
ITER      Energy       Delta-E        Grad      Rot      Max-DP    RMS-DP
  6 -14968.61300605  -0.0011789266  0.002757  0.002757  0.002964  0.000042
               *** Restarting incremental Fock matrix formation ***
  7 -14968.61349826  -0.0004922057  0.001940  0.011665  0.003352  0.000047
  8 -14968.61386900  -0.0003707440  0.000682  0.012026  0.003747  0.000058
  9 -14968.61387778  -0.0000087824  0.001265  0.002754  0.001885  0.000019
 10 -14968.61397914  -0.0001013531  0.000260  0.001455  0.001062  0.000011
 11 -14968.61397806   0.0000010794  0.000272  0.000644  0.000644  0.000006
 12 -14968.61398650  -0.0000084382  0.000031  0.000274  0.000220  0.000002
 13 -14968.61398636   0.0000001341  0.000042  0.000095  0.000129  0.000001
 14 -14968.61398669  -0.0000003260  0.000014  0.000092  0.000071  0.000001
 15 -14968.61398675  -0.0000000656  0.000009  0.000038  0.000029  0.000000
 16 -14968.61398677  -0.0000000186  0.000003  0.000026  0.000025  0.000000
                  ***Gradient check signals convergence***
              ***Rediagonalizing the Fockian in SOSCF/NRSCF***

               *****************************************************
               *                     SUCCESS                       *
               *           SCF CONVERGED AFTER  17 CYCLES          *
               *****************************************************

Setting up the final grid:

General Integration Accuracy     IntAcc      ...  5.010
Radial Grid Type                 RadialGrid  ... Gauss-Chebyshev
Angular Grid (max. acc.)         AngularGrid ... Lebedev-434
Angular grid pruning method      GridPruning ... 3 (G Style)
Weight generation scheme         WeightScheme... Becke
Basis function cutoff            BFCut       ...    1.0000e-11
Integration weight cutoff        WCut        ...    1.0000e-14
Grids for H and He will be reduced by one unit

# of grid points (after initial pruning)     ... 879056 (   0.1 sec)
# of grid points (after weights+screening)   ... 754013 (   7.5 sec)
nearest neighbour list constructed           ...    0.0 sec
Grid point re-assignment to atoms done       ...    0.1 sec
Grid point division into batches done        ...    5.5 sec
Reduced shell lists constructed in    6.9 sec

Total number of grid points                  ...   754013
Total number of batches                      ...    11820
Average number of points per batch           ...       63
Average number of grid points per atom       ...     8871
Average number of shells per batch           ...    76.53 (15.25%)
Average number of basis functions per batch  ...   169.49 (14.66%)
Average number of large shells per batch     ...    49.68 (64.92%)
Average number of large basis fcns per batch ...   111.00 (65.49%)
Maximum spatial batch extension              ...  19.94, 16.67, 15.23 au
Average spatial batch extension              ...   0.30,  0.30,  0.28 au

Final grid set up in   15.2 sec
Final integration                            ... done (   3.3 sec)
Change in XC energy                          ...    -0.000566535
Integrated number of electrons               ...   623.999939757
Previous integrated no of electrons          ...   623.999279782
Old exchange energy                            =   -208.462262189 Eh
New exchange energy                            =   -208.459964278 Eh
Exchange energy change after final integration =      0.002297911 Eh
Total energy after final integration           = -14968.612255331 Eh
Final COS-X integration done in                =    63.917 sec

----------------
TOTAL SCF ENERGY
----------------

Total Energy       :       -14968.61225533 Eh         -407316.64705 eV

Components:
Nuclear Repulsion  :        14245.09231835 Eh          387628.66864 eV
Electronic Energy  :       -29213.70457368 Eh         -794945.31569 eV
One Electron Energy:       -49126.00968047 Eh        -1336786.68433 eV
Two Electron Energy:        19912.30510679 Eh          541841.36864 eV

Virial components:
Potential Energy   :       -29896.32455000 Eh         -813520.34958 eV
Kinetic Energy     :        14927.71229467 Eh          406203.70254 eV
Virial Ratio       :            2.00273987


DFT components:
N(Alpha)           :      311.999969878263 electrons
N(Beta)            :      311.999969878263 electrons
N(Total)           :      623.999939756525 electrons
E(XC)              :     -653.574316089630 Eh       
DFET-embed. en.    :        0.000000000000 Eh       

---------------
SCF CONVERGENCE
---------------

  Last Energy change         ...    6.5320e-08  Tolerance :   1.0000e-08
  Last MAX-Density change    ...    1.0658e-14  Tolerance :   1.0000e-07
  Last RMS-Density change    ...    4.5994e-17  Tolerance :   5.0000e-09
  Last Orbital Gradient      ...    2.2906e-06  Tolerance :   1.0000e-05
  Last Orbital Rotation      ...    1.1087e-05  Tolerance :   1.0000e-05

             **** THE GBW FILE WAS UPDATED (xtbopt.gbw) ****
             **** DENSITY FILE WAS UPDATED (xtbopt.scfp) ****
             **** ENERGY FILE WAS UPDATED (xtbopt.en.tmp) ****
             **** THE GBW FILE WAS UPDATED (xtbopt.gbw) ****
             **** DENSITY FILE WAS UPDATED (xtbopt.scfp) ****
----------------
ORBITAL ENERGIES
----------------

  NO   OCC          E(Eh)            E(eV) 
   0   2.0000    -482.878431    -13139.7901 
   1   2.0000    -482.876020    -13139.7245 
   2   2.0000    -482.874748    -13139.6899 
   3   2.0000    -482.874285    -13139.6773 
   4   2.0000     -89.058791     -2423.4129 
   5   2.0000     -88.973099     -2421.0811 
   6   2.0000     -88.972727     -2421.0710 
   7   2.0000     -88.954086     -2420.5637 
   8   2.0000     -88.945769     -2420.3374 
   9   2.0000     -62.556042     -1702.2365 
  10   2.0000     -62.553622     -1702.1706 
  11   2.0000     -62.552359     -1702.1362 
  12   2.0000     -62.551881     -1702.1232 
  13   2.0000     -56.389986     -1534.4495 
  14   2.0000     -56.387585     -1534.3842 
  15   2.0000     -56.387341     -1534.3776 
  16   2.0000     -56.387250     -1534.3751 
  17   2.0000     -56.386300     -1534.3492 
  18   2.0000     -56.385837     -1534.3366 
  19   2.0000     -56.384914     -1534.3115 
  20   2.0000     -56.384818     -1534.3089 
  21   2.0000     -56.383653     -1534.2772 
  22   2.0000     -56.383574     -1534.2750 
  23   2.0000     -56.383179     -1534.2643 
  24   2.0000     -56.383084     -1534.2617 
  25   2.0000     -19.284743      -524.7645 
  26   2.0000     -19.275146      -524.5034 
  27   2.0000     -19.225852      -523.1620 
  28   2.0000     -19.220176      -523.0076 
  29   2.0000     -14.476370      -393.9220 
  30   2.0000     -14.467504      -393.6808 
  31   2.0000     -14.464731      -393.6053 
  32   2.0000     -14.464266      -393.5927 
  33   2.0000     -14.437446      -392.8629 
  34   2.0000     -14.435201      -392.8018 
  35   2.0000     -14.420941      -392.4138 
  36   2.0000     -14.420681      -392.4067 
  37   2.0000     -14.419382      -392.3713 
  38   2.0000     -14.416829      -392.3019 
  39   2.0000     -10.393877      -282.8318 
  40   2.0000     -10.390075      -282.7283 
  41   2.0000     -10.371989      -282.2362 
  42   2.0000     -10.370776      -282.2032 
  43   2.0000     -10.370112      -282.1851 
  44   2.0000     -10.369224      -282.1609 
  45   2.0000     -10.360675      -281.9283 
  46   2.0000     -10.359845      -281.9057 
  47   2.0000     -10.358235      -281.8619 
  48   2.0000     -10.357032      -281.8292 
  49   2.0000     -10.354838      -281.7695 
  50   2.0000     -10.354200      -281.7521 
  51   2.0000     -10.354092      -281.7492 
  52   2.0000     -10.353196      -281.7248 
  53   2.0000     -10.351822      -281.6874 
  54   2.0000     -10.351792      -281.6866 
  55   2.0000     -10.350284      -281.6455 
  56   2.0000     -10.348005      -281.5835 
  57   2.0000     -10.344115      -281.4777 
  58   2.0000     -10.341015      -281.3933 
  59   2.0000     -10.339590      -281.3546 
  60   2.0000     -10.335684      -281.2483 
  61   2.0000     -10.332425      -281.1596 
  62   2.0000     -10.331421      -281.1323 
  63   2.0000     -10.330548      -281.1085 
  64   2.0000     -10.330144      -281.0975 
  65   2.0000     -10.328567      -281.0546 
  66   2.0000     -10.326780      -281.0060 
  67   2.0000     -10.325654      -280.9753 
  68   2.0000     -10.323077      -280.9052 
  69   2.0000     -10.322861      -280.8993 
  70   2.0000     -10.322379      -280.8862 
  71   2.0000     -10.322334      -280.8850 
  72   2.0000     -10.321862      -280.8721 
  73   2.0000     -10.320841      -280.8444 
  74   2.0000     -10.318720      -280.7866 
  75   2.0000     -10.318361      -280.7769 
  76   2.0000     -10.318347      -280.7765 
  77   2.0000     -10.318342      -280.7764 
  78   2.0000     -10.315153      -280.6896 
  79   2.0000     -10.312495      -280.6173 
  80   2.0000     -10.312341      -280.6131 
  81   2.0000     -10.309695      -280.5411 
  82   2.0000     -10.308402      -280.5059 
  83   2.0000     -10.306850      -280.4636 
  84   2.0000     -10.304747      -280.4064 
  85   2.0000     -10.300239      -280.2838 
  86   2.0000     -10.298672      -280.2411 
  87   2.0000      -8.785361      -239.0618 
  88   2.0000      -8.782931      -238.9957 
  89   2.0000      -8.781679      -238.9616 
  90   2.0000      -8.781182      -238.9481 
  91   2.0000      -8.150053      -221.7742 
  92   2.0000      -8.067470      -219.5270 
  93   2.0000      -8.066727      -219.5068 
  94   2.0000      -8.048701      -219.0163 
  95   2.0000      -8.041200      -218.8122 
  96   2.0000      -6.621474      -180.1795 
  97   2.0000      -6.619091      -180.1146 
  98   2.0000      -6.617778      -180.0789 
  99   2.0000      -6.617313      -180.0662 
 100   2.0000      -6.607492      -179.7990 
 101   2.0000      -6.606713      -179.7778 
 102   2.0000      -6.605034      -179.7321 
 103   2.0000      -6.604258      -179.7110 
 104   2.0000      -6.603798      -179.6985 
 105   2.0000      -6.603294      -179.6848 
 106   2.0000      -6.603061      -179.6784 
 107   2.0000      -6.602538      -179.6642 
 108   2.0000      -6.121019      -166.5614 
 109   2.0000      -6.113216      -166.3491 
 110   2.0000      -6.113094      -166.3457 
 111   2.0000      -6.036950      -164.2738 
 112   2.0000      -6.036525      -164.2622 
 113   2.0000      -6.032859      -164.1624 
 114   2.0000      -6.032050      -164.1404 
 115   2.0000      -6.029062      -164.0591 
 116   2.0000      -6.028115      -164.0334 
 117   2.0000      -6.018941      -163.7837 
 118   2.0000      -6.014819      -163.6715 
 119   2.0000      -6.011655      -163.5855 
 120   2.0000      -6.008647      -163.5036 
 121   2.0000      -6.007732      -163.4787 
 122   2.0000      -6.000526      -163.2826 
 123   2.0000      -2.737369       -74.4876 
 124   2.0000      -2.734999       -74.4231 
 125   2.0000      -2.733683       -74.3873 
 126   2.0000      -2.733618       -74.3855 
 127   2.0000      -2.733206       -74.3743 
 128   2.0000      -2.733038       -74.3697 
 129   2.0000      -2.731182       -74.3192 
 130   2.0000      -2.730633       -74.3043 
 131   2.0000      -2.729909       -74.2846 
 132   2.0000      -2.729433       -74.2717 
 133   2.0000      -2.729369       -74.2699 
 134   2.0000      -2.728884       -74.2567 
 135   2.0000      -2.721908       -74.0669 
 136   2.0000      -2.721896       -74.0666 
 137   2.0000      -2.719423       -73.9993 
 138   2.0000      -2.719412       -73.9990 
 139   2.0000      -2.718230       -73.9668 
 140   2.0000      -2.718218       -73.9665 
 141   2.0000      -2.717704       -73.9525 
 142   2.0000      -2.717694       -73.9522 
 143   2.0000      -1.192187       -32.4411 
 144   2.0000      -1.189208       -32.3600 
 145   2.0000      -1.156290       -31.4642 
 146   2.0000      -1.140011       -31.0213 
 147   2.0000      -1.135634       -30.9022 
 148   2.0000      -1.134312       -30.8662 
 149   2.0000      -1.061493       -28.8847 
 150   2.0000      -1.027366       -27.9560 
 151   2.0000      -1.024341       -27.8737 
 152   2.0000      -1.022904       -27.8346 
 153   2.0000      -1.018392       -27.7119 
 154   2.0000      -1.011683       -27.5293 
 155   2.0000      -1.010760       -27.5042 
 156   2.0000      -1.009388       -27.4669 
 157   2.0000      -1.007676       -27.4203 
 158   2.0000      -1.002129       -27.2693 
 159   2.0000      -0.999160       -27.1885 
 160   2.0000      -0.996851       -27.1257 
 161   2.0000      -0.985616       -26.8200 
 162   2.0000      -0.978638       -26.6301 
 163   2.0000      -0.974508       -26.5177 
 164   2.0000      -0.941633       -25.6231 
 165   2.0000      -0.937735       -25.5171 
 166   2.0000      -0.923346       -25.1255 
 167   2.0000      -0.921117       -25.0649 
 168   2.0000      -0.917906       -24.9775 
 169   2.0000      -0.917483       -24.9660 
 170   2.0000      -0.913057       -24.8456 
 171   2.0000      -0.910519       -24.7765 
 172   2.0000      -0.906185       -24.6585 
 173   2.0000      -0.898331       -24.4448 
 174   2.0000      -0.879971       -23.9452 
 175   2.0000      -0.877783       -23.8857 
 176   2.0000      -0.873416       -23.7669 
 177   2.0000      -0.861807       -23.4510 
 178   2.0000      -0.854297       -23.2466 
 179   2.0000      -0.850831       -23.1523 
 180   2.0000      -0.847669       -23.0662 
 181   2.0000      -0.829446       -22.5704 
 182   2.0000      -0.824071       -22.4241 
 183   2.0000      -0.806208       -21.9380 
 184   2.0000      -0.791503       -21.5379 
 185   2.0000      -0.784011       -21.3340 
 186   2.0000      -0.778491       -21.1838 
 187   2.0000      -0.778345       -21.1798 
 188   2.0000      -0.768448       -20.9105 
 189   2.0000      -0.765729       -20.8365 
 190   2.0000      -0.762538       -20.7497 
 191   2.0000      -0.746148       -20.3037 
 192   2.0000      -0.738613       -20.0987 
 193   2.0000      -0.729057       -19.8387 
 194   2.0000      -0.719476       -19.5780 
 195   2.0000      -0.709250       -19.2997 
 196   2.0000      -0.706186       -19.2163 
 197   2.0000      -0.699607       -19.0373 
 198   2.0000      -0.698303       -19.0018 
 199   2.0000      -0.693540       -18.8722 
 200   2.0000      -0.681462       -18.5435 
 201   2.0000      -0.676786       -18.4163 
 202   2.0000      -0.668088       -18.1796 
 203   2.0000      -0.667565       -18.1654 
 204   2.0000      -0.660478       -17.9725 
 205   2.0000      -0.651940       -17.7402 
 206   2.0000      -0.646639       -17.5959 
 207   2.0000      -0.641964       -17.4687 
 208   2.0000      -0.633587       -17.2408 
 209   2.0000      -0.630790       -17.1647 
 210   2.0000      -0.625542       -17.0219 
 211   2.0000      -0.619823       -16.8663 
 212   2.0000      -0.617351       -16.7990 
 213   2.0000      -0.600023       -16.3274 
 214   2.0000      -0.595991       -16.2177 
 215   2.0000      -0.594827       -16.1861 
 216   2.0000      -0.592386       -16.1196 
 217   2.0000      -0.589568       -16.0430 
 218   2.0000      -0.586993       -15.9729 
 219   2.0000      -0.583591       -15.8803 
 220   2.0000      -0.575443       -15.6586 
 221   2.0000      -0.574033       -15.6202 
 222   2.0000      -0.569685       -15.5019 
 223   2.0000      -0.564640       -15.3646 
 224   2.0000      -0.561487       -15.2788 
 225   2.0000      -0.553865       -15.0714 
 226   2.0000      -0.549925       -14.9642 
 227   2.0000      -0.548855       -14.9351 
 228   2.0000      -0.547812       -14.9067 
 229   2.0000      -0.547290       -14.8925 
 230   2.0000      -0.541360       -14.7311 
 231   2.0000      -0.538920       -14.6648 
 232   2.0000      -0.536110       -14.5883 
 233   2.0000      -0.534841       -14.5538 
 234   2.0000      -0.528475       -14.3805 
 235   2.0000      -0.527296       -14.3484 
 236   2.0000      -0.520189       -14.1551 
 237   2.0000      -0.517260       -14.0754 
 238   2.0000      -0.517055       -14.0698 
 239   2.0000      -0.513036       -13.9604 
 240   2.0000      -0.510854       -13.9011 
 241   2.0000      -0.503269       -13.6946 
 242   2.0000      -0.502648       -13.6777 
 243   2.0000      -0.501728       -13.6527 
 244   2.0000      -0.501199       -13.6383 
 245   2.0000      -0.498321       -13.5600 
 246   2.0000      -0.497322       -13.5328 
 247   2.0000      -0.495712       -13.4890 
 248   2.0000      -0.493488       -13.4285 
 249   2.0000      -0.489732       -13.3263 
 250   2.0000      -0.486575       -13.2404 
 251   2.0000      -0.478915       -13.0319 
 252   2.0000      -0.472657       -12.8617 
 253   2.0000      -0.471649       -12.8342 
 254   2.0000      -0.465899       -12.6778 
 255   2.0000      -0.464432       -12.6378 
 256   2.0000      -0.463665       -12.6170 
 257   2.0000      -0.462612       -12.5883 
 258   2.0000      -0.461500       -12.5581 
 259   2.0000      -0.460613       -12.5339 
 260   2.0000      -0.459420       -12.5015 
 261   2.0000      -0.457100       -12.4383 
 262   2.0000      -0.456166       -12.4129 
 263   2.0000      -0.452719       -12.3191 
 264   2.0000      -0.451791       -12.2939 
 265   2.0000      -0.450302       -12.2533 
 266   2.0000      -0.448950       -12.2166 
 267   2.0000      -0.447611       -12.1801 
 268   2.0000      -0.444732       -12.1018 
 269   2.0000      -0.441237       -12.0067 
 270   2.0000      -0.437162       -11.8958 
 271   2.0000      -0.435485       -11.8502 
 272   2.0000      -0.433765       -11.8033 
 273   2.0000      -0.432812       -11.7774 
 274   2.0000      -0.431051       -11.7295 
 275   2.0000      -0.429281       -11.6813 
 276   2.0000      -0.427236       -11.6257 
 277   2.0000      -0.425599       -11.5811 
 278   2.0000      -0.423426       -11.5220 
 279   2.0000      -0.418811       -11.3964 
 280   2.0000      -0.417543       -11.3619 
 281   2.0000      -0.415752       -11.3132 
 282   2.0000      -0.412936       -11.2366 
 283   2.0000      -0.409730       -11.1493 
 284   2.0000      -0.405919       -11.0456 
 285   2.0000      -0.404297       -11.0015 
 286   2.0000      -0.399239       -10.8638 
 287   2.0000      -0.397668       -10.8211 
 288   2.0000      -0.394631       -10.7385 
 289   2.0000      -0.391284       -10.6474 
 290   2.0000      -0.389602       -10.6016 
 291   2.0000      -0.388472       -10.5709 
 292   2.0000      -0.384528       -10.4635 
 293   2.0000      -0.376408       -10.2426 
 294   2.0000      -0.368937       -10.0393 
 295   2.0000      -0.362014        -9.8509 
 296   2.0000      -0.359013        -9.7692 
 297   2.0000      -0.356913        -9.7121 
 298   2.0000      -0.348628        -9.4867 
 299   2.0000      -0.347715        -9.4618 
 300   2.0000      -0.343095        -9.3361 
 301   2.0000      -0.339648        -9.2423 
 302   2.0000      -0.338858        -9.2208 
 303   2.0000      -0.337831        -9.1928 
 304   2.0000      -0.331364        -9.0169 
 305   2.0000      -0.326344        -8.8803 
 306   2.0000      -0.313186        -8.5222 
 307   2.0000      -0.307860        -8.3773 
 308   2.0000      -0.295536        -8.0419 
 309   2.0000      -0.287422        -7.8212 
 310   2.0000      -0.284887        -7.7522 
 311   2.0000      -0.258620        -7.0374 
 312   0.0000      -0.140384        -3.8200 
 313   0.0000      -0.092465        -2.5161 
 314   0.0000      -0.084258        -2.2928 
 315   0.0000      -0.070148        -1.9088 
 316   0.0000      -0.066851        -1.8191 
 317   0.0000      -0.056291        -1.5317 
 318   0.0000      -0.045656        -1.2424 
 319   0.0000      -0.021840        -0.5943 
 320   0.0000      -0.010163        -0.2765 
 321   0.0000       0.011225         0.3054 
 322   0.0000       0.014702         0.4001 
 323   0.0000       0.017533         0.4771 
 324   0.0000       0.024984         0.6799 
 325   0.0000       0.035693         0.9713 
 326   0.0000       0.037417         1.0182 
 327   0.0000       0.038697         1.0530 
 328   0.0000       0.040751         1.1089 
 329   0.0000       0.042513         1.1568 
 330   0.0000       0.044481         1.2104 
 331   0.0000       0.053197         1.4476 
 332   0.0000       0.054181         1.4743 
 333   0.0000       0.061255         1.6668 
 334   0.0000       0.061928         1.6851 
 335   0.0000       0.064005         1.7417 
 336   0.0000       0.071821         1.9544 
 337   0.0000       0.078366         2.1325 
 338   0.0000       0.079897         2.1741 
 339   0.0000       0.082265         2.2385 
 340   0.0000       0.086787         2.3616 
 341   0.0000       0.088072         2.3965 
 342   0.0000       0.091432         2.4880 
 343   0.0000       0.096448         2.6245 
 344   0.0000       0.097813         2.6616 
 345   0.0000       0.100101         2.7239 
 346   0.0000       0.105090         2.8596 
 347   0.0000       0.111671         3.0387 
 348   0.0000       0.112627         3.0647 
 349   0.0000       0.114018         3.1026 
 350   0.0000       0.115010         3.1296 
 351   0.0000       0.125714         3.4208 
 352   0.0000       0.126493         3.4421 
 353   0.0000       0.131954         3.5907 
 354   0.0000       0.133377         3.6294 
 355   0.0000       0.134978         3.6729 
 356   0.0000       0.141464         3.8494 
 357   0.0000       0.141853         3.8600 
 358   0.0000       0.143872         3.9150 
 359   0.0000       0.146137         3.9766 
 360   0.0000       0.147666         4.0182 
 361   0.0000       0.149889         4.0787 
 362   0.0000       0.152473         4.1490 
 363   0.0000       0.157783         4.2935 
 364   0.0000       0.160442         4.3659 
 365   0.0000       0.161863         4.4045 
 366   0.0000       0.167048         4.5456 
 367   0.0000       0.172122         4.6837 
 368   0.0000       0.177269         4.8237 
 369   0.0000       0.185283         5.0418 
 370   0.0000       0.187671         5.1068 
 371   0.0000       0.188260         5.1228 
 372   0.0000       0.190203         5.1757 
 373   0.0000       0.192131         5.2282 
 374   0.0000       0.193951         5.2777 
 375   0.0000       0.205632         5.5955 
 376   0.0000       0.209467         5.6999 
 377   0.0000       0.213111         5.7991 
 378   0.0000       0.220449         5.9987 
 379   0.0000       0.220587         6.0025 
 380   0.0000       0.223792         6.0897 
 381   0.0000       0.229599         6.2477 
 382   0.0000       0.230747         6.2789 
 383   0.0000       0.232116         6.3162 
 384   0.0000       0.236077         6.4240 
 385   0.0000       0.238969         6.5027 
 386   0.0000       0.244553         6.6546 
 387   0.0000       0.247823         6.7436 
 388   0.0000       0.250602         6.8192 
 389   0.0000       0.251729         6.8499 
 390   0.0000       0.261009         7.1024 
 391   0.0000       0.267449         7.2777 
 392   0.0000       0.268904         7.3172 
 393   0.0000       0.269795         7.3415 
 394   0.0000       0.272537         7.4161 
[...]
  51   4.598     269.6   0.001462   0.001180   1.333796   1.475700     0.13 (  83-> 100)    0.07 (  78-> 100)    0.05 (  89-> 101)
  52   4.627     268.0   0.035842   0.027503  109.348049  96.851928     0.33 (  91-> 102)    0.06 (  95-> 104)    0.05 (  90-> 102)
  53   4.687     264.5   0.030769   0.025687  15.688851  11.960508     0.15 (  96-> 106)    0.14 (  78-> 100)    0.08 (  76-> 100)
  54   4.698     263.9   0.077524   0.069244  -25.561968  -23.584179     0.31 (  96-> 106)    0.13 (  98-> 103)    0.10 (  99-> 107)
  55   4.726     262.3   0.114914   0.102496  -1.953280  -1.552286     0.14 (  96-> 105)    0.13 (  99-> 107)    0.09 (  96-> 106)
  56   4.765     260.2   0.193240   0.160695  17.980267  23.350514     0.12 (  98-> 103)    0.09 (  95-> 101)    0.09 (  93-> 101)
  57   4.785     259.1   0.070498   0.061863  -7.764064  -2.619845     0.19 (  98-> 103)    0.14 (  96-> 106)    0.09 (  96-> 105)
  58   4.799     258.3   0.021696   0.020618  13.201412  25.828765     0.20 (  71-> 100)    0.12 (  72-> 100)    0.11 (  95-> 101)
  59   4.885     253.8   0.137762   0.122981  57.811449  50.914139     0.13 (  93-> 102)    0.06 (  95-> 101)    0.06 (  88-> 102)
  60   4.908     252.6   0.017785   0.016465  -14.865749  -18.103023     0.18 (  76-> 100)    0.15 (  68-> 100)    0.11 (  70-> 100)
  61   4.949     250.5   0.004507   0.004027  -16.955859  -14.074284     0.25 (  95-> 101)    0.17 (  99-> 108)    0.05 (  93-> 102)
  62   4.959     250.0   0.001464   0.001318  -2.148092  -0.125450     0.50 (  86-> 101)    0.25 (  86-> 103)    0.09 (  86-> 100)
  63   4.985     248.7   0.009133   0.007558   0.121768   0.812262     0.56 (  97-> 104)    0.13 (  97-> 107)    0.11 (  97-> 105)

-----------------------------------------------------------------------------
         ABSORPTION SPECTRUM VIA TRANSITION ELECTRIC DIPOLE MOMENTS
-----------------------------------------------------------------------------
State   Energy  Wavelength   fosc         T2         TX        TY        TZ  
        (cm-1)    (nm)                  (au**2)     (au)      (au)      (au) 
-----------------------------------------------------------------------------
   0    9394.5   1064.4   0.526334886  18.44432  -0.87551   3.14428  -2.79129
   1   13775.1    725.9   0.220490549   5.26951   0.30396  -1.51982   1.69330
   2   15352.9    651.3   0.040459338   0.86757  -0.48643  -0.07244  -0.79102
   3   18424.6    542.8   0.017358760   0.31017   0.55606  -0.01266  -0.02827
   4   21333.3    468.8   0.687710031  10.61264  -0.89228   2.08657  -2.33724
   5   21982.4    454.9   0.196261214   2.93924   0.32868   1.34409  -1.01225
   6   22390.1    446.6   0.009969563   0.14659   0.04131   0.28620   0.25094
   7   24005.4    416.6   0.018401091   0.25235  -0.31665  -0.34306  -0.18547
   8   24486.4    408.4   0.031669197   0.42578   0.13558   0.41480  -0.48512
   9   24875.6    402.0   0.046349075   0.61340  -0.26393  -0.37444   0.63524
  10   25357.7    394.4   0.035230185   0.45738   0.07371  -0.25695  -0.62123
  11   25444.7    393.0   0.042368966   0.54818  -0.16188  -0.69863  -0.18412
  12   26192.9    381.8   0.130291187   1.63760   0.72833  -0.44994   0.95115
  13   26441.4    378.2   0.074938941   0.93304   0.47720  -0.76112   0.35499
  14   26874.7    372.1   0.031875484   0.39047   0.17948  -0.51720  -0.30126
  15   27350.2    365.6   0.085511399   1.02929   0.42316  -0.83197   0.39756
  16   27442.6    364.4   0.061303535   0.73542  -0.39903  -0.26922   0.70973
  17   27887.1    358.6   0.089210664   1.05315  -0.09284  -0.17084   1.00764
  18   28653.0    349.0   0.089814524   1.03194  -0.75195  -0.09451  -0.67644
  19   28839.4    346.7   0.110181524   1.25776  -0.36497  -0.13999  -1.05117
  20   29547.1    338.4   0.008246541   0.09188  -0.02499  -0.25875  -0.15591
  21   29606.2    337.8   0.002375363   0.02641   0.13292  -0.08632  -0.03598
  22   30278.0    330.3   0.056021496   0.60912   0.45040  -0.53524   0.34610
  23   30655.9    326.2   0.009161672   0.09839   0.12331   0.23969  -0.16040
  24   30965.2    322.9   0.005323583   0.05660  -0.23370  -0.03090   0.03205
  25   31365.3    318.8   0.069042415   0.72467   0.55297   0.28835   0.57944
  26   31521.6    317.2   0.092888343   0.97013   0.02251   0.42067   0.89031
  27   31633.6    316.1   0.404825258   4.21304  -0.16536  -1.88948  -0.78459
  28   31948.1    313.0   0.199531981   2.05609   0.79637   0.19496   1.17638
  29   32164.5    310.9   0.038864779   0.39779  -0.06618   0.57167   0.25808
  30   32375.6    308.9   0.105454815   1.07232  -0.81468   0.38356  -0.51137
  31   32461.0    308.1   0.038080084   0.38620  -0.48468   0.17769  -0.34599
  32   32826.2    304.6   0.031714115   0.31806  -0.43011   0.35282  -0.09266
  33   32978.2    303.2   0.195370125   1.95032  -0.05237  -0.57369  -1.27219
  34   33062.0    302.5   0.080928062   0.80583   0.18665   0.13655   0.86738
  35   33623.2    297.4   0.009100544   0.08911  -0.16092  -0.08216  -0.23762
  36   33714.6    296.6   0.256078257   2.50052   0.25998  -0.51500  -1.47231
  37   34452.5    290.3   0.346736345   3.31325   0.84177  -1.54229  -0.47540
  38   34921.8    286.4   0.140088850   1.32063   0.50718  -0.20155  -1.01132
  39   34998.1    285.7   0.391411838   3.68184  -0.50023   0.19242  -1.84244
  40   35304.9    283.2   0.036800207   0.34316   0.10955  -0.53465  -0.21284
  41   35410.8    282.4   0.021454957   0.19947   0.13356  -0.38590  -0.18085
  42   35525.2    281.5   0.069524795   0.64429   0.21276   0.29928   0.71376
  43   35656.7    280.5   0.025312960   0.23371   0.24254   0.01556   0.41790
  44   35742.2    279.8   0.035416543   0.32621   0.20268   0.19611   0.49666
  45   36141.6    276.7   0.013756108   0.12530   0.11093  -0.21375  -0.25943
  46   36184.1    276.4   0.000773103   0.00703   0.07256  -0.00278  -0.04197
  47   36361.3    275.0   0.000596910   0.00540  -0.03597  -0.00248   0.06406
  48   36461.8    274.3   0.021040559   0.18997  -0.02171  -0.21895  -0.37625
  49   36693.9    272.5   0.012198422   0.10944   0.07952   0.32111   0.00271
  50   36886.4    271.1   0.056333711   0.50278  -0.09118  -0.10384  -0.69547
  51   37087.1    269.6   0.001461902   0.01298   0.10047   0.04411   0.03060
  52   37319.5    268.0   0.035841691   0.31618  -0.25973   0.45288  -0.20885
  53   37800.8    264.5   0.030768702   0.26797  -0.16288   0.19514  -0.45095
  54   37894.3    263.9   0.077523840   0.67350  -0.29498   0.52468  -0.55786
  55   38121.5    262.3   0.114914470   0.99239  -0.03218  -0.83411   0.54370
  56   38431.4    260.2   0.193239569   1.65533   0.59493  -0.63511   0.94764
  57   38591.8    259.1   0.070498439   0.60139  -0.00735   0.43424   0.64247
  58   38708.0    258.3   0.021696099   0.18453  -0.03800   0.15963  -0.39699
  59   39403.2    253.8   0.137762091   1.15100  -0.13672  -0.93505  -0.50792
  60   39586.3    252.6   0.017784724   0.14790   0.18307  -0.02539   0.33726
  61   39914.7    250.5   0.004506668   0.03717   0.18941   0.03467  -0.00959
  62   39999.8    250.0   0.001464099   0.01205   0.06720  -0.00621   0.08658
  63   40204.9    248.7   0.009133194   0.07479   0.01094  -0.27084  -0.03621

-----------------------------------------------------------------------------
         ABSORPTION SPECTRUM VIA TRANSITION VELOCITY DIPOLE MOMENTS
-----------------------------------------------------------------------------
State   Energy  Wavelength   fosc         P2         PX        PY        PZ  
        (cm-1)    (nm)                  (au**2)     (au)      (au)      (au) 
-----------------------------------------------------------------------------
   0    9394.5   1064.4   1.112053948   0.07140  -0.05085   0.19703  -0.17319
   1   13775.1    725.9   0.324830839   0.03058   0.02934  -0.11831   0.12539
   2   15352.9    651.3   0.049022759   0.00514  -0.03740  -0.00625  -0.06088
   3   18424.6    542.8   0.019741939   0.00249   0.04966  -0.00423  -0.00132
   4   21333.3    468.8   0.699777115   0.10203  -0.08939   0.20288  -0.22995
   5   21982.4    454.9   0.196992141   0.02960   0.03605   0.13559  -0.09955
   6   22390.1    446.6   0.011100814   0.00170  -0.00155   0.03152   0.02651
   7   24005.4    416.6   0.019803228   0.00325  -0.03709  -0.03708  -0.02231
   8   24486.4    408.4   0.027140715   0.00454   0.01794   0.04084  -0.05052
   9   24875.6    402.0   0.048206620   0.00820  -0.03046  -0.04483   0.07251
  10   25357.7    394.4   0.041488005   0.00719   0.00928  -0.03554  -0.07643
  11   25444.7    393.0   0.043634050   0.00759  -0.01805  -0.08222  -0.02240
  12   26192.9    381.8   0.129957034   0.02326   0.09067  -0.05092   0.11158
  13   26441.4    378.2   0.072764286   0.01315   0.05319  -0.09173   0.04366
  14   26874.7    372.1   0.029734307   0.00546   0.02059  -0.05990  -0.03808
  15   27350.2    365.6   0.072650809   0.01358   0.04838  -0.09579   0.04544
  16   27442.6    364.4   0.062122793   0.01165  -0.04894  -0.03771   0.08851
  17   27887.1    358.6   0.082071882   0.01564  -0.01121  -0.01705   0.12339
  18   28653.0    349.0   0.083820914   0.01641  -0.09576  -0.01239  -0.08421
  19   28839.4    346.7   0.103467592   0.02039  -0.04354  -0.02203  -0.13421
  20   29547.1    338.4   0.008500486   0.00172  -0.00326  -0.03524  -0.02154
  21   29606.2    337.8   0.001888192   0.00038   0.01588  -0.01019  -0.00511
  22   30278.0    330.3   0.048074145   0.00995   0.06019  -0.06729   0.04240
  23   30655.9    326.2   0.008424799   0.00177   0.01774   0.03268  -0.01956
  24   30965.2    322.9   0.004929845   0.00104  -0.03120  -0.00592   0.00591
  25   31365.3    318.8   0.067830467   0.01454   0.07807   0.04396   0.08071
  26   31521.6    317.2   0.091311585   0.01967   0.00498   0.05939   0.12697
  27   31633.6    316.1   0.389981852   0.08431  -0.02293  -0.26681  -0.11226
  28   31948.1    313.0   0.192795937   0.04210   0.11502   0.03048   0.16715
  29   32164.5    310.9   0.037180222   0.00817  -0.01037   0.08184   0.03698
  30   32375.6    308.9   0.094681886   0.02095  -0.11416   0.05365  -0.07099
  31   32461.0    308.1   0.032796922   0.00728  -0.06691   0.02299  -0.04765
  32   32826.2    304.6   0.029545529   0.00663  -0.06231   0.05068  -0.01336
  33   32978.2    303.2   0.180530963   0.04069  -0.00393  -0.08558  -0.18262
  34   33062.0    302.5   0.078647101   0.01777   0.02635   0.02093   0.12899
  35   33623.2    297.4   0.008627732   0.00198  -0.02460  -0.01506  -0.03392
  36   33714.6    296.6   0.231556442   0.05336   0.03851  -0.07853  -0.21379
  37   34452.5    290.3   0.307746546   0.07246   0.12330  -0.22835  -0.07154
  38   34921.8    286.4   0.133263219   0.03181   0.07926  -0.03351  -0.15621
  39   34998.1    285.7   0.350568498   0.08385  -0.07565   0.02919  -0.27799
  40   35304.9    283.2   0.033167873   0.00800   0.01428  -0.08139  -0.03427
  41   35410.8    282.4   0.017771128   0.00430   0.01845  -0.05593  -0.02885
  42   35525.2    281.5   0.061348381   0.01490   0.03546   0.04340   0.10842
  43   35656.7    280.5   0.021592078   0.00526   0.03665   0.00313   0.06252
  44   35742.2    279.8   0.030564752   0.00747   0.02865   0.03440   0.07391
  45   36141.6    276.7   0.012352222   0.00305   0.01641  -0.03216  -0.04180
  46   36184.1    276.4   0.000513775   0.00013   0.00962   0.00044  -0.00586
  47   36361.3    275.0   0.000541494   0.00013  -0.00565  -0.00102   0.01008
  48   36461.8    274.3   0.019792529   0.00493  -0.00054  -0.03835  -0.05883
  49   36693.9    272.5   0.011893457   0.00298   0.01400   0.05278  -0.00070
  50   36886.4    271.1   0.049169042   0.01240  -0.01083  -0.01682  -0.10952
  51   37087.1    269.6   0.001180442   0.00030   0.01595   0.00519   0.00423
  52   37319.5    268.0   0.027503409   0.00702  -0.03947   0.06767  -0.02964
  53   37800.8    264.5   0.025686621   0.00664  -0.03050   0.02874  -0.06986
  54   37894.3    263.9   0.069244232   0.01793  -0.04957   0.08427  -0.09152
  55   38121.5    262.3   0.102495984   0.02670  -0.00892  -0.13580   0.09045
  56   38431.4    260.2   0.160694620   0.04221   0.09462  -0.09903   0.15313
  57   38591.8    259.1   0.061863017   0.01632  -0.00175   0.07532   0.10315
  58   38708.0    258.3   0.020618069   0.00545  -0.00093   0.02794  -0.06836
  59   39403.2    253.8   0.122981265   0.03312  -0.02375  -0.15700  -0.08892
  60   39586.3    252.6   0.016464680   0.00445   0.03786   0.00109   0.05495
  61   39914.7    250.5   0.004027078   0.00110   0.03254   0.00617   0.00133
  62   39999.8    250.0   0.001317752   0.00036   0.00852  -0.00247   0.01678
  63   40204.9    248.7   0.007557878   0.00208   0.00457  -0.04514  -0.00429

-------------------------------------------------------------------
                             CD SPECTRUM
-------------------------------------------------------------------
State   Energy Wavelength       R         MX        MY        MZ   
        (cm-1)   (nm)       (1e40*cgs)   (au)      (au)      (au)  
-------------------------------------------------------------------
   0    9394.5   1064.4    -81.64006  -1.04432   0.77538   1.07691
   1   13775.1    725.9    103.49642   1.68415  -0.23368  -0.77135
   2   15352.9    651.3    -16.04191  -0.39718   0.18241   0.14150
   3   18424.6    542.8     17.94410  -0.18366  -0.43498  -0.72508
   4   21333.3    468.8    177.25178  -1.15804   0.82351   1.49902
   5   21982.4    454.9     -2.52297   0.13236  -0.41727  -0.52166
   6   22390.1    446.6    -25.96479   0.55580  -0.00677   0.35518
   7   24005.4    416.6    -54.87963  -0.69253  -0.19739   0.29219
   8   24486.4    408.4    -59.91504   0.18171   0.09830  -0.38911
   9   24875.6    402.0    -50.37866   0.36413   0.19278   0.60136
  10   25357.7    394.4     47.87806  -1.55077   0.44599  -0.04153
  11   25444.7    393.0     89.73755  -0.25154   0.56098   0.16021
  12   26192.9    381.8    -52.95674   1.57362  -0.86244  -1.37675
  13   26441.4    378.2    -19.49129   0.94209   0.16321  -0.68354
  14   26874.7    372.1     18.09359  -0.37937   0.34463  -0.56289
  15   27350.2    365.6     15.38960   0.10593  -0.50213  -1.32777
  16   27442.6    364.4     31.86555   1.01445  -0.17885   0.31203
  17   27887.1    358.6    -50.86575   1.90435   0.18206   0.42048
  18   28653.0    349.0     37.12645  -0.21935   0.74032   0.37324
  19   28839.4    346.7    -10.05895  -1.67315   0.73898   0.44190
  20   29547.1    338.4    -20.87449  -0.08992  -0.08801  -0.40752
  21   29606.2    337.8      1.29955   0.03572   0.22005  -0.24268
  22   30278.0    330.3    -86.62032   1.40442  -0.46881  -1.49093
  23   30655.9    326.2     -5.16321  -0.16380   0.17188  -0.00563
  24   30965.2    322.9    -59.79578  -0.99511  -0.01547   0.64381
  25   31365.3    318.8    -19.63702   2.70378  -1.48982  -1.69514
  26   31521.6    317.2    122.36934   1.86383  -0.92843  -0.19152
  27   31633.6    316.1     70.81192  -3.60188   0.57186  -0.23519
  28   31948.1    313.0     67.06712   2.67586  -1.01150  -1.88568
  29   32164.5    310.9    -144.51031   0.42994   0.71123   0.91026
  30   32375.6    308.9    -128.48213  -1.51605  -0.17550   1.21775
  31   32461.0    308.1    -99.45946  -1.49815   0.64035   1.20808
  32   32826.2    304.6    -122.00382  -2.09615  -0.78655   1.14925
  33   32978.2    303.2      9.50088  -2.61362   0.87661  -0.25603
  34   33062.0    302.5     80.36488   3.27507  -0.83096  -0.96700
  35   33623.2    297.4     -2.51314  -1.01130   0.23864   0.55747
  36   33714.6    296.6     -4.22466  -1.88565   1.56238  -0.89164
  37   34452.5    290.3     18.16170   1.89705   1.86473  -2.52846
  38   34921.8    286.4     41.93685  -1.70353   1.51258  -0.97986
  39   34998.1    285.7     63.73480  -6.71651   2.14420   2.19426
  40   35304.9    283.2     47.66887   0.29370   0.61108  -0.43372
  41   35410.8    282.4     29.86175  -1.14609   0.08131  -0.31939
  42   35525.2    281.5      2.54602   3.62575  -0.45398  -0.90558
  43   35656.7    280.5    -46.56037   2.22535  -0.10413  -0.81500
  44   35742.2    279.8    -76.93477   2.49819  -0.03228  -0.34956
  45   36141.6    276.7     51.40666  -1.47780   0.09319   0.13191
  46   36184.1    276.4    -16.62956   0.89993   0.41822  -0.15281
  47   36361.3    275.0      5.98688   0.61869  -0.04983  -0.05095
  48   36461.8    274.3    -15.98305  -0.25761   0.46605  -0.43656
  49   36693.9    272.5    -27.63288   1.05150   0.10667  -0.23628
  50   36886.4    271.1    -32.11643  -1.32421   0.75066  -0.13437
  51   37087.1    269.6      1.33380  -0.09571   0.08593   0.00546
  52   37319.5    268.0    109.34805   2.50466   0.73595   0.70216
  53   37800.8    264.5     15.68885  -0.49025   0.67817   0.61813
  54   37894.3    263.9    -25.56197  -0.58699   0.66553   0.74194
  55   38121.5    262.3     -1.95328  -0.19161  -0.31008  -0.47180
  56   38431.4    260.2     17.98027   1.19533  -0.88795  -1.42604
  57   38591.8    259.1     -7.76406   1.80601  -0.41194   0.35034
  58   38708.0    258.3     13.20141  -1.71815  -0.08490   0.27141
  59   39403.2    253.8     57.81145  -2.80300   0.70059  -0.05236
  60   39586.3    252.6    -14.86575   0.85260  -0.62646  -0.32296
  61   39914.7    250.5    -16.95586   0.35860  -0.02291  -0.50066
  62   39999.8    250.0     -2.14809   0.37571  -0.01875  -0.18772
  63   40204.9    248.7      0.12177  -0.02075   0.03847  -0.27975

sTD-DFT done

Total run time:        3.715 sec

           *** ORCA-CIS/TD-DFT FINISHED WITHOUT ERROR ***

-------------------------   --------------------
FINAL SINGLE POINT ENERGY    -14968.612255330572
-------------------------   --------------------


                            ***************************************
                            *     ORCA property calculations      *
                            ***************************************

                                    ---------------------
                                    Active property flags
                                    ---------------------
   (+) Dipole Moment


------------------------------------------------------------------------------
                       ORCA ELECTRIC PROPERTIES CALCULATION
------------------------------------------------------------------------------

Dipole Moment Calculation                       ... on
Quadrupole Moment Calculation                   ... off
Polarizability Calculation                      ... off
GBWName                                         ... xtbopt.gbw
Electron density file                           ... xtbopt.scfp
The origin for moment calculation is the CENTER OF MASS  = (-4.630629, -15.649893  6.491756)

-------------
DIPOLE MOMENT
-------------
                                X             Y             Z
Electronic contribution:    -69.55211      -4.57070      36.11447
Nuclear contribution   :     71.71014       7.93206     -32.91847
                        -----------------------------------------
Total Dipole Moment    :      2.15803       3.36137       3.19601
                        -----------------------------------------
Magnitude (a.u.)       :      5.11570
Magnitude (Debye)      :     13.00307



--------------------
Rotational spectrum 
--------------------
 
Rotational constants in cm-1:     0.001937     0.000167     0.000162 
Rotational constants in MHz :    58.063488     5.015334     4.843524 

 Dipole components along the rotational axes: 
x,y,z [a.u.] :     0.225000     4.395939     2.606809 
x,y,z [Debye]:     0.571904    11.173589     6.625981 

 

Timings for individual modules:

Sum of individual times         ...      650.700 sec (=  10.845 min)
GTO integral calculation        ...        4.847 sec (=   0.081 min)   0.7 %
SCF iterations                  ...      640.789 sec (=  10.680 min)  98.5 %
CIS module                      ...        5.064 sec (=   0.084 min)   0.8 %
                             ****ORCA TERMINATED NORMALLY****
TOTAL RUN TIME: 0 days 0 hours 10 minutes 52 seconds 928 msec
