
                                 *****************
                                 * O   R   C   A *
                                 *****************

           --- An Ab Initio, DFT and Semiempirical electronic structure package ---

                  #######################################################
                  #                        -***-                        #
                  #          Department of theory and spectroscopy      #
                  #               Directorship: Frank Neese             #
                  #        Max Planck Institute fuer Kohlenforschung    #
                  #                Kaiser Wilhelm Platz 1               #
                  #                 D-45470 Muelheim/Ruhr               #
                  #                      Germany                        #
                  #                                                     #
                  #                  All rights reserved                #
                  #                        -***-                        #
                  #######################################################


                         Program Version 4.2.0 -  RELEASE  -


 With contributions from (in alphabetic order):
   Daniel Aravena         : Magnetic Suceptibility
   Michael Atanasov       : Ab Initio Ligand Field Theory (pilot matlab implementation)
   Alexander A. Auer      : GIAO ZORA, VPT2
   Ute Becker             : Parallelization
   Giovanni Bistoni       : ED, misc. LED, open-shell LED, HFLED
   Martin Brehm           : Molecular dynamics
   Dmytro Bykov           : SCF Hessian
   Vijay G. Chilkuri      : MRCI spin determinant printing, contributions to CSF-ICE
   Dipayan Datta          : RHF DLPNO-CCSD density
   Achintya Kumar Dutta   : EOM-CC, STEOM-CC
   Dmitry Ganyushin       : Spin-Orbit,Spin-Spin,Magnetic field MRCI
   Miquel Garcia          : C-PCM Hessian, Gaussian charge scheme
   Yang Guo               : DLPNO-NEVPT2, CIM, IAO-localization
   Andreas Hansen         : Spin unrestricted coupled pair/coupled cluster methods
   Benjamin Helmich-Paris : CASSCF linear response (MC-RPA)
   Lee Huntington         : MR-EOM, pCC
   Robert Izsak           : Overlap fitted RIJCOSX, COSX-SCS-MP3, EOM
   Christian Kollmar      : KDIIS, OOCD, Brueckner-CCSD(T), CCSD density
   Simone Kossmann        : Meta GGA functionals, TD-DFT gradient, OOMP2, MP2 Hessian
   Martin Krupicka        : AUTO-CI
   Lucas Lang             : DCDCAS
   Dagmar Lenk            : GEPOL surface, SMD
   Dimitrios Liakos       : Extrapolation schemes; Compound Job, initial MDCI parallelization
   Dimitrios Manganas     : Further ROCIS development; embedding schemes
   Dimitrios Pantazis     : SARC Basis sets
   Taras Petrenko         : DFT Hessian,TD-DFT gradient, ASA, ECA, R-Raman, ABS, FL, XAS/XES, NRVS
   Peter Pinski           : DLPNO-MP2, DLPNO-MP2 Gradient
   Christoph Reimann      : Effective Core Potentials
   Marius Retegan         : Local ZFS, SOC
   Christoph Riplinger    : Optimizer, TS searches, QM/MM, DLPNO-CCSD(T), (RO)-DLPNO pert. Triples
   Tobias Risthaus        : Range-separated hybrids, TD-DFT gradient, RPA, STAB
   Michael Roemelt        : Original ROCIS implementation
   Masaaki Saitow         : Open-shell DLPNO-CCSD energy and density
   Barbara Sandhoefer     : DKH picture change effects
   Avijit Sen             : IP-ROCIS
   Kantharuban Sivalingam : CASSCF convergence, NEVPT2, FIC-MRCI
   Bernardo de Souza      : ESD, SOC TD-DFT
   Georgi Stoychev        : AutoAux, RI-MP2 NMR
   Willem Van den Heuvel  : Paramagnetic NMR
   Boris Wezisla          : Elementary symmetry handling
   Frank Wennmohs         : Technical directorship


 We gratefully acknowledge several colleagues who have allowed us to
 interface, adapt or use parts of their codes:
   Stefan Grimme, W. Hujo, H. Kruse,             : VdW corrections, initial TS optimization,
                  C. Bannwarth                     DFT functionals, gCP, sTDA/sTD-DF
   Ed Valeev, F. Pavosevic, A. Kumar             : LibInt (2-el integral package), F12 methods
   Garnet Chan, S. Sharma, J. Yang, R. Olivares  : DMRG
   Ulf Ekstrom                                   : XCFun DFT Library
   Mihaly Kallay                                 : mrcc  (arbitrary order and MRCC methods)
   Andreas Klamt, Michael Diedenhofen            : otool_cosmo (COSMO solvation model)
   Jiri Pittner, Ondrej Demel                    : Mk-CCSD
   Frank Weinhold                                : gennbo (NPA and NBO analysis)
   Christopher J. Cramer and Donald G. Truhlar   : smd solvation model
   Lars Goerigk                                  : TD-DFT with DH, B97 family of functionals
   V. Asgeirsson, H. Jonsson                     : NEB implementation
   FAccTs GmbH                                   : IRC, NEB, NEB-TS, Multilevel, MM, QM/MM, CI optimization
   S Lehtola, MJT Oliveira, MAL Marques          : LibXC Library


 Your calculation uses the libint2 library for the computation of 2-el integrals
 For citations please refer to: http://libint.valeyev.net

 Your ORCA version has been built with support for libXC version: 4.2.3
 For citations please refer to: https://tddft.org/programs/libxc/

 This ORCA versions uses:
   CBLAS   interface :  Fast vector & matrix operations
   LAPACKE interface :  Fast linear algebra routines
   SCALAPACK package :  Parallel linear algebra routines


XCFun DFT library Copyright 2009-2010 Ulf Ekstrom and contributors.
See http://admol.org/xcfun for more information. This is free soft-
ware; see the source code for copying conditions. There is ABSOLUTELY
NO WARRANTY; not even for MERCHANTABILITY or FITNESS FOR A PARTICULAR
PURPOSE. For details see the documentation. Scientific users of this 
library should cite U. Ekstrom, L. Visscher, R. Bast, A. J. Thorvald-
sen and K. Ruud; J.Chem.Theor.Comp. 2010, DOI: 10.1021/ct100117s
XCFun Version 0.99 
----- Orbital basis set information -----
Your calculation utilizes the basis: def2-SVP
   F. Weigend and R. Ahlrichs, Phys. Chem. Chem. Phys. 7, 3297 (2005).

----- AuxJ basis set information -----
Your calculation utilizes the auxiliary basis: def2/J
   F. Weigend, Phys. Chem. Chem. Phys. 8, 1057 (2006).

================================================================================
                                        WARNINGS
                       Please study these warnings very carefully!
================================================================================

INFO   : Checking CIS options ...

WARNING: CIS/ROCIS methods need fully converged wavefunctions
  ===> : Setting SCFConvForced true
         You can overwrite this default with %scf ConvForced false 


INFO   : the flag for use of LIBINT has been found!

================================================================================
                                       INPUT FILE
================================================================================
NAME = xtbopt.inp
|  1> # ORCA input file
|  2> # SCF done       -192.011693754941          0.000790107772
|  3> ! CAM-B3LYP def2-SVP def2/J RIJCOSX Grid4 TightSCF
|  4> %maxcore 5000
|  5> %tddft
|  6>     Mode sTDDFT
|  7>     Ethresh 5.0
|  8>     maxcore 5000
|  9> end
| 10> 
| 11> %pal
| 12>   nprocs 6
| 13>   end
| 14> * xyz 0 1
| 15>    C       -2.79358         1.13047         3.09522
| 16>    N       -3.86209         0.48233         3.43879
| 17>    N       -4.05401        -0.79756         3.15051
| 18>    C       -3.18015        -1.51160         2.50687
| 19>    C       -1.96278        -0.91673         2.07434
| 20>    C       -1.75931         0.47298         2.38149
| 21>    N       -0.58036         0.80797         1.89015
| 22>    O       -0.09466        -0.28473         1.32519
| 23>    N       -0.89900        -1.33943         1.41827
| 24>    C       -3.44541        -2.95641         2.19822
| 25>    C       -4.72389        -3.45949         2.87298
| 26>    N       -3.68837        -3.02876         0.73552
| 27>    N       -3.20242        -3.80799        -0.02870
| 28>    C       -2.24538        -4.89101         0.29356
| 29>    C       -1.66910        -4.67934         1.64542
| 30>    C       -2.24966        -3.75459         2.55951
| 31>    N       -1.50636        -3.72995         3.62903
| 32>    O       -0.51169        -4.60010         3.41136
| 33>    N       -0.60219        -5.17262         2.20729
| 34>    C       -1.14034        -4.88144        -0.76669
| 35>    C       -3.09151        -6.13392         0.27552
| 36>    C       -3.90138        -6.66264        -0.70824
| 37>    C       -4.04065        -6.15841        -2.08236
| 38>    O       -3.52645        -5.15357        -2.51605
| 39>    C       -4.87581        -7.03465        -2.94126
| 40>    C       -5.67089        -8.09659        -2.43766
| 41>    C       -6.37292        -8.73233        -3.43101
| 42>    S       -6.07106        -8.06949        -4.98778
| 43>    C       -5.00467        -6.90822        -4.30455
| 44>    C       -4.31984        -5.92503        -5.20450
| 45>    F       -4.71534        -4.66745        -5.00027
| 46>    F       -2.98911        -5.96075        -5.08291
| 47>    F       -4.58719        -6.19982        -6.49431
| 48>    C       -7.31210        -9.88986        -3.28450
| 49>    F       -6.77534       -10.91407        -2.62001
| 50>    F       -8.44696        -9.55264        -2.66333
| 51>    F       -7.67120       -10.36446        -4.49158
| 52>    C       -5.70676        -8.44070        -1.00126
| 53>    O       -6.58116        -9.11683        -0.50606
| 54>    C       -4.61487        -7.81762        -0.25101
| 55>    C       -4.30539        -8.17313         1.04531
| 56>    S       -3.18292        -7.05347         1.74048
| 57>    C       -4.74024        -9.33409         1.77263
| 58>    C       -5.01015        -9.33168         3.12646
| 59>    C       -5.48478       -10.45822         3.80773
| 60>    C       -5.71014       -11.67924         3.19533
| 61>    C       -5.37244       -11.74335         1.81303
| 62>    C       -4.88796       -10.58195         1.11374
| 63>    N       -4.59502       -10.95751        -0.11590
| 64>    O       -4.88497       -12.25062        -0.18530
| 65>    N       -5.35373       -12.74312         0.95391
| 66>    C       -6.23772       -12.81408         3.88502
| 67>    C       -6.56685       -14.03242         3.35841
| 68>    C       -7.08723       -14.94024         4.30743
| 69>    C       -7.13041       -14.37973         5.60949
| 70>    S       -6.55214       -12.74124         5.60949
| 71>    C       -7.59385       -15.08936         6.70050
| 72>    S       -7.65156       -14.39779         8.33575
| 73>    C       -5.87369       -14.15679         8.65123
| 74>    C       -8.07988       -16.38076         6.46966
| 75>    C       -8.06128       -16.94320         5.16640
| 76>    C       -7.55217       -16.25119         4.07554
| 77>    S       -7.49270       -16.79658         2.40392
| 78>    C       -7.34556       -18.60540         2.48167
| 79>    S       -8.78287       -18.53650         5.19319
| 80>    C       -9.06984       -18.42586         6.89094
| 81>    C       -8.65510       -17.26187         7.42825
| 82>    H       -2.73027         2.17065         3.37316
| 83>    H       -5.56387        -2.86905         2.52047
| 84>    H       -4.63105        -3.33749         3.94819
| 85>    H       -4.88819        -4.50876         2.63448
| 86>    H       -0.54402        -3.98023        -0.64710
| 87>    H       -1.58065        -4.88203        -1.75821
| 88>    H       -0.50306        -5.75073        -0.63060
| 89>    H       -4.88529        -8.41177         3.67957
| 90>    H       -5.70387       -10.36198         4.86112
| 91>    H       -6.44434       -14.26377         2.31599
| 92>    H       -5.79954       -13.81245         9.67738
| 93>    H       -5.46834       -13.40966         7.97622
| 94>    H       -5.36028       -15.10689         8.53519
| 95>    H       -6.93910       -18.89521         1.51707
| 96>    H       -8.31656       -19.06749         2.62695
| 97>    H       -6.65765       -18.88204         3.27286
| 98>    H       -9.53945       -19.25475         7.38326
| 99>    H       -8.75080       -17.00184         8.46634
|100> *
|101> 
|102>                          ****END OF INPUT****
================================================================================

                       ****************************
                       * Single Point Calculation *
                       ****************************

---------------------------------
CARTESIAN COORDINATES (ANGSTROEM)
---------------------------------
  C     -2.793580    1.130470    3.095220
  N     -3.862090    0.482330    3.438790
  N     -4.054010   -0.797560    3.150510
  C     -3.180150   -1.511600    2.506870
  C     -1.962780   -0.916730    2.074340
  C     -1.759310    0.472980    2.381490
  N     -0.580360    0.807970    1.890150
  O     -0.094660   -0.284730    1.325190
  N     -0.899000   -1.339430    1.418270
  C     -3.445410   -2.956410    2.198220
  C     -4.723890   -3.459490    2.872980
  N     -3.688370   -3.028760    0.735520
  N     -3.202420   -3.807990   -0.028700
  C     -2.245380   -4.891010    0.293560
  C     -1.669100   -4.679340    1.645420
  C     -2.249660   -3.754590    2.559510
  N     -1.506360   -3.729950    3.629030
  O     -0.511690   -4.600100    3.411360
  N     -0.602190   -5.172620    2.207290
  C     -1.140340   -4.881440   -0.766690
  C     -3.091510   -6.133920    0.275520
  C     -3.901380   -6.662640   -0.708240
  C     -4.040650   -6.158410   -2.082360
  O     -3.526450   -5.153570   -2.516050
  C     -4.875810   -7.034650   -2.941260
  C     -5.670890   -8.096590   -2.437660
  C     -6.372920   -8.732330   -3.431010
  S     -6.071060   -8.069490   -4.987780
  C     -5.004670   -6.908220   -4.304550
  C     -4.319840   -5.925030   -5.204500
  F     -4.715340   -4.667450   -5.000270
  F     -2.989110   -5.960750   -5.082910
  F     -4.587190   -6.199820   -6.494310
  C     -7.312100   -9.889860   -3.284500
  F     -6.775340  -10.914070   -2.620010
  F     -8.446960   -9.552640   -2.663330
  F     -7.671200  -10.364460   -4.491580
  C     -5.706760   -8.440700   -1.001260
  O     -6.581160   -9.116830   -0.506060
  C     -4.614870   -7.817620   -0.251010
  C     -4.305390   -8.173130    1.045310
  S     -3.182920   -7.053470    1.740480
  C     -4.740240   -9.334090    1.772630
  C     -5.010150   -9.331680    3.126460
  C     -5.484780  -10.458220    3.807730
  C     -5.710140  -11.679240    3.195330
  C     -5.372440  -11.743350    1.813030
  C     -4.887960  -10.581950    1.113740
  N     -4.595020  -10.957510   -0.115900
  O     -4.884970  -12.250620   -0.185300
  N     -5.353730  -12.743120    0.953910
  C     -6.237720  -12.814080    3.885020
  C     -6.566850  -14.032420    3.358410
  C     -7.087230  -14.940240    4.307430
  C     -7.130410  -14.379730    5.609490
  S     -6.552140  -12.741240    5.609490
  C     -7.593850  -15.089360    6.700500
  S     -7.651560  -14.397790    8.335750
  C     -5.873690  -14.156790    8.651230
  C     -8.079880  -16.380760    6.469660
  C     -8.061280  -16.943200    5.166400
  C     -7.552170  -16.251190    4.075540
  S     -7.492700  -16.796580    2.403920
  C     -7.345560  -18.605400    2.481670
  S     -8.782870  -18.536500    5.193190
  C     -9.069840  -18.425860    6.890940
  C     -8.655100  -17.261870    7.428250
  H     -2.730270    2.170650    3.373160
  H     -5.563870   -2.869050    2.520470
  H     -4.631050   -3.337490    3.948190
  H     -4.888190   -4.508760    2.634480
  H     -0.544020   -3.980230   -0.647100
  H     -1.580650   -4.882030   -1.758210
  H     -0.503060   -5.750730   -0.630600
  H     -4.885290   -8.411770    3.679570
  H     -5.703870  -10.361980    4.861120
  H     -6.444340  -14.263770    2.315990
  H     -5.799540  -13.812450    9.677380
  H     -5.468340  -13.409660    7.976220
  H     -5.360280  -15.106890    8.535190
  H     -6.939100  -18.895210    1.517070
  H     -8.316560  -19.067490    2.626950
  H     -6.657650  -18.882040    3.272860
  H     -9.539450  -19.254750    7.383260
  H     -8.750800  -17.001840    8.466340

----------------------------
CARTESIAN COORDINATES (A.U.)
----------------------------
  NO LB      ZA    FRAG     MASS         X           Y           Z
   0 C     6.0000    0    12.011   -5.279101    2.136279    5.849118
   1 N     7.0000    0    14.007   -7.298292    0.911472    6.498371
   2 N     7.0000    0    14.007   -7.660969   -1.507170    5.953601
   3 C     6.0000    0    12.011   -6.009613   -2.856510    4.737298
   4 C     6.0000    0    12.011   -3.709117   -1.732369    3.919935
   5 C     6.0000    0    12.011   -3.324614    0.893803    4.500364
   6 N     7.0000    0    14.007   -1.096721    1.526842    3.571866
   7 O     8.0000    0    15.999   -0.178881   -0.538062    2.504246
   8 N     7.0000    0    14.007   -1.698864   -2.531156    2.680142
   9 C     6.0000    0    12.011   -6.510881   -5.586805    4.154034
  10 C     6.0000    0    12.011   -8.926858   -6.537489    5.429145
  11 N     7.0000    0    14.007   -6.970009   -5.723527    1.389931
  12 N     7.0000    0    14.007   -6.051697   -7.196058   -0.054235
  13 C     6.0000    0    12.011   -4.243153   -9.242669    0.554748
  14 C     6.0000    0    12.011   -3.154142   -8.842671    3.109393
  15 C     6.0000    0    12.011   -4.251241   -7.095147    4.836773
  16 N     7.0000    0    14.007   -2.846608   -7.048584    6.857873
  17 O     8.0000    0    15.999   -0.966954   -8.692929    6.446536
  18 N     7.0000    0    14.007   -1.137974   -9.774835    4.171174
  19 C     6.0000    0    12.011   -2.154930   -9.224585   -1.448834
  20 C     6.0000    0    12.011   -5.842107  -11.591429    0.520657
  21 C     6.0000    0    12.011   -7.372540  -12.590565   -1.338380
  22 C     6.0000    0    12.011   -7.635722  -11.637708   -3.935090
  23 O     8.0000    0    15.999   -6.664025   -9.738836   -4.754645
  24 C     6.0000    0    12.011   -9.213946  -13.293562   -5.558176
  25 C     6.0000    0    12.011  -10.716429  -15.300338   -4.606510
  26 C     6.0000    0    12.011  -12.043073  -16.501712   -6.483669
  27 S    16.0000    0    32.060  -11.472641  -15.249126   -9.425538
  28 C     6.0000    0    12.011   -9.457456  -13.054644   -8.134421
  29 C     6.0000    0    12.011   -8.163315  -11.196684   -9.835080
  30 F     9.0000    0    18.998   -8.910701   -8.820202   -9.449141
  31 F     9.0000    0    18.998   -5.648599  -11.264185   -9.605308
  32 F     9.0000    0    18.998   -8.668533  -11.715962  -12.272467
  33 C     6.0000    0    12.011  -13.817866  -18.689127   -6.206805
  34 F     9.0000    0    18.998  -12.803537  -20.624603   -4.951101
  35 F     9.0000    0    18.998  -15.962441  -18.051873   -5.032964
  36 F     9.0000    0    18.998  -14.496467  -19.585991   -8.487856
  37 C     6.0000    0    12.011  -10.784214  -15.950611   -1.892107
  38 O     8.0000    0    15.999  -12.436590  -17.228312   -0.956315
  39 C     6.0000    0    12.011   -8.720840  -14.773161   -0.474340
  40 C     6.0000    0    12.011   -8.136008  -15.444977    1.975350
  41 S    16.0000    0    32.060   -6.014847  -13.329127    3.289031
  42 C     6.0000    0    12.011   -8.957755  -17.638874    3.349785
  43 C     6.0000    0    12.011   -9.467811  -17.634320    5.908153
  44 C     6.0000    0    12.011  -10.364732  -19.763172    7.195567
  45 C     6.0000    0    12.011  -10.790601  -22.070565    6.038299
  46 C     6.0000    0    12.011  -10.152440  -22.191715    3.426130
  47 C     6.0000    0    12.011   -9.236906  -19.996987    2.104664
  48 N     7.0000    0    14.007   -8.683329  -20.706693   -0.219019
  49 O     8.0000    0    15.999   -9.231255  -23.150317   -0.350166
  50 N     7.0000    0    14.007  -10.117083  -24.081007    1.802629
  51 C     6.0000    0    12.011  -11.787583  -24.215102    7.341624
  52 C     6.0000    0    12.011  -12.409548  -26.517431    6.346475
  53 C     6.0000    0    12.011  -13.392924  -28.232962    8.139863
  54 C     6.0000    0    12.011  -13.474522  -27.173752   10.600400
  55 S    16.0000    0    32.060  -12.381750  -24.077454   10.600400
  56 C     6.0000    0    12.011  -14.350297  -28.514758   12.662110
  57 S    16.0000    0    32.060  -14.459353  -27.207880   15.752285
  58 C     6.0000    0    12.011  -11.099665  -26.752456   16.348455
  59 C     6.0000    0    12.011  -15.268760  -30.955150   12.225886
  60 C     6.0000    0    12.011  -15.233611  -32.018008    9.763081
  61 C     6.0000    0    12.011  -14.271533  -30.710298    7.701654
  62 S    16.0000    0    32.060  -14.159151  -31.740936    4.542750
  63 C     6.0000    0    12.011  -13.881097  -35.159111    4.689677
  64 S    16.0000    0    32.060  -16.597219  -35.028908    9.813707
  65 C     6.0000    0    12.011  -17.139514  -34.819829   13.021989
  66 C     6.0000    0    12.011  -16.355769  -32.620207   14.037358
  67 H     1.0000    0     1.008   -5.159463    4.101934    6.374349
  68 H     1.0000    0     1.008  -10.514191   -5.421719    4.762998
  69 H     1.0000    0     1.008   -8.751416   -6.306942    7.460998
  70 H     1.0000    0     1.008   -9.237340   -8.520322    4.978446
  71 H     1.0000    0     1.008   -1.028049   -7.521545   -1.222842
  72 H     1.0000    0     1.008   -2.986996   -9.225700   -3.322535
  73 H     1.0000    0     1.008   -0.950646  -10.867305   -1.191661
  74 H     1.0000    0     1.008   -9.231860  -15.895942    6.953380
  75 H     1.0000    0     1.008  -10.778752  -19.581304    9.186186
  76 H     1.0000    0     1.008  -12.178038  -26.954619    4.376587
  77 H     1.0000    0     1.008  -10.959542  -26.101748   18.287598
  78 H     1.0000    0     1.008  -10.333665  -25.340585   15.072871
  79 H     1.0000    0     1.008  -10.129461  -28.547885   16.129172
  80 H     1.0000    0     1.008  -13.112999  -35.706772    2.866847
  81 H     1.0000    0     1.008  -15.716021  -36.032334    4.964216
  82 H     1.0000    0     1.008  -12.581135  -35.681884    6.184809
  83 H     1.0000    0     1.008  -18.026948  -36.386204   13.952339
  84 H     1.0000    0     1.008  -16.536615  -32.128821   15.999064

--------------------------------
INTERNAL COORDINATES (ANGSTROEM)
--------------------------------
 C      0   0   0     0.000000000000     0.00000000     0.00000000
 N      1   0   0     1.296086194896     0.00000000     0.00000000
 N      2   1   0     1.325917439700   122.98441825     0.00000000
 C      3   2   1     1.299136971531   122.74506804     0.52403756
 C      4   3   2     1.422301738275   119.76972431   359.54812651
 C      1   2   3     1.418244705931   120.18426342   359.78495585
 N      6   1   2     1.320437956967   136.11787675   180.02782666
 O      7   6   1     1.322526968194   106.09594325   179.87731139
 N      5   4   3     1.319367660396   135.01808970   180.15530390
 C      4   3   2     1.501034185553   120.80009698   180.27531951
 C     10   4   3     1.530653995650   111.92033817   352.89563839
 N     10   4   3     1.484505093996   106.16701545   108.53752160
 N     12  10   4     1.194729678128   126.54696589   132.53562980
 C     13  12  10     1.480779993652   126.92005805     0.18143437
 C     14  13  12     1.484731722198   110.16588751   344.91672878
 C     15  14  13     1.423998948104   121.25249589    14.30067813
 N     16  15  14     1.302679949182   107.85917336   182.97545949
 O     17  16  15     1.339369127724   106.14256446   359.56075053
 N     15  14  13     1.302812343893   131.03781897   197.91220429
 C     14  13  12     1.531448676580   108.12642067   224.12739438
 C     14  13  12     1.503691020988   103.78345274   103.00949099
 C     21  14  13     1.379571670085   130.97044989    55.95718709
 C     22  21  14     1.470323025801   126.20015469     5.77940894
 O     23  22  21     1.209211346994   125.44262298   354.91608750
 C     23  22  21     1.484249969917   113.05747940   173.62969600
 C     25  23  22     1.418972068083   123.48537559    11.74000499
 C     26  25  23     1.372499796357   112.11032978   178.46996024
 S     27  26  25     1.718723118510   112.77312885     0.61963089
 C     25  23  22     1.375190557196   124.89806099   190.16081511
 C     29  25  23     1.498520839862   127.79651990     2.26880303
 F     30  29  25     1.334030584095   113.02158301   292.38792538
 F     30  29  25     1.336750679596   112.50642484    54.82840224
 F     30  29  25     1.345583666184   110.54100370   173.40722644
 C     27  26  25     1.497798368740   127.43809186   180.08363062
 F     34  27  26     1.333665768399   112.94654512   307.76090357
 F     34  27  26     1.336965488298   112.50550594    69.93990892
 F     34  27  26     1.345823203991   110.61644408   188.54253355
 C     26  25  23     1.477478700016   122.20449206   358.48765842
 O     38  26  25     1.211177186418   123.02702644   162.59253969
 C     22  21  14     1.432517383280   111.94905370   184.87269011
 C     40  22  21     1.379351576974   113.32956189   357.92419388
 S     41  40  22     1.731137991438   110.86554474     2.35705676
 C     41  40  22     1.437329825231   128.01448402   185.95659076
 C     43  41  40     1.380475601052   123.64165590   215.17082142
 C     44  43  41     1.399462332969   122.84154818   177.32702268
 C     45  44  43     1.384453224201   123.35501599     0.88769072
 C     46  45  44     1.424396248275   115.49111134     2.54003663
 C     43  41  40     1.418841714251   120.45705437    36.59090315
 N     48  43  41     1.318663598800   131.32952435     5.98642260
 O     49  48  43     1.327034601885   106.12600895   177.37277098
 N     47  46  45     1.318323667162   132.06044606   173.99101017
 C     46  45  44     1.428941838599   123.16351159   182.19509520
 C     52  46  45     1.367478337891   127.63010846   175.92461459
 C     53  52  46     1.412646968354   113.73480525   180.98565297
 C     54  53  52     1.418237009847   111.96288069   359.08319217
 S     55  54  53     1.737540121263   111.25710202     0.98843340
 C     55  54  53     1.381540513557   122.15594903   180.48536442
 S     57  55  54     1.776412697405   122.53951455   179.96452285
 C     58  57  55     1.821655940978   100.32429357   295.34126215
 C     57  55  54     1.399009015875   117.41151090   357.35943049
 C     60  57  55     1.419567307739   120.84127696     1.56674245
 C     61  60  57     1.388541094747   121.91062100     0.71379401
 S     62  61  60     1.759346571145   127.18158533   181.44759074
 C     63  62  61     1.816459477803   105.70957883   329.94406809
 S     61  60  57     1.749289776509   109.96276844   181.97721772
 C     65  61  60     1.725383451004    91.44811133   359.49985407
 C     66  65  61     1.347436092659   113.36448024     0.08212019
 H      1   2   3     1.078532907287   117.54032516   179.84227873
 H     11  10   4     1.085563952100   108.92809777    59.82306641
 H     11  10   4     1.086084623637   109.15345470   300.84198757
 H     11  10   4     1.088505522678   110.26159637   180.19590237
 H     20  14  13     1.087234461650   108.95274960    68.53825860
 H     20  14  13     1.084889466536   109.86951856   309.33627712
 H     20  14  13     1.086421368807   109.36211280   187.74535425
 H     44  43  41     1.080627178910   118.74140384   359.65620611
 H     45  44  43     1.080228243382   118.15004767   182.11831375
 H     53  52  46     1.074788806696   122.53669485     0.50112565
 H     59  58  57     1.084920310714   105.81275461   184.86142834
 H     59  58  57     1.085426349183   110.35497895    65.74119329
 H     59  58  57     1.086160724617   109.09254919   303.48016883
 H     64  63  62     1.086118192325   104.95194708   200.81697872
 H     64  63  62     1.085114946215   110.93440539    82.18927695
 H     64  63  62     1.084311520643   109.67468285   318.98155190
 H     66  65  61     1.072367085750   118.36025691   180.03608522
 H     67  66  65     1.074432379910   124.53627052   179.62904436

---------------------------
INTERNAL COORDINATES (A.U.)
---------------------------
 C      0   0   0     0.000000000000     0.00000000     0.00000000
 N      1   0   0     2.449247954310     0.00000000     0.00000000
 N      2   1   0     2.505620837223   122.98441825     0.00000000
 C      3   2   1     2.455013086646   122.74506804     0.52403756
 C      4   3   2     2.687760765140   119.76972431   359.54812651
 C      1   2   3     2.680094085092   120.18426342   359.78495585
 N      6   1   2     2.495266115503   136.11787675   180.02782666
 O      7   6   1     2.499213774612   106.09594325   179.87731139
 N      5   4   3     2.493243548102   135.01808970   180.15530390
 C      4   3   2     2.836543528349   120.80009698   180.27531951
 C     10   4   3     2.892516857571   111.92033817   352.89563839
 N     10   4   3     2.805308072063   106.16701545   108.53752160
 N     12  10   4     2.257711895730   126.54696589   132.53562980
 C     13  12  10     2.798268652592   126.92005805     0.18143437
 C     14  13  12     2.805736337299   110.16588751   344.91672878
 C     15  14  13     2.690968026908   121.25249589    14.30067813
 N     16  15  14     2.461708344104   107.85917336   182.97545949
 O     17  16  15     2.531040843627   106.14256446   359.56075053
 N     15  14  13     2.461958533850   131.03781897   197.91220429
 C     14  13  12     2.894018586893   108.12642067   224.12739438
 C     14  13  12     2.841564219704   103.78345274   103.00949099
 C     21  14  13     2.607012638576   130.97044989    55.95718709
 C     22  21  14     2.778507847162   126.20015469     5.77940894
 O     23  22  21     2.285078283849   125.44262298   354.91608750
 C     23  22  21     2.804825957425   113.05747940   173.62969600
 C     25  23  22     2.681468600361   123.48537559    11.74000499
 C     26  25  23     2.593648733977   112.11032978   178.46996024
 S     27  26  25     3.247915994023   112.77312885     0.61963089
 C     25  23  22     2.598733535054   124.89806099   190.16081511
 C     29  25  23     2.831793993312   127.79651990     2.26880303
 F     30  29  25     2.520952458214   113.02158301   292.38792538
 F     30  29  25     2.526092693769   112.50642484    54.82840224
 F     30  29  25     2.542784619365   110.54100370   173.40722644
 C     27  26  25     2.830428720752   127.43809186   180.08363062
 F     34  27  26     2.520263056460   112.94654512   307.76090357
 F     34  27  26     2.526498623388   112.50550594    69.93990892
 F     34  27  26     2.543237280219   110.61644408   188.54253355
 C     26  25  23     2.792030111732   122.20449206   358.48765842
 O     38  26  25     2.288793181984   123.02702644   162.59253969
 C     22  21  14     2.707065536481   111.94905370   184.87269011
 C     40  22  21     2.606596722873   113.32956189   357.92419388
 S     41  40  22     3.271376703844   110.86554474     2.35705676
 C     41  40  22     2.716159733804   128.01448402   185.95659076
 C     43  41  40     2.608720820549   123.64165590   215.17082142
 C     44  43  41     2.644600544051   122.84154818   177.32702268
 C     45  44  43     2.616237438964   123.35501599     0.88769072
 C     46  45  44     2.691718815425   115.49111134     2.54003663
 C     43  41  40     2.681222267319   120.45705437    36.59090315
 N     48  43  41     2.491913064503   131.32952435     5.98642260
 O     49  48  43     2.507731967800   106.12600895   177.37277098
 N     47  46  45     2.491270686803   132.06044606   173.99101017
 C     46  45  44     2.700308736255   123.16351159   182.19509520
 C     52  46  45     2.584159552683   127.63010846   175.92461459
 C     53  52  46     2.669515894103   113.73480525   180.98565297
 C     54  53  52     2.680079541602   111.96288069   359.08319217
 S     55  54  53     3.283474975888   111.25710202     0.98843340
 C     55  54  53     2.610733213540   122.15594903   180.48536442
 S     57  55  54     3.356933498915   122.53951455   179.96452285
 C     58  57  55     3.442430838679   100.32429357   295.34126215
 C     57  55  54     2.643743898891   117.41151090   357.35943049
 C     60  57  55     2.682593440294   120.84127696     1.56674245
 C     61  60  57     2.623962394766   121.91062100     0.71379401
 S     62  61  60     3.324683194118   127.18158533   181.44759074
 C     63  62  61     3.432610946413   105.70957883   329.94406809
 S     61  60  57     3.305678606471   109.96276844   181.97721772
 C     65  61  60     3.260502198398    91.44811133   359.49985407
 C     66  65  61     2.546285198086   113.36448024     0.08212019
 H      1   2   3     2.038131821193   117.54032516   179.84227873
 H     11  10   4     2.051418570327   108.92809777    59.82306641
 H     11  10   4     2.052402496936   109.15345470   300.84198757
 H     11  10   4     2.056977333122   110.26159637   180.19590237
 H     20  14  13     2.054575375880   108.95274960    68.53825860
 H     20  14  13     2.050143977328   109.86951856   309.33627712
 H     20  14  13     2.053038853085   109.36211280   187.74535425
 H     44  43  41     2.042089421013   118.74140384   359.65620611
 H     45  44  43     2.041335542119   118.15004767   182.11831375
 H     53  52  46     2.031056496460   122.53669485     0.50112565
 H     59  58  57     2.050202264378   105.81275461   184.86142834
 H     59  58  57     2.051158538497   110.35497895    65.74119329
 H     59  58  57     2.052546306947   109.09254919   303.48016883
 H     64  63  62     2.052465932564   104.95194708   200.81697872
 H     64  63  62     2.050570072172   110.93440539    82.18927695
 H     64  63  62     2.049051817872   109.67468285   318.98155190
 H     66  65  61     2.026480107099   118.36025691   180.03608522
 H     67  66  65     2.030382947448   124.53627052   179.62904436

---------------------
BASIS SET INFORMATION
---------------------
There are 6 groups of distinct atoms

 Group   1 Type C   : 7s4p1d contracted to 3s2p1d pattern {511/31/1}
 Group   2 Type N   : 7s4p1d contracted to 3s2p1d pattern {511/31/1}
 Group   3 Type O   : 7s4p1d contracted to 3s2p1d pattern {511/31/1}
 Group   4 Type S   : 10s7p1d contracted to 4s3p1d pattern {5311/511/1}
 Group   5 Type F   : 7s4p1d contracted to 3s2p1d pattern {511/31/1}
 Group   6 Type H   : 4s1p contracted to 2s1p pattern {31/1}

Atom   0C    basis set group =>   1
Atom   1N    basis set group =>   2
Atom   2N    basis set group =>   2
Atom   3C    basis set group =>   1
Atom   4C    basis set group =>   1
Atom   5C    basis set group =>   1
Atom   6N    basis set group =>   2
Atom   7O    basis set group =>   3
Atom   8N    basis set group =>   2
Atom   9C    basis set group =>   1
Atom  10C    basis set group =>   1
Atom  11N    basis set group =>   2
Atom  12N    basis set group =>   2
Atom  13C    basis set group =>   1
Atom  14C    basis set group =>   1
Atom  15C    basis set group =>   1
Atom  16N    basis set group =>   2
Atom  17O    basis set group =>   3
Atom  18N    basis set group =>   2
Atom  19C    basis set group =>   1
Atom  20C    basis set group =>   1
Atom  21C    basis set group =>   1
Atom  22C    basis set group =>   1
Atom  23O    basis set group =>   3
Atom  24C    basis set group =>   1
Atom  25C    basis set group =>   1
Atom  26C    basis set group =>   1
Atom  27S    basis set group =>   4
Atom  28C    basis set group =>   1
Atom  29C    basis set group =>   1
Atom  30F    basis set group =>   5
Atom  31F    basis set group =>   5
Atom  32F    basis set group =>   5
Atom  33C    basis set group =>   1
Atom  34F    basis set group =>   5
Atom  35F    basis set group =>   5
Atom  36F    basis set group =>   5
Atom  37C    basis set group =>   1
Atom  38O    basis set group =>   3
Atom  39C    basis set group =>   1
Atom  40C    basis set group =>   1
Atom  41S    basis set group =>   4
Atom  42C    basis set group =>   1
Atom  43C    basis set group =>   1
Atom  44C    basis set group =>   1
Atom  45C    basis set group =>   1
Atom  46C    basis set group =>   1
Atom  47C    basis set group =>   1
Atom  48N    basis set group =>   2
Atom  49O    basis set group =>   3
Atom  50N    basis set group =>   2
Atom  51C    basis set group =>   1
Atom  52C    basis set group =>   1
Atom  53C    basis set group =>   1
Atom  54C    basis set group =>   1
Atom  55S    basis set group =>   4
Atom  56C    basis set group =>   1
Atom  57S    basis set group =>   4
Atom  58C    basis set group =>   1
Atom  59C    basis set group =>   1
Atom  60C    basis set group =>   1
Atom  61C    basis set group =>   1
Atom  62S    basis set group =>   4
Atom  63C    basis set group =>   1
Atom  64S    basis set group =>   4
Atom  65C    basis set group =>   1
Atom  66C    basis set group =>   1
Atom  67H    basis set group =>   6
Atom  68H    basis set group =>   6
Atom  69H    basis set group =>   6
Atom  70H    basis set group =>   6
Atom  71H    basis set group =>   6
Atom  72H    basis set group =>   6
Atom  73H    basis set group =>   6
Atom  74H    basis set group =>   6
Atom  75H    basis set group =>   6
Atom  76H    basis set group =>   6
Atom  77H    basis set group =>   6
Atom  78H    basis set group =>   6
Atom  79H    basis set group =>   6
Atom  80H    basis set group =>   6
Atom  81H    basis set group =>   6
Atom  82H    basis set group =>   6
Atom  83H    basis set group =>   6
Atom  84H    basis set group =>   6
---------------------------------
AUXILIARY/J BASIS SET INFORMATION
---------------------------------
There are 6 groups of distinct atoms

 Group   1 Type C   : 12s5p4d2f1g contracted to 6s4p3d1f1g pattern {711111/2111/211/2/1}
 Group   2 Type N   : 12s5p4d2f1g contracted to 6s4p3d1f1g pattern {711111/2111/211/2/1}
 Group   3 Type O   : 12s5p4d2f1g contracted to 6s4p3d1f1g pattern {711111/2111/211/2/1}
 Group   4 Type S   : 14s5p5d2f1g contracted to 8s4p3d1f1g pattern {71111111/2111/311/2/1}
 Group   5 Type F   : 12s5p4d2f1g contracted to 6s4p3d1f1g pattern {711111/2111/211/2/1}
 Group   6 Type H   : 5s2p1d contracted to 3s1p1d pattern {311/2/1}

Atom   0C    basis set group =>   1
Atom   1N    basis set group =>   2
Atom   2N    basis set group =>   2
Atom   3C    basis set group =>   1
Atom   4C    basis set group =>   1
Atom   5C    basis set group =>   1
Atom   6N    basis set group =>   2
Atom   7O    basis set group =>   3
Atom   8N    basis set group =>   2
Atom   9C    basis set group =>   1
Atom  10C    basis set group =>   1
Atom  11N    basis set group =>   2
Atom  12N    basis set group =>   2
Atom  13C    basis set group =>   1
Atom  14C    basis set group =>   1
Atom  15C    basis set group =>   1
Atom  16N    basis set group =>   2
Atom  17O    basis set group =>   3
Atom  18N    basis set group =>   2
Atom  19C    basis set group =>   1
Atom  20C    basis set group =>   1
Atom  21C    basis set group =>   1
Atom  22C    basis set group =>   1
Atom  23O    basis set group =>   3
Atom  24C    basis set group =>   1
Atom  25C    basis set group =>   1
Atom  26C    basis set group =>   1
Atom  27S    basis set group =>   4
Atom  28C    basis set group =>   1
Atom  29C    basis set group =>   1
Atom  30F    basis set group =>   5
Atom  31F    basis set group =>   5
Atom  32F    basis set group =>   5
Atom  33C    basis set group =>   1
Atom  34F    basis set group =>   5
Atom  35F    basis set group =>   5
Atom  36F    basis set group =>   5
Atom  37C    basis set group =>   1
Atom  38O    basis set group =>   3
Atom  39C    basis set group =>   1
Atom  40C    basis set group =>   1
Atom  41S    basis set group =>   4
Atom  42C    basis set group =>   1
Atom  43C    basis set group =>   1
Atom  44C    basis set group =>   1
Atom  45C    basis set group =>   1
Atom  46C    basis set group =>   1
Atom  47C    basis set group =>   1
Atom  48N    basis set group =>   2
Atom  49O    basis set group =>   3
Atom  50N    basis set group =>   2
Atom  51C    basis set group =>   1
Atom  52C    basis set group =>   1
Atom  53C    basis set group =>   1
Atom  54C    basis set group =>   1
Atom  55S    basis set group =>   4
Atom  56C    basis set group =>   1
Atom  57S    basis set group =>   4
Atom  58C    basis set group =>   1
Atom  59C    basis set group =>   1
Atom  60C    basis set group =>   1
Atom  61C    basis set group =>   1
Atom  62S    basis set group =>   4
Atom  63C    basis set group =>   1
Atom  64S    basis set group =>   4
Atom  65C    basis set group =>   1
Atom  66C    basis set group =>   1
Atom  67H    basis set group =>   6
Atom  68H    basis set group =>   6
Atom  69H    basis set group =>   6
Atom  70H    basis set group =>   6
Atom  71H    basis set group =>   6
Atom  72H    basis set group =>   6
Atom  73H    basis set group =>   6
Atom  74H    basis set group =>   6
Atom  75H    basis set group =>   6
Atom  76H    basis set group =>   6
Atom  77H    basis set group =>   6
Atom  78H    basis set group =>   6
Atom  79H    basis set group =>   6
Atom  80H    basis set group =>   6
Atom  81H    basis set group =>   6
Atom  82H    basis set group =>   6
Atom  83H    basis set group =>   6
Atom  84H    basis set group =>   6


           ************************************************************
           *        Program running with 6 parallel MPI-processes     *
           *              working on a common directory               *
           ************************************************************
------------------------------------------------------------------------------
                           ORCA GTO INTEGRAL CALCULATION
                           -- RI-GTO INTEGRALS CHOSEN --
------------------------------------------------------------------------------

                         BASIS SET STATISTICS AND STARTUP INFO

Gaussian basis set:
 # of primitive gaussian shells          ...  930
 # of primitive gaussian functions       ... 1806
 # of contracted shells                  ...  468
 # of contracted basis functions         ... 1052
 Highest angular momentum                ...    2
 Maximum contraction depth               ...    5
Auxiliary gaussian basis set:
 # of primitive gaussian shells          ... 1770
 # of primitive gaussian functions       ... 5020
 # of contracted shells                  ... 1107
 # of contracted aux-basis functions     ... 3493
 Highest angular momentum                ...    4
 Maximum contraction depth               ...    7
Ratio of auxiliary to basis functions    ...  3.32
Integral package used                  ... LIBINT
 One Electron integrals                  ... done
 Ordering auxiliary basis shells         ... done
 Integral threshhold             Thresh  ...  2.500e-11
 Primitive cut-off               TCut    ...  2.500e-12
 Pre-screening matrix                    ... done
 Shell pair data                         ... 
 Ordering of the shell pairs             ... done (   0.008 sec) 40606 of 109746 pairs
 Determination of significant pairs      ... done (   0.000 sec)
 Creation of shell pair data             ... done (   0.004 sec)
 Storage of shell pair data              ... done (   0.559 sec)
 Shell pair data done in (   0.572 sec)
 Computing two index integrals           ... done
 Cholesky decomposition of the V-matrix  ... done


Timings:
 Total evaluation time                   ...   3.646 sec (  0.061 min)
 One electron matrix time                ...   0.776 sec (  0.013 min) = 21.3%
 Schwartz matrix evaluation time         ...   0.512 sec (  0.009 min) = 14.0%
 Two index repulsion integral time       ...   0.381 sec (  0.006 min) = 10.4%
 Cholesky decomposition of V             ...   1.390 sec (  0.023 min) = 38.1%
 Three index repulsion integral time     ...   0.000 sec (  0.000 min) =  0.0%



           ************************************************************
           *        Program running with 6 parallel MPI-processes     *
           *              working on a common directory               *
           ************************************************************
-------------------------------------------------------------------------------
                                 ORCA SCF
-------------------------------------------------------------------------------

------------
SCF SETTINGS
------------
Hamiltonian:
 Density Functional     Method          .... DFT(GTOs)
 Exchange Functional    Exchange        .... WB88
 Correlation Functional Correlation     .... LYP
 LDA part of GGA corr.  LDAOpt          .... VWN-5
 Gradients option       PostSCFGGA      .... off
 Hybrid DFT is turned on
   Fraction HF Exchange ScalHFX         ....  0.190000
   Scaling of DF-GGA-X  ScalDFX         ....  0.350000
   Scaling of DF-GGA-C  ScalDFC         ....  0.810000
   Scaling of DF-LDA-C  ScalLDAC        ....  1.000000
   Perturbative correction              ....  0.000000
   Density functional embedding theory  .... OFF
 Long-range corrected/Screened/Range-Separated Hybrid DFT is turned on
   Amount of maximum screened exact exchange              ....  0.460000
   Range separation parameter mu (erf(mu*r12)/r12)        ....  0.330000
 RI-approximation to the Coulomb term is turned on
   Number of auxiliary basis functions  .... 3493
   RIJ-COSX (HFX calculated with COS-X)).... on


General Settings:
 Integral files         IntName         .... xtbopt
 Hartree-Fock type      HFTyp           .... RHF
 Total Charge           Charge          ....    0
 Multiplicity           Mult            ....    1
 Number of Electrons    NEL             ....  518
 Basis Dimension        Dim             .... 1052
 Nuclear Repulsion      ENuc            ....  11522.3569749326 Eh

Convergence Acceleration:
 DIIS                   CNVDIIS         .... on
   Start iteration      DIISMaxIt       ....    12
   Startup error        DIISStart       ....  0.200000
   # of expansion vecs  DIISMaxEq       ....     5
   Bias factor          DIISBfac        ....   1.050
   Max. coefficient     DIISMaxC        ....  10.000
 Newton-Raphson         CNVNR           .... off
 SOSCF                  CNVSOSCF        .... on
   Start iteration      SOSCFMaxIt      ....   150
   Startup grad/error   SOSCFStart      ....  0.003300
 Level Shifting         CNVShift        .... on
   Level shift para.    LevelShift      ....    0.2500
   Turn off err/grad.   ShiftErr        ....    0.0010
 Zerner damping         CNVZerner       .... off
 Static damping         CNVDamp         .... on
   Fraction old density DampFac         ....    0.7000
   Max. Damping (<1)    DampMax         ....    0.9800
   Min. Damping (>=0)   DampMin         ....    0.0000
   Turn off err/grad.   DampErr         ....    0.1000
 Fernandez-Rico         CNVRico         .... off

SCF Procedure:
 Maximum # iterations   MaxIter         ....   125
 SCF integral mode      SCFMode         .... Direct
   Integral package                     .... LIBINT
 Reset frequency        DirectResetFreq ....    20
 Integral Threshold     Thresh          ....  2.500e-11 Eh
 Primitive CutOff       TCut            ....  2.500e-12 Eh

Convergence Tolerance:
 Convergence Check Mode ConvCheckMode   .... Total+1el-Energy
 Convergence forced     ConvForced      .... 1
 Energy Change          TolE            ....  1.000e-08 Eh
 1-El. energy change                    ....  1.000e-05 Eh
 Orbital Gradient       TolG            ....  1.000e-05
 Orbital Rotation angle TolX            ....  1.000e-05
 DIIS Error             TolErr          ....  5.000e-07


Diagonalization of the overlap matrix:
Smallest eigenvalue                        ... 1.507e-04
Time for diagonalization                   ...    0.479 sec
Threshold for overlap eigenvalues          ... 1.000e-08
Number of eigenvalues below threshold      ... 0
Time for construction of square roots      ...    0.340 sec
Total time needed                          ...    0.821 sec

-------------------
DFT GRID GENERATION
-------------------

General Integration Accuracy     IntAcc      ...  4.670
Radial Grid Type                 RadialGrid  ... Gauss-Chebyshev
Angular Grid (max. acc.)         AngularGrid ... Lebedev-302
Angular grid pruning method      GridPruning ... 3 (G Style)
Weight generation scheme         WeightScheme... Becke
Basis function cutoff            BFCut       ...    1.0000e-11
Integration weight cutoff        WCut        ...    1.0000e-14
Grids for H and He will be reduced by one unit

# of grid points (after initial pruning)     ... 481460 (   0.0 sec)
# of grid points (after weights+screening)   ... 411919 (   4.3 sec)
nearest neighbour list constructed           ...    0.0 sec
Grid point re-assignment to atoms done       ...    0.0 sec
Grid point division into batches done        ...    1.6 sec
Reduced shell lists constructed in    2.4 sec

Total number of grid points                  ...   411919
Total number of batches                      ...     6479
Average number of points per batch           ...       63
Average number of grid points per atom       ...     4846
Average number of shells per batch           ...    97.17 (20.76%)
Average number of basis functions per batch  ...   208.89 (19.86%)
Average number of large shells per batch     ...    61.69 (63.49%)
Average number of large basis fcns per batch ...   133.69 (64.00%)
Maximum spatial batch extension              ...  18.41, 15.46, 19.97 au
Average spatial batch extension              ...   0.31,  0.29,  0.31 au

Time for grid setup =    9.586 sec

------------------------------
INITIAL GUESS: MODEL POTENTIAL
------------------------------
Loading Hartree-Fock densities                     ... done
Calculating cut-offs                               ... done
Setting up the integral package                    ... done
Initializing the effective Hamiltonian             ... done
Starting the Coulomb interaction                   ... done (   1.0 sec)
Reading the grid                                   ... done
Mapping shells                                     ... done
Starting the XC term evaluation                    ... done (   3.3 sec)
  promolecular density results
     # of electrons  =    517.991037814
     EX              =   -525.862634327
     EC              =    -18.381107862
     EX+EC           =   -544.243742189
Transforming the Hamiltonian                       ... done (   0.3 sec)
Diagonalizing the Hamiltonian                      ... done (   0.5 sec)
Back transforming the eigenvectors                 ... done (   0.2 sec)
Now organizing SCF variables                       ... done
                      ------------------
                      INITIAL GUESS DONE (  15.0 sec)
                      ------------------
--------------------
COSX GRID GENERATION
--------------------

General Integration Accuracy     IntAcc      ...  3.340
Radial Grid Type                 RadialGrid  ... Gauss-Chebyshev
Angular Grid (max. acc.)         AngularGrid ... Lebedev-50
Angular grid pruning method      GridPruning ... 3 (G Style)
Weight generation scheme         WeightScheme... Becke
Basis function cutoff            BFCut       ...    1.0000e-11
Integration weight cutoff        WCut        ...    1.0000e-14
Grids for H and He will be reduced by one unit

# of grid points (after initial pruning)     ...  45236 (   0.0 sec)
# of grid points (after weights+screening)   ...  40598 (   0.4 sec)
nearest neighbour list constructed           ...    0.0 sec
Grid point re-assignment to atoms done       ...    0.0 sec
Grid point division into batches done        ...    0.0 sec
Reduced shell lists constructed in    0.1 sec

Total number of grid points                  ...    40598
Total number of batches                      ...      679
Average number of points per batch           ...       59
Average number of grid points per atom       ...      478
Average number of shells per batch           ...   114.52 (24.47%)
Average number of basis functions per batch  ...   248.37 (23.61%)
Average number of large shells per batch     ...    73.70 (64.35%)
Average number of large basis fcns per batch ...   161.66 (65.09%)
Maximum spatial batch extension              ...  15.09, 13.03, 22.76 au
Average spatial batch extension              ...   0.66,  0.56,  0.69 au

Overlap Fitting                  UseSFitting ... on
Constructing numerical overlap ... done (      0.3 sec)
Inverting numerical overlap    ... done (      0.1 sec)
Obtaining analytic overlap     ... done (      0.0 sec)
Final contraction and storage  ... done (      0.5 sec)


General Integration Accuracy     IntAcc      ...  3.670
Radial Grid Type                 RadialGrid  ... Gauss-Chebyshev
Angular Grid (max. acc.)         AngularGrid ... Lebedev-50
Angular grid pruning method      GridPruning ... 3 (G Style)
Weight generation scheme         WeightScheme... Becke
Basis function cutoff            BFCut       ...    1.0000e-11
Integration weight cutoff        WCut        ...    1.0000e-14
Grids for H and He will be reduced by one unit

# of grid points (after initial pruning)     ...  56254 (   0.0 sec)
# of grid points (after weights+screening)   ...  50320 (   0.5 sec)
nearest neighbour list constructed           ...    0.0 sec
Grid point re-assignment to atoms done       ...    0.0 sec
Grid point division into batches done        ...    0.0 sec
Reduced shell lists constructed in    0.1 sec

Total number of grid points                  ...    50320
Total number of batches                      ...      831
Average number of points per batch           ...       60
Average number of grid points per atom       ...      592
Average number of shells per batch           ...   112.34 (24.00%)
Average number of basis functions per batch  ...   243.65 (23.16%)
Average number of large shells per batch     ...    72.04 (64.13%)
Average number of large basis fcns per batch ...   157.99 (64.84%)
Maximum spatial batch extension              ...  16.29, 14.37, 16.93 au
Average spatial batch extension              ...   0.63,  0.54,  0.64 au

Overlap Fitting                  UseSFitting ... on
Constructing numerical overlap ... done (      0.4 sec)
Inverting numerical overlap    ... done (      0.1 sec)
Obtaining analytic overlap     ... done (      0.0 sec)
Final contraction and storage  ... done (      0.5 sec)


General Integration Accuracy     IntAcc      ...  4.010
Radial Grid Type                 RadialGrid  ... Gauss-Chebyshev
Angular Grid (max. acc.)         AngularGrid ... Lebedev-110
Angular grid pruning method      GridPruning ... 3 (G Style)
Weight generation scheme         WeightScheme... Becke
Basis function cutoff            BFCut       ...    1.0000e-11
Integration weight cutoff        WCut        ...    1.0000e-14
Grids for H and He will be reduced by one unit

# of grid points (after initial pruning)     ... 111002 (   0.0 sec)
# of grid points (after weights+screening)   ...  97923 (   1.0 sec)
nearest neighbour list constructed           ...    0.0 sec
Grid point re-assignment to atoms done       ...    0.0 sec
Grid point division into batches done        ...    0.1 sec
Reduced shell lists constructed in    0.3 sec

Total number of grid points                  ...    97923
Total number of batches                      ...     1568
Average number of points per batch           ...       62
Average number of grid points per atom       ...     1152
Average number of shells per batch           ...   105.77 (22.60%)
Average number of basis functions per batch  ...   228.61 (21.73%)
Average number of large shells per batch     ...    67.99 (64.28%)
Average number of large basis fcns per batch ...   148.68 (65.04%)
Maximum spatial batch extension              ...  17.91, 15.86, 16.36 au
Average spatial batch extension              ...   0.51,  0.46,  0.50 au

Overlap Fitting                  UseSFitting ... on
Constructing numerical overlap ... done (      0.6 sec)
Inverting numerical overlap    ... done (      0.1 sec)
Obtaining analytic overlap     ... done (      0.0 sec)
Final contraction and storage  ... done (      0.5 sec)

Time for X-Grid setup             =    6.467 sec
--------------
SCF ITERATIONS
--------------
ITER       Energy         Delta-E        Max-DP      RMS-DP      [F,P]     Damp
               ***  Starting incremental Fock matrix formation  ***
  0  -5441.2069668399   0.000000000000 0.11178995  0.00106220  0.2278675 0.7000
  1  -5441.6783991019  -0.471432262046 0.08523712  0.00073945  0.0948894 0.7000
                               ***Turning on DIIS***
  2  -5441.8798363637  -0.201437261832 0.13201323  0.00124867  0.0403086 0.0000
  3  -5442.1932393943  -0.313403030561 0.05707595  0.00060321  0.0629320 0.0000
  4  -5442.2654862945  -0.072246900192 0.01445170  0.00014852  0.0110956 0.0000
  5  -5442.2681433229  -0.002657028386 0.00604694  0.00006476  0.0077933 0.0000
                      *** Initiating the SOSCF procedure ***
                           *** Shutting down DIIS ***
                      *** Re-Reading the Fockian *** 
                      *** Removing any level shift *** 
ITER      Energy       Delta-E        Grad      Rot      Max-DP    RMS-DP
  6  -5442.26889756  -0.0007542335  0.001419  0.001419  0.002777  0.000032
               *** Restarting incremental Fock matrix formation ***
  7  -5442.26906210  -0.0001645477  0.000777  0.004125  0.001859  0.000028
  8  -5442.26914531  -0.0000832048  0.000442  0.004454  0.001654  0.000029
  9  -5442.26916704  -0.0000217273  0.000388  0.001788  0.000780  0.000012
 10  -5442.26918230  -0.0000152591  0.000062  0.000417  0.000386  0.000005
 11  -5442.26918227   0.0000000239  0.000092  0.000382  0.000223  0.000003
 12  -5442.26918347  -0.0000011940  0.000015  0.000061  0.000119  0.000001
 13  -5442.26918347  -0.0000000008  0.000017  0.000052  0.000077  0.000000
 14  -5442.26918355  -0.0000000809  0.000003  0.000010  0.000020  0.000000
 15  -5442.26918351   0.0000000326  0.000003  0.000009  0.000011  0.000000
                  ***Gradient check signals convergence***
              ***Rediagonalizing the Fockian in SOSCF/NRSCF***

               *****************************************************
               *                     SUCCESS                       *
               *           SCF CONVERGED AFTER  16 CYCLES          *
               *****************************************************

Setting up the final grid:

General Integration Accuracy     IntAcc      ...  5.010
Radial Grid Type                 RadialGrid  ... Gauss-Chebyshev
Angular Grid (max. acc.)         AngularGrid ... Lebedev-434
Angular grid pruning method      GridPruning ... 3 (G Style)
Weight generation scheme         WeightScheme... Becke
Basis function cutoff            BFCut       ...    1.0000e-11
Integration weight cutoff        WCut        ...    1.0000e-14
Grids for H and He will be reduced by one unit

# of grid points (after initial pruning)     ... 843834 (   0.0 sec)
# of grid points (after weights+screening)   ... 719552 (   7.3 sec)
nearest neighbour list constructed           ...    0.0 sec
Grid point re-assignment to atoms done       ...    0.1 sec
Grid point division into batches done        ...    5.2 sec
Reduced shell lists constructed in    6.5 sec

Total number of grid points                  ...   719552
Total number of batches                      ...    11289
Average number of points per batch           ...       63
Average number of grid points per atom       ...     8465
Average number of shells per batch           ...    95.49 (20.40%)
Average number of basis functions per batch  ...   204.87 (19.47%)
Average number of large shells per batch     ...    60.24 (63.09%)
Average number of large basis fcns per batch ...   130.31 (63.61%)
Maximum spatial batch extension              ...  19.36, 13.25, 19.54 au
Average spatial batch extension              ...   0.26,  0.25,  0.26 au

Final grid set up in   21.2 sec
Final integration                            ... done (   5.5 sec)
Change in XC energy                          ...    -0.000055519
Integrated number of electrons               ...   517.999986976
Previous integrated no of electrons          ...   517.999837934
Old exchange energy                            =   -141.918372220 Eh
New exchange energy                            =   -141.915926536 Eh
Exchange energy change after final integration =      0.002445685 Eh
Total energy after final integration           =  -5442.266793388 Eh
Final COS-X integration done in                =    90.682 sec

----------------
TOTAL SCF ENERGY
----------------

Total Energy       :        -5442.26679339 Eh         -148091.60828 eV

Components:
Nuclear Repulsion  :        11522.35697493 Eh          313539.27332 eV
Electronic Energy  :       -16964.62376832 Eh         -461630.88160 eV
One Electron Energy:       -30440.91617404 Eh         -828339.44106 eV
Two Electron Energy:        13476.29240572 Eh          366708.55946 eV

Virial components:
Potential Energy   :       -10855.15652903 Eh         -295383.82618 eV
Kinetic Energy     :         5412.88973564 Eh          147292.21790 eV
Virial Ratio       :            2.00542724


DFT components:
N(Alpha)           :      258.999993487859 electrons
N(Beta)            :      258.999993487859 electrons
N(Total)           :      517.999986975719 electrons
E(XC)              :     -409.607852692168 Eh       
DFET-embed. en.    :        0.000000000000 Eh       

---------------
SCF CONVERGENCE
---------------

  Last Energy change         ...   -3.9021e-08  Tolerance :   1.0000e-08
  Last MAX-Density change    ...    8.8818e-15  Tolerance :   1.0000e-07
  Last RMS-Density change    ...    4.3721e-17  Tolerance :   5.0000e-09
  Last Orbital Gradient      ...    6.6280e-07  Tolerance :   1.0000e-05
  Last Orbital Rotation      ...    3.6053e-06  Tolerance :   1.0000e-05

             **** THE GBW FILE WAS UPDATED (xtbopt.gbw) ****
             **** DENSITY FILE WAS UPDATED (xtbopt.scfp) ****
             **** ENERGY FILE WAS UPDATED (xtbopt.en.tmp) ****
             **** THE GBW FILE WAS UPDATED (xtbopt.gbw) ****
             **** DENSITY FILE WAS UPDATED (xtbopt.scfp) ****
----------------
ORBITAL ENERGIES
----------------

  NO   OCC          E(Eh)            E(eV) 
   0   2.0000     -89.009687     -2422.0767 
   1   2.0000     -88.997685     -2421.7501 
   2   2.0000     -88.954843     -2420.5843 
   3   2.0000     -88.952149     -2420.5110 
   4   2.0000     -88.929530     -2419.8955 
   5   2.0000     -88.921353     -2419.6730 
   6   2.0000     -24.807043      -675.0340 
   7   2.0000     -24.805617      -674.9952 
   8   2.0000     -24.800205      -674.8479 
   9   2.0000     -24.798631      -674.8051 
  10   2.0000     -24.798359      -674.7976 
  11   2.0000     -24.796696      -674.7524 
  12   2.0000     -19.391742      -527.6761 
  13   2.0000     -19.358310      -526.7664 
  14   2.0000     -19.356524      -526.7178 
  15   2.0000     -19.227233      -523.1996 
  16   2.0000     -19.224181      -523.1166 
  17   2.0000     -14.516177      -395.0053 
  18   2.0000     -14.515271      -394.9806 
  19   2.0000     -14.494854      -394.4250 
  20   2.0000     -14.493951      -394.4005 
  21   2.0000     -14.483044      -394.1037 
  22   2.0000     -14.481368      -394.0580 
  23   2.0000     -14.480929      -394.0461 
  24   2.0000     -14.479558      -394.0088 
  25   2.0000     -14.467713      -393.6865 
  26   2.0000     -14.464795      -393.6071 
  27   2.0000     -10.532016      -286.5907 
  28   2.0000     -10.530440      -286.5478 
  29   2.0000     -10.388072      -282.6738 
  30   2.0000     -10.383191      -282.5410 
  31   2.0000     -10.365224      -282.0521 
  32   2.0000     -10.357768      -281.8492 
  33   2.0000     -10.356061      -281.8027 
  34   2.0000     -10.355626      -281.7909 
  35   2.0000     -10.355004      -281.7740 
  36   2.0000     -10.354014      -281.7471 
  37   2.0000     -10.346443      -281.5410 
  38   2.0000     -10.346168      -281.5336 
  39   2.0000     -10.344790      -281.4960 
  40   2.0000     -10.340223      -281.3718 
  41   2.0000     -10.340105      -281.3686 
  42   2.0000     -10.338938      -281.3368 
  43   2.0000     -10.329102      -281.0691 
  44   2.0000     -10.328206      -281.0448 
  45   2.0000     -10.321068      -280.8505 
  46   2.0000     -10.319535      -280.8088 
  47   2.0000     -10.319247      -280.8010 
  48   2.0000     -10.318075      -280.7691 
  49   2.0000     -10.315106      -280.6883 
  50   2.0000     -10.313911      -280.6558 
  51   2.0000     -10.310823      -280.5718 
  52   2.0000     -10.310585      -280.5653 
  53   2.0000     -10.308069      -280.4968 
  54   2.0000     -10.307414      -280.4790 
  55   2.0000     -10.306151      -280.4446 
  56   2.0000     -10.301870      -280.3281 
  57   2.0000     -10.300456      -280.2897 
  58   2.0000     -10.299428      -280.2617 
  59   2.0000     -10.294691      -280.1328 
  60   2.0000     -10.288954      -279.9767 
  61   2.0000     -10.288248      -279.9575 
  62   2.0000     -10.287117      -279.9267 
  63   2.0000     -10.284911      -279.8667 
  64   2.0000     -10.279825      -279.7283 
  65   2.0000     -10.272554      -279.5304 
  66   2.0000     -10.270585      -279.4768 
  67   2.0000      -8.104629      -220.5382 
  68   2.0000      -8.092349      -220.2040 
  69   2.0000      -8.050151      -219.0558 
  70   2.0000      -8.047926      -218.9952 
  71   2.0000      -8.024862      -218.3676 
  72   2.0000      -8.016253      -218.1333 
  73   2.0000      -6.073732      -165.2747 
  74   2.0000      -6.069291      -165.1538 
  75   2.0000      -6.067329      -165.1004 
  76   2.0000      -6.061412      -164.9394 
  77   2.0000      -6.057158      -164.8237 
  78   2.0000      -6.055049      -164.7662 
  79   2.0000      -6.019794      -163.8069 
  80   2.0000      -6.017703      -163.7500 
  81   2.0000      -6.015727      -163.6962 
  82   2.0000      -6.013177      -163.6269 
  83   2.0000      -6.011471      -163.5804 
  84   2.0000      -6.009361      -163.5230 
  85   2.0000      -5.995414      -163.1435 
  86   2.0000      -5.991052      -163.0248 
  87   2.0000      -5.986876      -162.9112 
  88   2.0000      -5.984503      -162.8466 
  89   2.0000      -5.982887      -162.8026 
  90   2.0000      -5.975579      -162.6038 
  91   2.0000      -1.394793       -37.9542 
  92   2.0000      -1.393104       -37.9083 
  93   2.0000      -1.345999       -36.6265 
  94   2.0000      -1.314752       -35.7762 
  95   2.0000      -1.313346       -35.7380 
  96   2.0000      -1.296866       -35.2895 
  97   2.0000      -1.295569       -35.2542 
  98   2.0000      -1.294258       -35.2185 
  99   2.0000      -1.292139       -35.1609 
 100   2.0000      -1.170202       -31.8428 
 101   2.0000      -1.149037       -31.2669 
 102   2.0000      -1.144602       -31.1462 
 103   2.0000      -1.144118       -31.1330 
 104   2.0000      -1.047264       -28.4975 
 105   2.0000      -1.034387       -28.1471 
 106   2.0000      -1.031673       -28.0732 
 107   2.0000      -1.023701       -27.8563 
 108   2.0000      -1.016533       -27.6613 
 109   2.0000      -1.009953       -27.4822 
 110   2.0000      -1.005502       -27.3611 
 111   2.0000      -1.001973       -27.2651 
 112   2.0000      -0.996115       -27.1057 
 113   2.0000      -0.977553       -26.6006 
 114   2.0000      -0.975553       -26.5462 
 115   2.0000      -0.941837       -25.6287 
 116   2.0000      -0.930244       -25.3132 
 117   2.0000      -0.927441       -25.2370 
 118   2.0000      -0.921265       -25.0689 
 119   2.0000      -0.916387       -24.9362 
 120   2.0000      -0.903267       -24.5792 
 121   2.0000      -0.901695       -24.5364 
 122   2.0000      -0.887065       -24.1383 
 123   2.0000      -0.867735       -23.6123 
 124   2.0000      -0.865966       -23.5641 
 125   2.0000      -0.846959       -23.0469 
 126   2.0000      -0.840159       -22.8619 
 127   2.0000      -0.835772       -22.7425 
 128   2.0000      -0.832518       -22.6540 
 129   2.0000      -0.819499       -22.2997 
 130   2.0000      -0.809342       -22.0233 
 131   2.0000      -0.809071       -22.0159 
 132   2.0000      -0.792143       -21.5553 
 133   2.0000      -0.788877       -21.4664 
 134   2.0000      -0.783104       -21.3093 
 135   2.0000      -0.779534       -21.2122 
 136   2.0000      -0.775302       -21.0971 
 137   2.0000      -0.771720       -20.9996 
 138   2.0000      -0.757980       -20.6257 
 139   2.0000      -0.753687       -20.5089 
 140   2.0000      -0.748301       -20.3623 
 141   2.0000      -0.747002       -20.3270 
 142   2.0000      -0.739686       -20.1279 
 143   2.0000      -0.727338       -19.7919 
 144   2.0000      -0.718455       -19.5502 
 145   2.0000      -0.712507       -19.3883 
 146   2.0000      -0.705209       -19.1897 
 147   2.0000      -0.699954       -19.0467 
 148   2.0000      -0.688691       -18.7402 
 149   2.0000      -0.676728       -18.4147 
 150   2.0000      -0.676323       -18.4037 
 151   2.0000      -0.675210       -18.3734 
 152   2.0000      -0.674447       -18.3526 
 153   2.0000      -0.673008       -18.3135 
 154   2.0000      -0.670797       -18.2533 
 155   2.0000      -0.663214       -18.0470 
 156   2.0000      -0.658225       -17.9112 
 157   2.0000      -0.653851       -17.7922 
 158   2.0000      -0.646807       -17.6005 
 159   2.0000      -0.639899       -17.4125 
 160   2.0000      -0.636835       -17.3292 
 161   2.0000      -0.635434       -17.2910 
 162   2.0000      -0.631080       -17.1726 
 163   2.0000      -0.629572       -17.1315 
 164   2.0000      -0.627390       -17.0721 
 165   2.0000      -0.616294       -16.7702 
 166   2.0000      -0.614112       -16.7108 
 167   2.0000      -0.610463       -16.6115 
 168   2.0000      -0.601915       -16.3789 
 169   2.0000      -0.599935       -16.3251 
 170   2.0000      -0.598850       -16.2955 
 171   2.0000      -0.587849       -15.9962 
 172   2.0000      -0.584187       -15.8965 
 173   2.0000      -0.570316       -15.5191 
 174   2.0000      -0.567041       -15.4300 
 175   2.0000      -0.561373       -15.2757 
 176   2.0000      -0.553234       -15.0543 
 177   2.0000      -0.552118       -15.0239 
 178   2.0000      -0.550611       -14.9829 
 179   2.0000      -0.549606       -14.9555 
 180   2.0000      -0.547486       -14.8978 
 181   2.0000      -0.546408       -14.8685 
 182   2.0000      -0.545134       -14.8338 
 183   2.0000      -0.544017       -14.8034 
 184   2.0000      -0.539775       -14.6880 
 185   2.0000      -0.535416       -14.5694 
 186   2.0000      -0.532961       -14.5026 
 187   2.0000      -0.530655       -14.4399 
 188   2.0000      -0.526928       -14.3384 
 189   2.0000      -0.524505       -14.2725 
 190   2.0000      -0.522464       -14.2170 
 191   2.0000      -0.521758       -14.1978 
 192   2.0000      -0.516337       -14.0502 
 193   2.0000      -0.514758       -14.0073 
 194   2.0000      -0.514239       -13.9932 
 195   2.0000      -0.511877       -13.9289 
 196   2.0000      -0.511012       -13.9053 
 197   2.0000      -0.508004       -13.8235 
 198   2.0000      -0.506224       -13.7751 
 199   2.0000      -0.505736       -13.7618 
 200   2.0000      -0.504189       -13.7197 
 201   2.0000      -0.499765       -13.5993 
 202   2.0000      -0.497178       -13.5289 
 203   2.0000      -0.494193       -13.4477 
 204   2.0000      -0.490914       -13.3584 
 205   2.0000      -0.489033       -13.3073 
 206   2.0000      -0.487739       -13.2720 
 207   2.0000      -0.485947       -13.2233 
 208   2.0000      -0.484454       -13.1827 
 209   2.0000      -0.483603       -13.1595 
 210   2.0000      -0.482743       -13.1361 
 211   2.0000      -0.479120       -13.0375 
 212   2.0000      -0.474674       -12.9165 
 213   2.0000      -0.472717       -12.8633 
 214   2.0000      -0.471903       -12.8411 
 215   2.0000      -0.468805       -12.7568 
 216   2.0000      -0.468607       -12.7515 
 217   2.0000      -0.464639       -12.6435 
 218   2.0000      -0.463549       -12.6138 
 219   2.0000      -0.461252       -12.5513 
 220   2.0000      -0.457342       -12.4449 
 221   2.0000      -0.457075       -12.4376 
 222   2.0000      -0.452380       -12.3099 
 223   2.0000      -0.447956       -12.1895 
 224   2.0000      -0.444575       -12.0975 
 225   2.0000      -0.444303       -12.0901 
 226   2.0000      -0.441016       -12.0006 
 227   2.0000      -0.428755       -11.6670 
 228   2.0000      -0.425225       -11.5710 
 229   2.0000      -0.424807       -11.5596 
 230   2.0000      -0.423867       -11.5340 
 231   2.0000      -0.421251       -11.4628 
 232   2.0000      -0.415093       -11.2953 
 233   2.0000      -0.410754       -11.1772 
 234   2.0000      -0.408386       -11.1127 
 235   2.0000      -0.407441       -11.0870 
 236   2.0000      -0.405145       -11.0245 
 237   2.0000      -0.398509       -10.8440 
 238   2.0000      -0.394704       -10.7404 
 239   2.0000      -0.391915       -10.6645 
 240   2.0000      -0.385250       -10.4832 
 241   2.0000      -0.379858       -10.3365 
 242   2.0000      -0.373114       -10.1529 
 243   2.0000      -0.371883       -10.1194 
 244   2.0000      -0.366853        -9.9826 
 245   2.0000      -0.362915        -9.8754 
 246   2.0000      -0.355086        -9.6624 
 247   2.0000      -0.353050        -9.6070 
 248   2.0000      -0.351760        -9.5719 
 249   2.0000      -0.347549        -9.4573 
 250   2.0000      -0.344869        -9.3844 
 251   2.0000      -0.330295        -8.9878 
 252   2.0000      -0.328261        -8.9324 
 253   2.0000      -0.315950        -8.5974 
 254   2.0000      -0.309001        -8.4083 
 255   2.0000      -0.299332        -8.1452 
 256   2.0000      -0.297111        -8.0848 
 257   2.0000      -0.277218        -7.5435 
 258   2.0000      -0.247091        -6.7237 
 259   0.0000      -0.092825        -2.5259 
 260   0.0000      -0.089881        -2.4458 
 261   0.0000      -0.070710        -1.9241 
 262   0.0000      -0.055941        -1.5222 
 263   0.0000      -0.024700        -0.6721 
 264   0.0000      -0.020989        -0.5711 
 265   0.0000      -0.017372        -0.4727 
 266   0.0000      -0.009530        -0.2593 
 267   0.0000       0.003190         0.0868 
 268   0.0000       0.014380         0.3913 
 269   0.0000       0.023893         0.6502 
 270   0.0000       0.029757         0.8097 
 271   0.0000       0.036053         0.9811 
 272   0.0000       0.042981         1.1696 
 273   0.0000       0.051476         1.4007 
 274   0.0000       0.058269         1.5856 
 275   0.0000       0.059570         1.6210 
 276   0.0000       0.064912         1.7663 
 277   0.0000       0.077222         2.1013 
 278   0.0000       0.081106         2.2070 
 279   0.0000       0.084896         2.3101 
 280   0.0000       0.088832         2.4172 
 281   0.0000       0.093592         2.5468 
 282   0.0000       0.098774         2.6878 
 283   0.0000       0.103248         2.8095 
 284   0.0000       0.114453         3.1144 
 285   0.0000       0.117690         3.2025 
 286   0.0000       0.121624         3.3096 
 287   0.0000       0.124048         3.3755 
 288   0.0000       0.128053         3.4845 
 289   0.0000       0.132760         3.6126 
 290   0.0000       0.134520         3.6605 
 291   0.0000       0.141005         3.8369 
 292   0.0000       0.143412         3.9025 
 293   0.0000       0.148100         4.0300 
 294   0.0000       0.151215         4.1148 
 295   0.0000       0.152327         4.1450 
 296   0.0000       0.154595         4.2068 
 297   0.0000       0.159824         4.3490 
 298   0.0000       0.160939         4.3794 
 299   0.0000       0.162616         4.4250 
 300   0.0000       0.163885         4.4595 
 301   0.0000       0.164417         4.4740 
 302   0.0000       0.166265         4.5243 
 303   0.0000       0.170986         4.6528 
 304   0.0000       0.174925         4.7599 
 305   0.0000       0.178493         4.8570 
 306   0.0000       0.181008         4.9255 
 307   0.0000       0.183984         5.0065 
 308   0.0000       0.185000         5.0341 
 309   0.0000       0.189306         5.1513 
 310   0.0000       0.192752         5.2451 
 311   0.0000       0.194728         5.2988 
 312   0.0000       0.194944         5.3047 
 313   0.0000       0.201797         5.4912 
 314   0.0000       0.202016         5.4971 
 315   0.0000       0.202970         5.5231 
 316   0.0000       0.208978         5.6866 
 317   0.0000       0.209911         5.7120 
 318   0.0000       0.214017         5.8237 
 319   0.0000       0.220720         6.0061 
 320   0.0000       0.221516         6.0278 
 321   0.0000       0.225309         6.1310 
 322   0.0000       0.230415         6.2699 
 323   0.0000       0.236676         6.4403 
 324   0.0000       0.237914         6.4740 
 325   0.0000       0.247465         6.7339 
 326   0.0000       0.252710         6.8766 
 327   0.0000       0.256897         6.9905 
 328   0.0000       0.261875         7.1260 
 329   0.0000       0.264815         7.2060 
 330   0.0000       0.265312         7.2195 
 331   0.0000       0.268172         7.2973 
 332   0.0000       0.268975         7.3192 
 333   0.0000       0.274772         7.4769 
 334   0.0000       0.277100         7.5403 
 335   0.0000       0.278748         7.5851 
 336   0.0000       0.290438         7.9032 
 337   0.0000       0.292034         7.9467 
 338   0.0000       0.296661         8.0725 
 339   0.0000       0.299090         8.1386 
 340   0.0000       0.299576         8.1519 
 341   0.0000       0.302236         8.2242 
 342   0.0000       0.304616         8.2890 
 343   0.0000       0.315775         8.5927 
 344   0.0000       0.318549         8.6682 
 345   0.0000       0.319948         8.7062 
 346   0.0000       0.324574         8.8321 
 347   0.0000       0.329484         8.9657 
 348   0.0000       0.336443         9.1551 
 349   0.0000       0.339569         9.2401 
 350   0.0000       0.340549         9.2668 
 351   0.0000       0.347141         9.4462 
 352   0.0000       0.348720         9.4891 
 353   0.0000       0.351914         9.5761 
 354   0.0000       0.353566         9.6210 
 355   0.0000       0.358379         9.7520 
 356   0.0000       0.360312         9.8046 
 357   0.0000       0.367416         9.9979 
 358   0.0000       0.371188        10.1005 
 359   0.0000       0.375191        10.2095 
 360   0.0000       0.378567        10.3013 
 361   0.0000       0.382576        10.4104 
 362   0.0000       0.384507        10.4630 
 363   0.0000       0.388979        10.5846 
 364   0.0000       0.390332        10.6215 
 365   0.0000       0.391951        10.6655 
 366   0.0000       0.396180        10.7806 
 367   0.0000       0.397153        10.8071 
 368   0.0000       0.398366        10.8401 
 369   0.0000       0.406905        11.0725 
 370   0.0000       0.408020        11.1028 
 371   0.0000       0.413499        11.2519 
 372   0.0000       0.419852        11.4247 
 373   0.0000       0.421441        11.4680 
 374   0.0000       0.427433        11.6311 
 375   0.0000       0.430938        11.7264 
 376   0.0000       0.433105        11.7854 
 377   0.0000       0.436538        11.8788 
 378   0.0000       0.439633        11.9630 
 379   0.0000       0.442192        12.0327 
 380   0.0000       0.445305        12.1174 
 381   0.0000       0.448242        12.1973 
 382   0.0000       0.455415        12.3925 
 383   0.0000       0.462695        12.5906 
 384   0.0000       0.463978        12.6255 
 385   0.0000       0.465904        12.6779 
 386   0.0000       0.468133        12.7385 
 387   0.0000       0.470685        12.8080 
 388   0.0000       0.473391        12.8816 
 389   0.0000       0.475009        12.9256 
 390   0.0000       0.476889        12.9768 
 391   0.0000       0.478273        13.0145 
 392   0.0000       0.478495        13.0205 
 393   0.0000       0.482242        13.1225 
 394   0.0000       0.483188        13.1482 
 395   0.0000       0.485015        13.1979 
 396   0.0000       0.487984        13.2787 
[...]
s^k      :  2.0000
beta  (J):  1.8600
alpha (K):  0.9000

hardness table read
setting up gammas ...
computing q(ij,n)
memory needed for q data:             5.5 MB 
memory available for q data:       2485.1 MB 

CSF included by energy:           32 
CSF considered in PT2:          5472 

ordered frontier orbitals
           eV         # centers 
  75      -9.572       7.8
  76      -9.457      15.9
  77      -9.384       6.5
  78      -8.988       2.9
  79      -8.932       8.6
  80      -8.597      18.5
  81      -8.408       3.6
  82      -8.145       2.1
  83      -8.085       4.5
  84      -7.543      19.5
  85      -6.724      12.6

  86      -2.526       8.8
  87      -2.446      20.1
  88      -1.924       8.6
  89      -1.522      13.0
  90      -0.672      16.2
  91      -0.571      14.6
  92      -0.473      15.3
  93      -0.259      17.7
  94       0.087       9.9
  95       0.391       9.3
  96       0.650      20.3

           eV        nm       excitation i->a                     eV 
   0      2.61     475.2    85 ->  87      gap,J,K:    4.278     1.972     0.152
   1      3.02     411.1    83 ->  86      gap,J,K:    5.559     2.579     0.018
   2      3.05     406.3    78 ->  86      gap,J,K:    6.462     3.411     0.000
   3      3.23     383.3    85 ->  86      gap,J,K:    4.198     0.985     0.011
   4      3.31     374.3    84 ->  87      gap,J,K:    5.098     2.277     0.246
   5      3.51     353.5    83 ->  88      gap,J,K:    6.161     2.703     0.025
   6      3.58     346.6    85 ->  88      gap,J,K:    4.800     1.242     0.010
   7      3.67     338.2    85 ->  89      gap,J,K:    5.201     1.676     0.070
   8      3.74     331.3    83 ->  87      gap,J,K:    5.639     1.941     0.022
   9      3.84     322.8    84 ->  86      gap,J,K:    5.018     1.212     0.018
  10      4.06     305.4    82 ->  87      gap,J,K:    5.699     1.677     0.019
  11      4.09     303.1    84 ->  88      gap,J,K:    5.619     1.630     0.051
  12      4.24     292.4    84 ->  89      gap,J,K:    6.021     2.003     0.111
  13      4.26     291.1    81 ->  87      gap,J,K:    5.963     1.783     0.040
  14      4.39     282.5    80 ->  87      gap,J,K:    6.152     2.201     0.219
  15      4.44     279.3    85 ->  92      gap,J,K:    6.251     2.603     0.395
  16      4.53     273.5    77 ->  87      gap,J,K:    6.939     2.612     0.103
  17      4.56     272.0    83 ->  91      gap,J,K:    7.514     2.988     0.016
  18      4.61     268.8    83 ->  90      gap,J,K:    7.413     2.836     0.018
  19      4.67     265.6    83 ->  89      gap,J,K:    6.563     1.915     0.010
  20      4.70     263.8    82 ->  86      gap,J,K:    5.619     0.923     0.001
  21      4.73     262.0    79 ->  87      gap,J,K:    6.487     2.026     0.136
  22      4.74     261.8    73 ->  88      gap,J,K:    7.738     3.294     0.146
  23      4.82     257.0    85 ->  90      gap,J,K:    6.052     1.281     0.027
  24      4.85     255.8    80 ->  86      gap,J,K:    6.072     1.262     0.019










average / max PT2 energy lowering (eV):       0.034       0.111

CSF included by PT:                   211 
total number of CSF included:         243 
 
sTD-DFT procedure...
setting up A+B and A-B matrices...  done
estimated time (min):    0.001
calculating (A-B)^0.5 ... done
calculating (A+B)*(A-B)^0.5 ... done
calculating (A-B)^0.5 *(A+B)*(A-B)^0.5 ... done
diagonalizing ...using LAPACKE_ssyevr ...done

   35 roots found, lowest/highest eigenvalue :     2.357     4.988

excitation energies, transition moments and amplitudes

molecular weight: 1024.997
state   eV        nm        fL         fV        Rl        RV
   0   2.357     526.0   0.549456   0.639060  33.109195  38.852535     0.87 (  85->  87)    0.07 (  85->  86)    0.02 (  85->  89)
   1   2.722     455.5   0.024727   0.024457  68.582718  68.473086     0.73 (  83->  86)    0.05 (  84->  86)    0.04 (  83->  88)
   2   2.845     435.7   0.001690   0.001637   4.785075   5.192359     0.89 (  78->  86)    0.06 (  78->  87)    0.02 (  83->  86)
   3   2.993     414.2   0.512334   0.522903  -80.553095  -79.449762     0.84 (  84->  87)    0.05 (  84->  86)    0.05 (  85->  89)
   4   3.168     391.4   0.004542   0.004176  36.135310  33.956826     0.58 (  83->  88)    0.06 (  84->  88)    0.05 (  83->  87)
   5   3.255     380.9   0.005267   0.005024   1.028529   1.046833     0.80 (  85->  86)    0.06 (  85->  87)    0.04 (  85->  88)
   6   3.409     363.7   0.066607   0.066419  -30.828844  -33.546960     0.49 (  85->  88)    0.15 (  85->  89)    0.10 (  84->  88)
   7   3.512     353.0   0.028040   0.027644  -19.363335  -21.531147     0.45 (  85->  89)    0.19 (  85->  88)    0.10 (  84->  89)
   8   3.539     350.4   0.041476   0.044134  31.791013  31.521428     0.36 (  83->  87)    0.09 (  73->  88)    0.08 (  83->  88)
   9   3.696     335.5   0.009217   0.008760  -0.631424  -1.873321     0.37 (  77->  87)    0.15 (  74->  87)    0.13 (  77->  89)
  10   3.756     330.1   0.007553   0.008636  -18.530540  -19.928723     0.38 (  83->  87)    0.08 (  83->  94)    0.07 (  73->  88)
  11   3.811     325.3   0.018686   0.018812   6.433042   7.489225     0.64 (  82->  87)    0.08 (  81->  87)    0.06 (  85->  92)
  12   3.880     319.5   0.009645   0.009146  -16.944095  -16.590681     0.41 (  84->  86)    0.08 (  73->  88)    0.08 (  84->  88)
  13   3.907     317.3   0.001834   0.002312  -13.328629  -14.294632     0.35 (  84->  86)    0.13 (  73->  88)    0.09 (  75->  88)
  14   3.951     313.8   0.087787   0.082898  95.555698  94.517612     0.23 (  80->  87)    0.19 (  85->  92)    0.17 (  84->  89)
  15   3.985     311.1   0.025860   0.024610  -1.129273  -5.676174     0.45 (  81->  87)    0.16 (  82->  87)    0.12 (  80->  87)
  16   4.089     303.2   0.081323   0.074812  -30.482455  -29.390042     0.48 (  84->  88)    0.13 (  85->  88)    0.10 (  85->  92)
  17   4.160     298.0   0.116173   0.108071  -20.690568  -13.337040     0.31 (  80->  87)    0.25 (  85->  92)    0.22 (  81->  87)
  18   4.186     296.2   0.117466   0.107974   3.609125   4.122344     0.43 (  84->  89)    0.17 (  85->  92)    0.08 (  85->  89)
  19   4.322     286.8   0.004803   0.004392  -0.076966   0.221205     0.46 (  83->  90)    0.38 (  83->  91)    0.04 (  84->  90)
  20   4.481     276.7   0.014895   0.016278  21.017565  20.233847     0.47 (  85->  95)    0.18 (  84->  92)    0.14 (  79->  87)
  21   4.515     274.6   0.048843   0.041947  -21.515185  -16.958057     0.41 (  79->  87)    0.06 (  81->  87)    0.06 (  84->  92)
  22   4.562     271.8   0.120086   0.102387  -38.078152  -33.400123     0.31 (  85->  90)    0.12 (  85->  91)    0.09 (  79->  87)
  23   4.638     267.3   0.003296   0.003251  25.825100  26.601969     0.22 (  83->  89)    0.22 (  77->  88)    0.15 (  77->  89)
  24   4.685     264.6   0.041299   0.035537  24.234246  24.056645     0.48 (  83->  89)    0.13 (  77->  88)    0.05 (  75->  87)
  25   4.713     263.1   0.022880   0.017584   6.956716   5.465545     0.17 (  74->  87)    0.16 (  75->  88)    0.15 (  75->  87)
  26   4.752     260.9   0.006450   0.005336   2.309863   2.385897     0.75 (  82->  86)    0.06 (  82->  87)    0.06 (  80->  86)
  27   4.766     260.1   0.072922   0.058867  45.895741  39.948276     0.16 (  75->  87)    0.13 (  82->  86)    0.10 (  76->  87)
  28   4.784     259.2   0.112896   0.093387  34.069513  18.780589     0.23 (  80->  86)    0.09 (  76->  87)    0.07 (  76->  86)
  29   4.815     257.5   0.043140   0.038246  -12.541897  -9.739731     0.19 (  77->  88)    0.17 (  80->  86)    0.06 (  74->  89)
  30   4.845     255.9   0.007430   0.006255  19.158535  17.013735     0.44 (  85->  91)    0.14 (  85->  90)    0.11 (  76->  87)
  31   4.858     255.2   0.013600   0.012121  38.823099  35.134154     0.17 (  74->  87)    0.16 (  73->  87)    0.09 (  76->  87)
  32   4.940     251.0   0.108937   0.091623  44.559286  49.254942     0.15 (  84->  92)    0.15 (  73->  87)    0.14 (  74->  88)
  33   4.965     249.7   0.019542   0.017862  -6.511457  -6.640756     0.12 (  77->  89)    0.10 (  76->  88)    0.10 (  74->  88)
  34   4.988     248.6   0.087565   0.073720  -74.274772  -66.464025     0.22 (  73->  87)    0.17 (  76->  88)    0.08 (  74->  87)

-----------------------------------------------------------------------------
         ABSORPTION SPECTRUM VIA TRANSITION ELECTRIC DIPOLE MOMENTS
-----------------------------------------------------------------------------
State   Energy  Wavelength   fosc         T2         TX        TY        TZ  
        (cm-1)    (nm)                  (au**2)     (au)      (au)      (au) 
-----------------------------------------------------------------------------
   0   19011.9    526.0   0.549455638   9.51441   0.99142   2.69432  -1.12789
   1   21951.9    455.5   0.024726524   0.37082  -0.02799  -0.54001  -0.28004
   2   22950.0    435.7   0.001689820   0.02424   0.01441   0.14996   0.03929
   3   24140.9    414.2   0.512333803   6.98674  -0.58740  -1.75071   1.89122
   4   25548.3    391.4   0.004542170   0.05853   0.07588  -0.05852  -0.22214
   5   26254.9    380.9   0.005267431   0.06605  -0.14630  -0.20986   0.02452
   6   27497.7    363.7   0.066606631   0.79744  -0.56340  -0.69116   0.04810
   7   28326.7    353.0   0.028039511   0.32587  -0.23368  -0.45311   0.25682
   8   28542.7    350.4   0.041476408   0.47839  -0.43671  -0.53129   0.07354
   9   29809.6    335.5   0.009216872   0.10179   0.04321  -0.03982   0.31359
  10   30293.9    330.1   0.007552814   0.08208  -0.00701  -0.23770  -0.15978
  11   30736.3    325.3   0.018685715   0.20014  -0.14243  -0.42324  -0.02681
  12   31297.6    319.5   0.009645458   0.10146  -0.13892  -0.26141  -0.11757
  13   31514.1    317.3   0.001834274   0.01916  -0.02434  -0.12849  -0.04539
  14   31864.5    313.8   0.087787228   0.90698   0.09285   0.94781  -0.00305
  15   32144.4    311.1   0.025859834   0.26485   0.04678   0.28522   0.42580
  16   32980.1    303.2   0.081323443   0.81178   0.44162   0.71223   0.33087
  17   33553.7    298.0   0.116173241   1.13983  -0.44436  -0.90367  -0.35462
  18   33763.9    296.2   0.117466031   1.14534   0.39434   0.99332  -0.05610
  19   34862.8    286.8   0.004803054   0.04536   0.04814  -0.20572  -0.02681
  20   36143.6    276.7   0.014895307   0.13567   0.06754  -0.12251  -0.34074
  21   36414.5    274.6   0.048842600   0.44157  -0.26086  -0.59036  -0.15811
  22   36797.5    271.8   0.120086351   1.07436  -0.21529  -0.47923   0.89351
  23   37407.2    267.3   0.003296440   0.02901  -0.16029  -0.02315   0.05275
  24   37786.4    264.6   0.041299125   0.35982  -0.26770  -0.14728   0.51620
  25   38013.9    263.1   0.022879638   0.19814  -0.32018  -0.29303   0.09882
  26   38326.6    260.9   0.006449616   0.05540  -0.13069  -0.17671   0.08423
  27   38439.8    260.1   0.072921576   0.62453   0.40120   0.49265  -0.46996
  28   38585.4    259.2   0.112896236   0.96323  -0.19326  -0.12164   0.95451
  29   38836.7    257.5   0.043140127   0.36569   0.05761   0.00509  -0.60195
  30   39079.7    255.9   0.007429851   0.06259   0.13995  -0.07637  -0.19280
  31   39179.9    255.2   0.013599677   0.11427   0.18155   0.01687  -0.28466
  32   39842.5    251.0   0.108936728   0.90013   0.49182   0.60855  -0.53656
  33   40045.4    249.7   0.019541864   0.16065  -0.08535  -0.16021   0.35735
  34   40232.7    248.6   0.087565316   0.71652   0.03987  -0.14272   0.83340

-----------------------------------------------------------------------------
         ABSORPTION SPECTRUM VIA TRANSITION VELOCITY DIPOLE MOMENTS
-----------------------------------------------------------------------------
State   Energy  Wavelength   fosc         P2         PX        PY        PZ  
        (cm-1)    (nm)                  (au**2)     (au)      (au)      (au) 
-----------------------------------------------------------------------------
   0   19011.9    526.0   0.639059718   0.08304   0.09388   0.25064  -0.10679
   1   21951.9    455.5   0.024457216   0.00367   0.00001  -0.05163  -0.03168
   2   22950.0    435.7   0.001636595   0.00026   0.00090   0.01523   0.00489
   3   24140.9    414.2   0.522902553   0.08627  -0.06555  -0.19456   0.21005
   4   25548.3    391.4   0.004175713   0.00073   0.00820  -0.00611  -0.02499
   5   26254.9    380.9   0.005023728   0.00090  -0.01780  -0.02388   0.00380
   6   27497.7    363.7   0.066419232   0.01248  -0.06942  -0.08699   0.00979
   7   28326.7    353.0   0.027643510   0.00535  -0.02813  -0.05685   0.03645
   8   28542.7    350.4   0.044134216   0.00861  -0.05955  -0.07091   0.00589
   9   29809.6    335.5   0.008759607   0.00178   0.00851  -0.00369   0.04121
  10   30293.9    330.1   0.008636239   0.00179  -0.00642  -0.03594  -0.02133
  11   30736.3    325.3   0.018811798   0.00395  -0.01860  -0.05951  -0.00801
  12   31297.6    319.5   0.009146235   0.00196  -0.02066  -0.03706  -0.01251
  13   31514.1    317.3   0.002311792   0.00050  -0.00434  -0.02177  -0.00231
  14   31864.5    313.8   0.082898187   0.01805   0.01455   0.13349  -0.00475
  15   32144.4    311.1   0.024609642   0.00541   0.00952   0.04322   0.05872
  16   32980.1    303.2   0.074811842   0.01686   0.06359   0.10243   0.04824
  17   33553.7    298.0   0.108070684   0.02478  -0.06416  -0.13408  -0.05184
  18   33763.9    296.2   0.107974234   0.02492   0.05798   0.14655  -0.00873
  19   34862.8    286.8   0.004392309   0.00105   0.00650  -0.03147  -0.00374
  20   36143.6    276.7   0.016278438   0.00402   0.01396  -0.01566  -0.05984
  21   36414.5    274.6   0.041946500   0.01044  -0.03842  -0.09104  -0.02599
  22   36797.5    271.8   0.102386945   0.02575  -0.03270  -0.07204   0.13961
  23   37407.2    267.3   0.003250914   0.00083  -0.02744  -0.00359   0.00809
  24   37786.4    264.6   0.035536804   0.00918  -0.04320  -0.02335   0.08225
  25   38013.9    263.1   0.017584142   0.00457  -0.04768  -0.04500   0.01644
  26   38326.6    260.9   0.005335659   0.00140  -0.02110  -0.02781   0.01339
  27   38439.8    260.1   0.058866863   0.01547   0.06289   0.07796  -0.07371
  28   38585.4    259.2   0.093387464   0.02463  -0.02843  -0.01910   0.15315
  29   38836.7    257.5   0.038246358   0.01015   0.00980  -0.00029  -0.10028
  30   39079.7    255.9   0.006254974   0.00167   0.02176  -0.01390  -0.03169
  31   39179.9    255.2   0.012121402   0.00325   0.03055   0.00458  -0.04787
  32   39842.5    251.0   0.091622689   0.02495   0.08394   0.10167  -0.08698
  33   40045.4    249.7   0.017861818   0.00489  -0.01538  -0.02942   0.06154
  34   40232.7    248.6   0.073720490   0.02027   0.00618  -0.02395   0.14021

-------------------------------------------------------------------
                             CD SPECTRUM
-------------------------------------------------------------------
State   Energy Wavelength       R         MX        MY        MZ   
        (cm-1)   (nm)       (1e40*cgs)   (au)      (au)      (au)  
-------------------------------------------------------------------
   0   19011.9    526.0     33.10919  -0.04526   0.22007   0.61045
   1   21951.9    455.5     68.58272  -0.44618   0.55783   0.00785
   2   22950.0    435.7      4.78508   0.25193  -0.13038  -0.11143
   3   24140.9    414.2    -80.55309   3.55571  -1.78142  -0.36400
   4   25548.3    391.4     36.13531  -0.48326   0.66556   0.34967
   5   26254.9    380.9      1.02853   0.10478  -0.04231   0.08509
   6   27497.7    363.7    -30.82884   0.05623  -0.21112   0.34406
   7   28326.7    353.0    -19.36334   0.05832  -0.02207   0.33398
   8   28542.7    350.4     31.79101   0.32858  -0.05242  -0.26136
   9   29809.6    335.5     -0.63142   0.60296  -0.63479  -0.15514
  10   30293.9    330.1    -18.53054  -0.38180   0.21869  -0.80059
  11   30736.3    325.3      6.43304  -0.85989   0.36307  -0.14549
  12   31297.6    319.5    -16.94410  -0.02046  -0.24542  -0.04153
  13   31514.1    317.3    -13.32863   0.09687  -0.40265  -0.15789
  14   31864.5    313.8     95.55570   2.19899  -0.63987   1.01003
  15   32144.4    311.1     -1.12927   2.06015  -0.88804   0.37976
  16   32980.1    303.2    -30.48246   1.82835  -0.95541   0.00709
  17   33553.7    298.0    -20.69057  -2.37598   1.15809  -0.22138
  18   33763.9    296.2      3.60913   1.41319  -0.55719   0.34077
  19   34862.8    286.8     -0.07697   0.16222   0.05764  -0.16322
  20   36143.6    276.7     21.01756  -2.09113   1.00996  -0.51593
  21   36414.5    274.6    -21.51518  -1.49500   0.60094  -0.35452
  22   36797.5    271.8    -38.07815   3.56993  -1.70542   0.12629
  23   37407.2    267.3     25.82510   0.85180  -0.00851   0.50762
  24   37786.4    264.6     24.23425   2.03379  -0.69750   0.65655
  25   38013.9    263.1      6.95672  -0.09459   0.37926   0.51949
  26   38326.6    260.9      2.30986   0.43667  -0.24283   0.05177
  27   38439.8    260.1     45.89574  -2.18243   1.13245  -0.26167
  28   38585.4    259.2     34.06951   3.86342  -1.83656   0.39677
  29   38836.7    257.5    -12.54190  -2.23627   0.97189  -0.29419
  30   39079.7    255.9     19.15854  -0.83304   0.39440  -0.33935
  31   39179.9    255.2     38.82310  -1.75569   0.64714  -0.50279
  32   39842.5    251.0     44.55929  -2.56262   1.16208  -0.67865
  33   40045.4    249.7     -6.51146   1.97321  -0.94131   0.12659
  34   40232.7    248.6    -74.27477   2.39455  -1.10843   0.07369

sTD-DFT done

Total run time:        4.461 sec

           *** ORCA-CIS/TD-DFT FINISHED WITHOUT ERROR ***

-------------------------   --------------------
FINAL SINGLE POINT ENERGY     -5442.266793387582
-------------------------   --------------------


                            ***************************************
                            *     ORCA property calculations      *
                            ***************************************

                                    ---------------------
                                    Active property flags
                                    ---------------------
   (+) Dipole Moment


------------------------------------------------------------------------------
                       ORCA ELECTRIC PROPERTIES CALCULATION
------------------------------------------------------------------------------

Dipole Moment Calculation                       ... on
Quadrupole Moment Calculation                   ... off
Polarizability Calculation                      ... off
GBWName                                         ... xtbopt.gbw
Electron density file                           ... xtbopt.scfp
The origin for moment calculation is the CENTER OF MASS  = (-9.484301, -16.723748  2.426565)

-------------
DIPOLE MOMENT
-------------
                                X             Y             Z
Electronic contribution:     -1.23283      33.09820     -73.34697
Nuclear contribution   :      1.51715     -34.20550      74.95585
                        -----------------------------------------
Total Dipole Moment    :      0.28432      -1.10731       1.60888
                        -----------------------------------------
Magnitude (a.u.)       :      1.97370
Magnitude (Debye)      :      5.01674



--------------------
Rotational spectrum 
--------------------
 
Rotational constants in cm-1:     0.001347     0.000445     0.000352 
Rotational constants in MHz :    40.376094    13.339830    10.538503 

 Dipole components along the rotational axes: 
x,y,z [a.u.] :    -1.435258     1.252696    -0.516004 
x,y,z [Debye]:    -3.648137     3.184101    -1.311578 

 

Timings for individual modules:

Sum of individual times         ...      931.774 sec (=  15.530 min)
GTO integral calculation        ...        6.287 sec (=   0.105 min)   0.7 %
SCF iterations                  ...      918.492 sec (=  15.308 min)  98.6 %
CIS module                      ...        6.995 sec (=   0.117 min)   0.8 %
                             ****ORCA TERMINATED NORMALLY****
TOTAL RUN TIME: 0 days 0 hours 15 minutes 34 seconds 418 msec
