
                                 *****************
                                 * O   R   C   A *
                                 *****************

           --- An Ab Initio, DFT and Semiempirical electronic structure package ---

                  #######################################################
                  #                        -***-                        #
                  #          Department of theory and spectroscopy      #
                  #               Directorship: Frank Neese             #
                  #        Max Planck Institute fuer Kohlenforschung    #
                  #                Kaiser Wilhelm Platz 1               #
                  #                 D-45470 Muelheim/Ruhr               #
                  #                      Germany                        #
                  #                                                     #
                  #                  All rights reserved                #
                  #                        -***-                        #
                  #######################################################


                         Program Version 4.2.0 -  RELEASE  -


 With contributions from (in alphabetic order):
   Daniel Aravena         : Magnetic Suceptibility
   Michael Atanasov       : Ab Initio Ligand Field Theory (pilot matlab implementation)
   Alexander A. Auer      : GIAO ZORA, VPT2
   Ute Becker             : Parallelization
   Giovanni Bistoni       : ED, misc. LED, open-shell LED, HFLED
   Martin Brehm           : Molecular dynamics
   Dmytro Bykov           : SCF Hessian
   Vijay G. Chilkuri      : MRCI spin determinant printing, contributions to CSF-ICE
   Dipayan Datta          : RHF DLPNO-CCSD density
   Achintya Kumar Dutta   : EOM-CC, STEOM-CC
   Dmitry Ganyushin       : Spin-Orbit,Spin-Spin,Magnetic field MRCI
   Miquel Garcia          : C-PCM Hessian, Gaussian charge scheme
   Yang Guo               : DLPNO-NEVPT2, CIM, IAO-localization
   Andreas Hansen         : Spin unrestricted coupled pair/coupled cluster methods
   Benjamin Helmich-Paris : CASSCF linear response (MC-RPA)
   Lee Huntington         : MR-EOM, pCC
   Robert Izsak           : Overlap fitted RIJCOSX, COSX-SCS-MP3, EOM
   Christian Kollmar      : KDIIS, OOCD, Brueckner-CCSD(T), CCSD density
   Simone Kossmann        : Meta GGA functionals, TD-DFT gradient, OOMP2, MP2 Hessian
   Martin Krupicka        : AUTO-CI
   Lucas Lang             : DCDCAS
   Dagmar Lenk            : GEPOL surface, SMD
   Dimitrios Liakos       : Extrapolation schemes; Compound Job, initial MDCI parallelization
   Dimitrios Manganas     : Further ROCIS development; embedding schemes
   Dimitrios Pantazis     : SARC Basis sets
   Taras Petrenko         : DFT Hessian,TD-DFT gradient, ASA, ECA, R-Raman, ABS, FL, XAS/XES, NRVS
   Peter Pinski           : DLPNO-MP2, DLPNO-MP2 Gradient
   Christoph Reimann      : Effective Core Potentials
   Marius Retegan         : Local ZFS, SOC
   Christoph Riplinger    : Optimizer, TS searches, QM/MM, DLPNO-CCSD(T), (RO)-DLPNO pert. Triples
   Tobias Risthaus        : Range-separated hybrids, TD-DFT gradient, RPA, STAB
   Michael Roemelt        : Original ROCIS implementation
   Masaaki Saitow         : Open-shell DLPNO-CCSD energy and density
   Barbara Sandhoefer     : DKH picture change effects
   Avijit Sen             : IP-ROCIS
   Kantharuban Sivalingam : CASSCF convergence, NEVPT2, FIC-MRCI
   Bernardo de Souza      : ESD, SOC TD-DFT
   Georgi Stoychev        : AutoAux, RI-MP2 NMR
   Willem Van den Heuvel  : Paramagnetic NMR
   Boris Wezisla          : Elementary symmetry handling
   Frank Wennmohs         : Technical directorship


 We gratefully acknowledge several colleagues who have allowed us to
 interface, adapt or use parts of their codes:
   Stefan Grimme, W. Hujo, H. Kruse,             : VdW corrections, initial TS optimization,
                  C. Bannwarth                     DFT functionals, gCP, sTDA/sTD-DF
   Ed Valeev, F. Pavosevic, A. Kumar             : LibInt (2-el integral package), F12 methods
   Garnet Chan, S. Sharma, J. Yang, R. Olivares  : DMRG
   Ulf Ekstrom                                   : XCFun DFT Library
   Mihaly Kallay                                 : mrcc  (arbitrary order and MRCC methods)
   Andreas Klamt, Michael Diedenhofen            : otool_cosmo (COSMO solvation model)
   Jiri Pittner, Ondrej Demel                    : Mk-CCSD
   Frank Weinhold                                : gennbo (NPA and NBO analysis)
   Christopher J. Cramer and Donald G. Truhlar   : smd solvation model
   Lars Goerigk                                  : TD-DFT with DH, B97 family of functionals
   V. Asgeirsson, H. Jonsson                     : NEB implementation
   FAccTs GmbH                                   : IRC, NEB, NEB-TS, Multilevel, MM, QM/MM, CI optimization
   S Lehtola, MJT Oliveira, MAL Marques          : LibXC Library


 Your calculation uses the libint2 library for the computation of 2-el integrals
 For citations please refer to: http://libint.valeyev.net

 Your ORCA version has been built with support for libXC version: 4.2.3
 For citations please refer to: https://tddft.org/programs/libxc/

 This ORCA versions uses:
   CBLAS   interface :  Fast vector & matrix operations
   LAPACKE interface :  Fast linear algebra routines
   SCALAPACK package :  Parallel linear algebra routines


XCFun DFT library Copyright 2009-2010 Ulf Ekstrom and contributors.
See http://admol.org/xcfun for more information. This is free soft-
ware; see the source code for copying conditions. There is ABSOLUTELY
NO WARRANTY; not even for MERCHANTABILITY or FITNESS FOR A PARTICULAR
PURPOSE. For details see the documentation. Scientific users of this 
library should cite U. Ekstrom, L. Visscher, R. Bast, A. J. Thorvald-
sen and K. Ruud; J.Chem.Theor.Comp. 2010, DOI: 10.1021/ct100117s
XCFun Version 0.99 
----- Orbital basis set information -----
Your calculation utilizes the basis: def2-SVP
   F. Weigend and R. Ahlrichs, Phys. Chem. Chem. Phys. 7, 3297 (2005).

----- AuxJ basis set information -----
Your calculation utilizes the auxiliary basis: def2/J
   F. Weigend, Phys. Chem. Chem. Phys. 8, 1057 (2006).

================================================================================
                                        WARNINGS
                       Please study these warnings very carefully!
================================================================================

INFO   : Checking CIS options ...

WARNING: CIS/ROCIS methods need fully converged wavefunctions
  ===> : Setting SCFConvForced true
         You can overwrite this default with %scf ConvForced false 


INFO   : the flag for use of LIBINT has been found!

================================================================================
                                       INPUT FILE
================================================================================
NAME = xtbopt.inp
|  1> # ORCA input file
|  2> # SCF done       -219.511149204793          0.000302296931
|  3> ! CAM-B3LYP def2-SVP def2/J RIJCOSX Grid4 TightSCF
|  4> %maxcore 5000
|  5> %tddft
|  6>     Mode sTDDFT
|  7>     Ethresh 5.0
|  8>     maxcore 5000
|  9> end
| 10> 
| 11> %pal
| 12>   nprocs 6
| 13>   end
| 14> * xyz 0 1
| 15>    C       -3.46917        -4.25153        -8.07757
| 16>    C       -2.91374        -3.41766        -9.03302
| 17>    C       -1.53539        -3.19238        -9.00063
| 18>    C       -0.94729        -2.34473        -9.97173
| 19>    N       -0.47814        -1.65930       -10.75968
| 20>    C       -0.71915        -3.79215        -8.02326
| 21>    C        0.67432        -3.54477        -8.01494
| 22>    N        1.80405        -3.35867        -7.98983
| 23>    C       -1.28311        -4.63304        -7.06190
| 24>    C       -2.64326        -4.84826        -7.10644
| 25>    C       -3.46991        -5.69286        -6.21577
| 26>    O       -3.06200        -6.33809        -5.26682
| 27>    C       -4.83978        -5.58593        -6.71648
| 28>    C       -4.85098        -4.68229        -7.84698
| 29>    C       -5.93287        -4.26515        -8.57947
| 30>    C       -5.85569        -3.36836        -9.66648
| 31>    N       -5.86008        -2.64436       -10.55700
| 32>    C       -7.27331        -4.64785        -8.36123
| 33>    N       -8.38744        -4.90399        -8.25034
| 34>    C       -5.93109        -6.25759        -6.21172
| 35>    C       -6.03147        -7.14182        -5.13523
| 36>    S       -4.75666        -7.64571        -4.04937
| 37>    C       -5.86123        -8.64216        -3.16341
| 38>    C       -7.15002        -8.58946        -3.69137
| 39>    C       -7.24150        -7.75460        -4.78115
| 40>    C       -5.43125        -9.39154        -2.04498
| 41>    C       -4.16812        -9.41893        -1.48153
| 42>    C       -4.07161       -10.25469        -0.37632
| 43>    C       -5.25954       -10.89548        -0.06579
| 44>    S       -6.51716       -10.44053        -1.17306
| 45>    C       -5.49563       -11.81060         0.99324
| 46>    S       -7.01579       -12.63289         1.17243
| 47>    C       -6.45722       -13.47128         2.59210
| 48>    C       -5.15538       -13.10875         2.88599
| 49>    C       -4.61859       -12.18585         1.99498
| 50>    C       -7.32098       -14.39284         3.24753
| 51>    C       -7.00695       -15.01727         4.40715
| 52>    C       -7.76992       -15.98427         5.11793
| 53>    S       -7.26856       -16.32829         6.75220
| 54>    C       -8.51639       -17.52344         6.95009
| 55>    C       -9.27487       -17.63411         5.79639
| 56>    C       -8.85204       -16.77516         4.76481
| 57>    C       -9.49628       -16.77510         3.41332
| 58>    C      -10.33985       -18.04081         3.20106
| 59>    C      -11.10958       -17.89951         1.98517
| 60>    N      -11.71862       -17.74736         1.03115
| 61>    C      -11.27009       -18.24484         4.41320
| 62>    C      -12.20196       -19.32293         4.16745
| 63>    N      -12.91469       -20.19696         3.98796
| 64>    C      -10.42740       -18.57687         5.65175
| 65>    C       -8.59777       -18.22789         8.18146
| 66>    S       -9.56937       -19.65792         8.40602
| 67>    C       -9.01387       -19.83521        10.04574
| 68>    C       -8.13830       -18.82297        10.37851
| 69>    C       -7.90118       -17.93144         9.33678
| 70>    C       -9.43311       -20.92739        10.84743
| 71>    C      -10.22388       -22.00054        10.48753
| 72>    C      -10.39635       -22.92782        11.51128
| 73>    C       -9.74951       -22.58179        12.68107
| 74>    S       -8.90976       -21.06505        12.50038
| 75>    C       -9.69264       -23.29722        13.90155
| 76>    S      -10.36837       -24.88584        14.05402
| 77>    C       -9.85383       -24.99713        15.71925
| 78>    C       -9.20351       -23.83316        16.10426
| 79>    C       -9.10896       -22.89155        15.09242
| 80>    C      -10.06464       -26.19185        16.43501
| 81>    C       -9.78741       -26.37655        17.75866
| 82>    C       -9.97769       -27.58085        18.46326
| 83>    C      -10.07429       -28.87278        18.01341
| 84>    C      -10.68747       -29.88294        18.91012
| 85>    O      -10.97005       -29.74924        20.07845
| 86>    C      -10.92227       -31.07374        18.05864
| 87>    C      -11.56679       -32.24909        18.37847
| 88>    C      -11.69351       -33.22162        17.38441
| 89>    C      -11.17826       -32.98623        16.09569
| 90>    C      -10.51774       -31.79502        15.78640
| 91>    C      -10.38463       -30.83974        16.77860
| 92>    C       -9.72833       -29.52801        16.77523
| 93>    C       -8.76998       -29.15256        15.86735
| 94>    C       -7.96269       -28.00532        15.99431
| 95>    N       -7.25673       -27.10240        16.05622
| 96>    C       -8.41786       -29.90946        14.73116
| 97>    N       -8.10559       -30.47519        13.78251
| 98>    C      -11.33470       -33.97393        15.09203
| 99>    N      -11.46006       -34.76432        14.27326
|100>    C      -12.34756       -34.44382        17.67077
|101>    N      -12.88002       -35.42619        17.92154
|102>    H       -3.50364        -2.94015        -9.79875
|103>    H       -0.67203        -5.10245        -6.30601
|104>    H       -6.87554        -6.09752        -6.71752
|105>    H       -7.97166        -9.14525        -3.27468
|106>    H       -8.14936        -7.57162        -5.32887
|107>    H       -3.35286        -8.83937        -1.87682
|108>    H       -3.16612       -10.40022         0.18326
|109>    H       -4.60629       -13.50893         3.71850
|110>    H       -3.62074       -11.79487         2.07398
|111>    H       -8.27396       -14.55397         2.76899
|112>    H       -6.07515       -14.75494         4.89028
|113>    H       -8.72857       -16.71702         2.63748
|114>    H      -10.14230       -15.89557         3.31049
|115>    H       -9.68738       -18.91676         3.09843
|116>    H      -11.84372       -17.32493         4.58223
|117>    H      -10.05196       -19.60393         5.57314
|118>    H      -11.05972       -18.53683         6.54302
|119>    H       -7.68407       -18.75108        11.35067
|120>    H       -7.24123       -17.08520         9.40825
|121>    H      -10.64879       -22.09960         9.50433
|122>    H      -10.97217       -23.83144        11.41774
|123>    H       -8.79436       -23.69227        17.08747
|124>    H       -8.63014       -21.93385        15.19653
|125>    H      -10.51632       -27.00233        15.87662
|126>    H       -9.46918       -25.52690        18.34546
|127>    H      -10.13094       -27.48456        19.53467
|128>    H      -11.96254       -32.41256        19.36929
|129>    H      -10.13986       -31.64694        14.78713
|130> *
|131> 
|132>                          ****END OF INPUT****
================================================================================

                       ****************************
                       * Single Point Calculation *
                       ****************************

---------------------------------
CARTESIAN COORDINATES (ANGSTROEM)
---------------------------------
  C     -3.469170   -4.251530   -8.077570
  C     -2.913740   -3.417660   -9.033020
  C     -1.535390   -3.192380   -9.000630
  C     -0.947290   -2.344730   -9.971730
  N     -0.478140   -1.659300  -10.759680
  C     -0.719150   -3.792150   -8.023260
  C      0.674320   -3.544770   -8.014940
  N      1.804050   -3.358670   -7.989830
  C     -1.283110   -4.633040   -7.061900
  C     -2.643260   -4.848260   -7.106440
  C     -3.469910   -5.692860   -6.215770
  O     -3.062000   -6.338090   -5.266820
  C     -4.839780   -5.585930   -6.716480
  C     -4.850980   -4.682290   -7.846980
  C     -5.932870   -4.265150   -8.579470
  C     -5.855690   -3.368360   -9.666480
  N     -5.860080   -2.644360  -10.557000
  C     -7.273310   -4.647850   -8.361230
  N     -8.387440   -4.903990   -8.250340
  C     -5.931090   -6.257590   -6.211720
  C     -6.031470   -7.141820   -5.135230
  S     -4.756660   -7.645710   -4.049370
  C     -5.861230   -8.642160   -3.163410
  C     -7.150020   -8.589460   -3.691370
  C     -7.241500   -7.754600   -4.781150
  C     -5.431250   -9.391540   -2.044980
  C     -4.168120   -9.418930   -1.481530
  C     -4.071610  -10.254690   -0.376320
  C     -5.259540  -10.895480   -0.065790
  S     -6.517160  -10.440530   -1.173060
  C     -5.495630  -11.810600    0.993240
  S     -7.015790  -12.632890    1.172430
  C     -6.457220  -13.471280    2.592100
  C     -5.155380  -13.108750    2.885990
  C     -4.618590  -12.185850    1.994980
  C     -7.320980  -14.392840    3.247530
  C     -7.006950  -15.017270    4.407150
  C     -7.769920  -15.984270    5.117930
  S     -7.268560  -16.328290    6.752200
  C     -8.516390  -17.523440    6.950090
  C     -9.274870  -17.634110    5.796390
  C     -8.852040  -16.775160    4.764810
  C     -9.496280  -16.775100    3.413320
  C    -10.339850  -18.040810    3.201060
  C    -11.109580  -17.899510    1.985170
  N    -11.718620  -17.747360    1.031150
  C    -11.270090  -18.244840    4.413200
  C    -12.201960  -19.322930    4.167450
  N    -12.914690  -20.196960    3.987960
  C    -10.427400  -18.576870    5.651750
  C     -8.597770  -18.227890    8.181460
  S     -9.569370  -19.657920    8.406020
  C     -9.013870  -19.835210   10.045740
  C     -8.138300  -18.822970   10.378510
  C     -7.901180  -17.931440    9.336780
  C     -9.433110  -20.927390   10.847430
  C    -10.223880  -22.000540   10.487530
  C    -10.396350  -22.927820   11.511280
  C     -9.749510  -22.581790   12.681070
  S     -8.909760  -21.065050   12.500380
  C     -9.692640  -23.297220   13.901550
  S    -10.368370  -24.885840   14.054020
  C     -9.853830  -24.997130   15.719250
  C     -9.203510  -23.833160   16.104260
  C     -9.108960  -22.891550   15.092420
  C    -10.064640  -26.191850   16.435010
  C     -9.787410  -26.376550   17.758660
  C     -9.977690  -27.580850   18.463260
  C    -10.074290  -28.872780   18.013410
  C    -10.687470  -29.882940   18.910120
  O    -10.970050  -29.749240   20.078450
  C    -10.922270  -31.073740   18.058640
  C    -11.566790  -32.249090   18.378470
  C    -11.693510  -33.221620   17.384410
  C    -11.178260  -32.986230   16.095690
  C    -10.517740  -31.795020   15.786400
  C    -10.384630  -30.839740   16.778600
  C     -9.728330  -29.528010   16.775230
  C     -8.769980  -29.152560   15.867350
  C     -7.962690  -28.005320   15.994310
  N     -7.256730  -27.102400   16.056220
  C     -8.417860  -29.909460   14.731160
  N     -8.105590  -30.475190   13.782510
  C    -11.334700  -33.973930   15.092030
  N    -11.460060  -34.764320   14.273260
  C    -12.347560  -34.443820   17.670770
  N    -12.880020  -35.426190   17.921540
  H     -3.503640   -2.940150   -9.798750
  H     -0.672030   -5.102450   -6.306010
  H     -6.875540   -6.097520   -6.717520
  H     -7.971660   -9.145250   -3.274680
  H     -8.149360   -7.571620   -5.328870
  H     -3.352860   -8.839370   -1.876820
  H     -3.166120  -10.400220    0.183260
  H     -4.606290  -13.508930    3.718500
  H     -3.620740  -11.794870    2.073980
  H     -8.273960  -14.553970    2.768990
  H     -6.075150  -14.754940    4.890280
  H     -8.728570  -16.717020    2.637480
  H    -10.142300  -15.895570    3.310490
  H     -9.687380  -18.916760    3.098430
  H    -11.843720  -17.324930    4.582230
  H    -10.051960  -19.603930    5.573140
  H    -11.059720  -18.536830    6.543020
  H     -7.684070  -18.751080   11.350670
  H     -7.241230  -17.085200    9.408250
  H    -10.648790  -22.099600    9.504330
  H    -10.972170  -23.831440   11.417740
  H     -8.794360  -23.692270   17.087470
  H     -8.630140  -21.933850   15.196530
  H    -10.516320  -27.002330   15.876620
  H     -9.469180  -25.526900   18.345460
  H    -10.130940  -27.484560   19.534670
  H    -11.962540  -32.412560   19.369290
  H    -10.139860  -31.646940   14.787130

----------------------------
CARTESIAN COORDINATES (A.U.)
----------------------------
  NO LB      ZA    FRAG     MASS         X           Y           Z
   0 C     6.0000    0    12.011   -6.555781   -8.034227  -15.264395
   1 C     6.0000    0    12.011   -5.506171   -6.458441  -17.069934
   2 C     6.0000    0    12.011   -2.901467   -6.032724  -17.008726
   3 C     6.0000    0    12.011   -1.790119   -4.430898  -18.843839
   4 N     7.0000    0    14.007   -0.903554   -3.135623  -20.332848
   5 C     6.0000    0    12.011   -1.358997   -7.166125  -15.161764
   6 C     6.0000    0    12.011    1.274280   -6.698645  -15.146042
   7 N     7.0000    0    14.007    3.409160   -6.346966  -15.098591
   8 C     6.0000    0    12.011   -2.424726   -8.755177  -13.345057
   9 C     6.0000    0    12.011   -4.995038   -9.161884  -13.429225
  10 C     6.0000    0    12.011   -6.557180  -10.757946  -11.746103
  11 O     8.0000    0    15.999   -5.786341  -11.977254   -9.952847
  12 C     6.0000    0    12.011   -9.145859  -10.555878  -12.692308
  13 C     6.0000    0    12.011   -9.167024   -8.848246  -14.828643
  14 C     6.0000    0    12.011  -11.211499   -8.059965  -16.212849
  15 C     6.0000    0    12.011  -11.065650   -6.365278  -18.267000
  16 N     7.0000    0    14.007  -11.073946   -4.997116  -19.949839
  17 C     6.0000    0    12.011  -13.744564   -8.783164  -15.800435
  18 N     7.0000    0    14.007  -15.849965   -9.267198  -15.590883
  19 C     6.0000    0    12.011  -11.208136  -11.825131  -11.738450
  20 C     6.0000    0    12.011  -11.397826  -13.496084   -9.704178
  21 S    16.0000    0    32.060   -8.988785  -14.448298   -7.652200
  22 C     6.0000    0    12.011  -11.076120  -16.331316   -5.977979
  23 C     6.0000    0    12.011  -13.511580  -16.231727   -6.975678
  24 C     6.0000    0    12.011  -13.684452  -14.654070   -9.035064
  25 C     6.0000    0    12.011  -10.263575  -17.747439   -3.864452
  26 C     6.0000    0    12.011   -7.876605  -17.799198   -2.799686
  27 C     6.0000    0    12.011   -7.694228  -19.378556   -0.711142
  28 C     6.0000    0    12.011   -9.939090  -20.589473   -0.124325
  29 S    16.0000    0    32.060  -12.315648  -19.729742   -2.216762
  30 C     6.0000    0    12.011  -10.385236  -22.318799    1.876952
  31 S    16.0000    0    32.060  -13.257922  -23.872702    2.215572
  32 C     6.0000    0    12.011  -12.202377  -25.457030    4.898359
  33 C     6.0000    0    12.011   -9.742256  -24.771947    5.453731
  34 C     6.0000    0    12.011   -8.727870  -23.027919    3.769966
  35 C     6.0000    0    12.011  -13.834647  -27.198526    6.136942
  36 C     6.0000    0    12.011  -13.241217  -28.378528    8.328307
  37 C     6.0000    0    12.011  -14.683021  -30.205893    9.671486
  38 S    16.0000    0    32.060  -13.735588  -30.855996   12.759809
  39 C     6.0000    0    12.011  -16.093645  -33.114503   13.133767
  40 C     6.0000    0    12.011  -17.526964  -33.323639   10.953590
  41 C     6.0000    0    12.011  -16.727931  -31.700458    9.004186
  42 C     6.0000    0    12.011  -17.945368  -31.700345    6.450240
  43 C     6.0000    0    12.011  -19.539485  -34.092190    6.049127
  44 C     6.0000    0    12.011  -20.994064  -33.825172    3.751428
  45 N     7.0000    0    14.007  -22.144982  -33.537650    1.948591
  46 C     6.0000    0    12.011  -21.297384  -34.477751    8.339739
  47 C     6.0000    0    12.011  -23.058363  -36.515046    7.875339
  48 N     7.0000    0    14.007  -24.405227  -38.166723    7.536152
  49 C     6.0000    0    12.011  -19.704930  -35.105197   10.680260
  50 C     6.0000    0    12.011  -16.247431  -34.445720   15.460719
  51 S    16.0000    0    32.060  -18.083489  -37.148085   15.885076
  52 C     6.0000    0    12.011  -17.033746  -37.483115   18.983697
  53 C     6.0000    0    12.011  -15.379158  -35.570258   19.612542
  54 C     6.0000    0    12.011  -14.931066  -33.885511   17.643957
  55 C     6.0000    0    12.011  -17.825994  -39.547036   20.498672
  56 C     6.0000    0    12.011  -19.320333  -41.574995   19.818560
  57 C     6.0000    0    12.011  -19.646254  -43.327301   21.753167
  58 C     6.0000    0    12.011  -18.423904  -42.673399   23.963749
  59 S    16.0000    0    32.060  -16.837006  -39.807175   23.622295
  60 C     6.0000    0    12.011  -18.316435  -44.025365   26.270122
  61 S    16.0000    0    32.060  -19.593380  -47.027422   26.558249
  62 C     6.0000    0    12.011  -18.621040  -47.237730   29.705078
  63 C     6.0000    0    12.011  -17.392113  -45.038145   30.432641
  64 C     6.0000    0    12.011  -17.213440  -43.258760   28.520540
  65 C     6.0000    0    12.011  -19.019413  -49.495423   31.057668
  66 C     6.0000    0    12.011  -18.495524  -49.844456   33.559004
  67 C     6.0000    0    12.011  -18.855102  -52.120253   34.890505
  68 C     6.0000    0    12.011  -19.037649  -54.561647   34.040412
  69 C     6.0000    0    12.011  -20.196391  -56.470573   35.734948
  70 O     8.0000    0    15.999  -20.730390  -56.217916   37.942772
  71 C     6.0000    0    12.011  -20.640099  -58.720859   34.125884
  72 C     6.0000    0    12.011  -21.858065  -60.941948   34.730275
  73 C     6.0000    0    12.011  -22.097531  -62.779764   32.851774
  74 C     6.0000    0    12.011  -21.123850  -62.334941   30.416446
  75 C     6.0000    0    12.011  -19.875648  -60.083880   29.831973
  76 C     6.0000    0    12.011  -19.624107  -58.278663   31.706959
  77 C     6.0000    0    12.011  -18.383879  -55.799852   31.700591
  78 C     6.0000    0    12.011  -16.572860  -55.090355   29.984946
  79 C     6.0000    0    12.011  -15.047303  -52.922385   30.224866
  80 N     7.0000    0    14.007  -13.713232  -51.216114   30.341859
  81 C     6.0000    0    12.011  -15.907450  -56.520688   27.837858
  82 N     7.0000    0    14.007  -15.317345  -57.589763   26.045169
  83 C     6.0000    0    12.011  -21.419479  -64.201423   28.519804
  84 N     7.0000    0    14.007  -21.656375  -65.695044   26.972552
  85 C     6.0000    0    12.011  -23.333507  -65.089387   33.392916
  86 N     7.0000    0    14.007  -24.339710  -66.945797   33.866802
  87 H     1.0000    0     1.008   -6.620920   -5.556078  -18.516954
  88 H     1.0000    0     1.008   -1.269953   -9.642233  -11.916632
  89 H     1.0000    0     1.008  -12.992888  -11.522643  -12.694273
  90 H     1.0000    0     1.008  -15.064254  -17.282018   -6.188248
  91 H     1.0000    0     1.008  -15.400059  -14.308288  -10.070105
  92 H     1.0000    0     1.008   -6.335987  -16.703988   -3.546676
  93 H     1.0000    0     1.008   -5.983100  -19.653568    0.346311
  94 H     1.0000    0     1.008   -8.704627  -25.528178    7.026947
  95 H     1.0000    0     1.008   -6.842207  -22.289074    3.919254
  96 H     1.0000    0     1.008  -15.635518  -27.503017    5.232633
  97 H     1.0000    0     1.008  -11.480370  -27.882796    9.241290
  98 H     1.0000    0     1.008  -16.494607  -31.590590    4.984115
  99 H     1.0000    0     1.008  -19.166169  -30.038274    6.255919
 100 H     1.0000    0     1.008  -18.306495  -35.747496    5.855184
 101 H     1.0000    0     1.008  -22.381387  -32.739373    8.659160
 102 H     1.0000    0     1.008  -18.995452  -37.046059   10.531708
 103 H     1.0000    0     1.008  -20.899842  -35.029532   12.364516
 104 H     1.0000    0     1.008  -14.520788  -35.434406   21.449658
 105 H     1.0000    0     1.008  -13.683942  -32.286349   17.779016
 106 H     1.0000    0     1.008  -20.123297  -41.762192   17.960581
 107 H     1.0000    0     1.008  -20.734396  -45.034895   21.576402
 108 H     1.0000    0     1.008  -16.618932  -44.771902   32.290639
 109 H     1.0000    0     1.008  -16.308601  -41.448970   28.717280
 110 H     1.0000    0     1.008  -19.872965  -51.027009   30.002464
 111 H     1.0000    0     1.008  -17.894157  -48.238850   34.667895
 112 H     1.0000    0     1.008  -19.144702  -51.938291   36.915176
 113 H     1.0000    0     1.008  -22.605924  -61.250862   36.602654
 114 H     1.0000    0     1.008  -19.161558  -59.804050   27.943626

--------------------------------
INTERNAL COORDINATES (ANGSTROEM)
--------------------------------
 C      0   0   0     0.000000000000     0.00000000     0.00000000
 C      1   0   0     1.384458870570     0.00000000     0.00000000
 C      2   1   0     1.397014285181   118.48675941     0.00000000
 C      3   2   1     1.416830033031   119.34854213   179.84857829
 N      4   3   2     1.144893536491   179.65475930   354.13692246
 C      3   2   1     1.407559557319   121.30111924   359.92521389
 C      6   3   2     1.415282561081   120.03718075   180.03452606
 N      7   6   3     1.145230804249   178.83682966   180.76737960
 C      6   3   2     1.396194801344   120.03382701     0.11069721
 C      9   6   3     1.377792249398   118.07156879     0.00000000
 C     10   9   6     1.479862301500   128.39955422   179.62089993
 O     11  10   9     1.217874551627   125.74915343     0.81095386
 C     11  10   9     1.462425500974   105.98874753   180.98264138
 C     13  11  10     1.447315079587   108.68328299   358.54714238
 C     14  13  11     1.371507692942   127.81895026   182.54711010
 C     15  14  13     1.411304289159   124.15827338   179.46274499
 N     16  15  14     1.147702549662   176.62082357   180.31093867
 C     15  14  13     1.410980999589   125.75318687     0.08089684
 N     18  15  14     1.148559945584   175.52228208   177.21729200
 C     13  11  10     1.377268067335   125.52690473   177.26428961
 C     20  13  11     1.396699522947   130.40289637     1.63844176
 S     21  20  13     1.748753158053   127.48868803     1.56254722
 C     22  21  20     1.731448124837    91.05997826   179.50770593
 C     23  22  21     1.393735525737   111.98210121     0.33175803
 C     24  23  22     1.375856191032   112.61097164   359.57609629
 C     23  22  21     1.413272390482   121.06445362   180.38694268
 C     26  23  22     1.383373959383   127.63479100     2.35716039
 C     27  26  23     1.388991757283   113.54332914   179.50225512
 C     28  27  26     1.384997613680   113.40282423     0.23719629
 S     29  28  27     1.736270261163   110.91882171   359.85171682
 C     29  28  27     1.419411019895   127.46203407   179.82587722
 S     31  29  28     1.737571962769   121.84128219   185.15346770
 C     32  31  29     1.740793251911    91.79364750   179.84692132
 C     33  32  31     1.382963021415   110.43258994     0.05922305
 C     31  29  28     1.383291275075   127.57113645     4.92658602
 C     33  32  31     1.423004798340   119.52232622   181.01215437
 C     36  33  32     1.353974228041   123.52958194   184.81176349
 C     37  36  33     1.422118289489   128.11336282   182.40640729
 S     38  37  36     1.743717305901   116.63645519   193.56969169
 C     39  38  37     1.739144526340    92.05886643   181.50790116
 C     40  39  38     1.385122178474   110.67255059   359.90370054
 C     38  37  36     1.386067971241   132.80564908    15.76562481
 C     42  38  37     1.497187497042   124.46407376     0.52899878
 C     43  42  38     1.535801568107   111.16631508   161.69550179
 C     44  43  42     1.445973186128   109.15186332   170.82633011
 N     45  44  43     1.142030430637   177.94035003   329.59144263
 C     44  43  42     1.541511621137   109.38203199    49.61420951
 C     47  44  43     1.446047304724   110.72780206   172.35430090
 N     48  47  44     1.141984743287   178.21693978    91.14417420
 C     41  40  39     1.496008873002   123.55566933   180.09252745
 C     40  39  38     1.420966074120   118.71025438   178.68586717
 S     51  40  39     1.743393115307   123.37957352   192.89703238
 C     52  51  40     1.740314245330    91.54910741   177.32911115
 C     53  52  51     1.379125996927   110.80694680     0.62086813
 C     51  40  39     1.381261934971   126.12429971    10.14356579
 C     53  52  51     1.418212320529   121.11132918   182.09995992
 C     56  53  52     1.380759256858   128.35258081     3.93371034
 C     57  56  53     1.391997902944   113.39100958   177.42904855
 C     58  57  56     1.380777820868   113.45884503     0.41927024
 S     56  53  52     1.739278356273   120.61237607   181.93689500
 C     59  58  57     1.415855116952   128.49724184   181.19441095
 S     61  59  58     1.733081544013   121.55756087     5.68948645
 C     62  61  59     1.746461516496    91.57146041   178.76349472
 C     63  62  61     1.387795000495   110.43437824     0.51547250
 C     64  63  62     1.385420254002   113.54089975   359.33694547
 C     63  62  61     1.408584080593   119.63427976   183.79347557
 C     66  63  62     1.364924864379   125.25042731   184.38958160
 C     67  66  63     1.408192504028   124.99521920   181.21662512
 C     68  67  66     1.371415220639   130.61962005    21.56060507
 C     69  68  67     1.483408831745   118.18598337   198.84277232
 O     70  69  68     1.209430500401   127.24684811   349.74662360
 C     70  69  68     1.482617236646   105.38102321   167.87219469
 C     72  70  69     1.378094656328   128.74038552   185.63436168
 C     73  72  70     1.396433973699   118.11291626   178.33799638
 C     74  73  72     1.407725205074   120.13306269   359.61373212
 C     75  74  73     1.396756327568   121.22555113     0.90243029
 C     76  75  74     1.383740940530   118.39060449   359.67651299
 C     69  68  67     1.442949890641   133.81669686    16.86143461
 C     78  69  68     1.372458931772   127.64889204    26.15462425
 C     79  78  69     1.408543788208   124.29075764   358.45326247
 N     80  79  78     1.147813964064   176.44803042   155.76537224
 C     79  78  69     1.409898514256   124.09814879   174.59221408
 N     82  79  78     1.147823944819   176.93757547   161.85617139
 C     75  74  73     1.416812676115   119.44080168   181.05106987
 N     84  75  74     1.144908640285   179.44956261   156.46859944
 C     74  73  72     1.415470343066   119.95124189   179.94985516
 N     86  74  73     1.145185601289   178.97836239     0.28083639
 H      2   1   3     1.078118844562   122.50775701   179.85395479
 H      9   6   3     1.079413825463   121.02574869   179.91024865
 H     20  13  11     1.083255208804   116.59317257   182.15136009
 H     24  23  22     1.075930002277   122.67783840   179.84553356
 H     25  24  23     1.075959412989   124.22898189   180.34542413
 H     27  26  23     1.075543046698   122.12376303   359.57644822
 H     28  27  26     1.074346730530   123.67687930   179.81854521
 H     34  33  32     1.074577480036   123.23143957   180.41205173
 H     35  31  29     1.074621320699   122.90642679     0.31924277
 H     36  33  32     1.078487036964   115.38777060     3.44835134
 H     37  36  33     1.081888564409   118.05975761     3.84144245
 H     43  42  38     1.093014014595   109.78613423    40.56000718
 H     43  42  38     1.096124477512   109.77455813   282.29942045
 H     44  43  42     1.097058986700   110.13833978   289.74750814
 H     47  44  43     1.097204140486   109.00579361    53.28819152
 H     50  41  40     1.096351663154   109.47930197   287.57813001
 H     50  41  40     1.093523660878   110.09650255    44.82466555
 H     54  53  52     1.075447874423   122.36611257   179.81020159
 H     55  51  40     1.075529683923   122.26923302     2.41545379
 H     57  56  53     1.075659626322   122.41560822   358.02589713
 H     58  57  56     1.075568458258   124.19601080   180.51507189
 H     64  63  62     1.074223262967   122.84739662   180.72404704
 H     65  64  63     1.075777288522   124.38512866   180.73869162
 H     66  63  62     1.082909065850   115.79809352     2.10941472
 H     67  66  63     1.080513625735   118.68968924     6.23805435
 H     68  67  66     1.086589487663   115.88965903   205.50546690
 H     73  72  70     1.079381663639   120.90941321   358.36098431
 H     76  75  74     1.078546018351   119.20487627   180.28310969

---------------------------
INTERNAL COORDINATES (A.U.)
---------------------------
 C      0   0   0     0.000000000000     0.00000000     0.00000000
 C      1   0   0     2.616248109055     0.00000000     0.00000000
 C      2   1   0     2.639974404168   118.48675941     0.00000000
 C      3   2   1     2.677420740744   119.34854213   179.84857829
 N      4   3   2     2.163535236465   179.65475930   354.13692246
 C      3   2   1     2.659902080516   121.30111924   359.92521389
 C      6   3   2     2.674496442558   120.03718075   180.03452606
 N      7   6   3     2.164172580160   178.83682966   180.76737960
 C      6   3   2     2.638425804145   120.03382701     0.11069721
 C      9   6   3     2.603650020801   118.07156879     0.00000000
 C     10   9   6     2.796534465749   128.39955422   179.62089993
 O     11  10   9     2.301449368047   125.74915343     0.81095386
 C     11  10   9     2.763583688104   105.98874753   180.98264138
 C     13  11  10     2.735029129914   108.68328299   358.54714238
 C     14  13  11     2.591773930227   127.81895026   182.54711010
 C     15  14  13     2.666978598140   124.15827338   179.46274499
 N     16  15  14     2.168843502064   176.62082357   180.31093867
 C     15  14  13     2.666367669389   125.75318687     0.08089684
 N     18  15  14     2.170463745545   175.52228208   177.21729200
 C     13  11  10     2.602659460258   125.52690473   177.26428961
 C     20  13  11     2.639379589748   130.40289637     1.63844176
 S     21  20  13     3.304664544550   127.48868803     1.56254722
 C     22  21  20     3.271962771033    91.05997826   179.50770593
 C     23  22  21     2.633778446759   111.98210121     0.33175803
 C     24  23  22     2.599991400710   112.61097164   359.57609629
 C     23  22  21     2.670697770644   121.06445362   180.38694268
 C     26  23  22     2.614197924033   127.63479100     2.35716039
 C     27  26  23     2.624814023539   113.54332914   179.50225512
 C     28  27  26     2.617266185990   113.40282423     0.23719629
 S     29  28  27     3.281075288071   110.91882171   359.85171682
 C     29  28  27     2.682298099072   127.46203407   179.82587722
 S     31  29  28     3.283535147613   121.84128219   185.15346770
 C     32  31  29     3.289622501891    91.79364750   179.84692132
 C     33  32  31     2.613421363814   110.43258994     0.05922305
 C     31  29  28     2.614041673335   127.57113645     4.92658602
 C     33  32  31     2.689089356119   119.52232622   181.01215437
 C     36  33  32     2.558640483385   123.52958194   184.81176349
 C     37  36  33     2.687414097175   128.11336282   182.40640729
 S     38  37  36     3.295148163133   116.63645519   193.56969169
 C     39  38  37     3.286506862092    92.05886643   181.50790116
 C     40  39  38     2.617501579336   110.67255059   359.90370054
 C     38  37  36     2.619288868645   132.80564908    15.76562481
 C     42  38  37     2.829274340541   124.46407376     0.52899878
 C     43  42  38     2.902244359769   111.16631508   161.69550179
 C     44  43  42     2.732493318775   109.15186332   170.82633011
 N     45  44  43     2.158124750507   177.94035003   329.59144263
 C     44  43  42     2.913034796206   109.38203199    49.61420951
 C     47  44  43     2.732633382624   110.72780206   172.35430090
 N     48  47  44     2.158038413929   178.21693978    91.14417420
 C     41  40  39     2.827047063890   123.55566933   180.09252745
 C     40  39  38     2.685236725680   118.71025438   178.68586717
 S     51  40  39     3.294535531694   123.37957352   192.89703238
 C     52  51  40     3.288717310636    91.54910741   177.32911115
 C     53  52  51     2.606170438363   110.80694680     0.62086813
 C     51  40  39     2.610206776305   126.12429971    10.14356579
 C     53  52  51     2.680032885553   121.11132918   182.09995992
 C     56  53  52     2.609256852339   128.35258081     3.93371034
 C     57  56  53     2.630494815557   113.39100958   177.42904855
 C     58  57  56     2.609291933232   113.45884503     0.41927024
 S     56  53  52     3.286759764013   120.61237607   181.93689500
 C     59  58  57     2.675578416351   128.49724184   181.19441095
 S     61  59  58     3.275049485939   121.55756087     5.68948645
 C     62  61  59     3.300333969609    91.57146041   178.76349472
 C     63  62  61     2.622552480961   110.43437824     0.51547250
 C     64  63  62     2.618064860452   113.54089975   359.33694547
 C     63  62  61     2.661838148922   119.63427976   183.79347557
 C     66  63  62     2.579334187056   125.25042731   184.38958160
 C     67  66  63     2.661098176453   124.99521920   181.21662512
 C     68  67  66     2.591599182899   130.61962005    21.56060507
 C     69  68  67     2.803236436639   118.18598337   198.84277232
 O     70  69  68     2.285492423769   127.24684811   349.74662360
 C     70  69  68     2.801740538692   105.38102321   167.87219469
 C     72  70  69     2.604221487080   128.74038552   185.63436168
 C     73  72  70     2.638877774394   118.11291626   178.33799638
 C     74  73  72     2.660215109408   120.13306269   359.61373212
 C     75  74  73     2.639486934924   121.22555113     0.90243029
 C     76  75  74     2.614891417897   118.39060449   359.67651299
 C     69  68  67     2.726780118283   133.81669686    16.86143461
 C     78  69  68     2.593571511103   127.64889204    26.15462425
 C     79  78  69     2.661762007350   124.29075764   358.45326247
 N     80  79  78     2.169054044771   176.44803042   155.76537224
 C     79  78  69     2.664322068565   124.09814879   174.59221408
 N     82  79  78     2.169072905665   176.93757547   161.85617139
 C     75  74  73     2.677387940925   119.44080168   181.05106987
 N     84  75  74     2.163563778499   179.44956261   156.46859944
 C     74  73  72     2.674851299083   119.95124189   179.94985516
 N     86  74  73     2.164087158946   178.97836239     0.28083639
 H      2   1   3     2.037349356042   122.50775701   179.85395479
 H      9   6   3     2.039796515293   121.02574869   179.91024865
 H     20  13  11     2.047055677782   116.59317257   182.15136009
 H     24  23  22     2.033213043573   122.67783840   179.84553356
 H     25  24  23     2.033268621764   124.22898189   180.34542413
 H     27  26  23     2.032481803502   122.12376303   359.57644822
 H     28  27  26     2.030221093575   123.67687930   179.81854521
 H     34  33  32     2.030657146947   123.23143957   180.41205173
 H     35  31  29     2.030739993793   122.90642679     0.31924277
 H     36  33  32     2.038045138847   115.38777060     3.44835134
 H     37  36  33     2.044473094155   118.05975761     3.84144245
 H     43  42  38     2.065497148121   109.78613423    40.56000718
 H     43  42  38     2.071375071184   109.77455813   282.29942045
 H     44  43  42     2.073141037621   110.13833978   289.74750814
 H     47  44  43     2.073415338523   109.00579361    53.28819152
 H     50  41  40     2.071804389830   109.47930197   287.57813001
 H     50  41  40     2.066460240022   110.09650255    44.82466555
 H     54  53  52     2.032301953966   122.36611257   179.81020159
 H     55  51  40     2.032456551518   122.26923302     2.41545379
 H     57  56  53     2.032702107065   122.41560822   358.02589713
 H     58  57  56     2.032529824392   124.19601080   180.51507189
 H     64  63  62     2.029987773695   122.84739662   180.72404704
 H     65  64  63     2.032924456399   124.38512866   180.73869162
 H     66  63  62     2.046401562397   115.79809352     2.10941472
 H     67  66  63     2.041874836610   118.68968924     6.23805435
 H     68  67  66     2.053356551681   115.88965903   205.50546690
 H     73  72  70     2.039735738254   120.90941321   358.36098431
 H     76  75  74     2.038156597514   119.20487627   180.28310969

---------------------
BASIS SET INFORMATION
---------------------
There are 5 groups of distinct atoms

 Group   1 Type C   : 7s4p1d contracted to 3s2p1d pattern {511/31/1}
 Group   2 Type N   : 7s4p1d contracted to 3s2p1d pattern {511/31/1}
 Group   3 Type O   : 7s4p1d contracted to 3s2p1d pattern {511/31/1}
 Group   4 Type S   : 10s7p1d contracted to 4s3p1d pattern {5311/511/1}
 Group   5 Type H   : 4s1p contracted to 2s1p pattern {31/1}

Atom   0C    basis set group =>   1
Atom   1C    basis set group =>   1
Atom   2C    basis set group =>   1
Atom   3C    basis set group =>   1
Atom   4N    basis set group =>   2
Atom   5C    basis set group =>   1
Atom   6C    basis set group =>   1
Atom   7N    basis set group =>   2
Atom   8C    basis set group =>   1
Atom   9C    basis set group =>   1
Atom  10C    basis set group =>   1
Atom  11O    basis set group =>   3
Atom  12C    basis set group =>   1
Atom  13C    basis set group =>   1
Atom  14C    basis set group =>   1
Atom  15C    basis set group =>   1
Atom  16N    basis set group =>   2
Atom  17C    basis set group =>   1
Atom  18N    basis set group =>   2
Atom  19C    basis set group =>   1
Atom  20C    basis set group =>   1
Atom  21S    basis set group =>   4
Atom  22C    basis set group =>   1
Atom  23C    basis set group =>   1
Atom  24C    basis set group =>   1
Atom  25C    basis set group =>   1
Atom  26C    basis set group =>   1
Atom  27C    basis set group =>   1
Atom  28C    basis set group =>   1
Atom  29S    basis set group =>   4
Atom  30C    basis set group =>   1
Atom  31S    basis set group =>   4
Atom  32C    basis set group =>   1
Atom  33C    basis set group =>   1
Atom  34C    basis set group =>   1
Atom  35C    basis set group =>   1
Atom  36C    basis set group =>   1
Atom  37C    basis set group =>   1
Atom  38S    basis set group =>   4
Atom  39C    basis set group =>   1
Atom  40C    basis set group =>   1
Atom  41C    basis set group =>   1
Atom  42C    basis set group =>   1
Atom  43C    basis set group =>   1
Atom  44C    basis set group =>   1
Atom  45N    basis set group =>   2
Atom  46C    basis set group =>   1
Atom  47C    basis set group =>   1
Atom  48N    basis set group =>   2
Atom  49C    basis set group =>   1
Atom  50C    basis set group =>   1
Atom  51S    basis set group =>   4
Atom  52C    basis set group =>   1
Atom  53C    basis set group =>   1
Atom  54C    basis set group =>   1
Atom  55C    basis set group =>   1
Atom  56C    basis set group =>   1
Atom  57C    basis set group =>   1
Atom  58C    basis set group =>   1
Atom  59S    basis set group =>   4
Atom  60C    basis set group =>   1
Atom  61S    basis set group =>   4
Atom  62C    basis set group =>   1
Atom  63C    basis set group =>   1
Atom  64C    basis set group =>   1
Atom  65C    basis set group =>   1
Atom  66C    basis set group =>   1
Atom  67C    basis set group =>   1
Atom  68C    basis set group =>   1
Atom  69C    basis set group =>   1
Atom  70O    basis set group =>   3
Atom  71C    basis set group =>   1
Atom  72C    basis set group =>   1
Atom  73C    basis set group =>   1
Atom  74C    basis set group =>   1
Atom  75C    basis set group =>   1
Atom  76C    basis set group =>   1
Atom  77C    basis set group =>   1
Atom  78C    basis set group =>   1
Atom  79C    basis set group =>   1
Atom  80N    basis set group =>   2
Atom  81C    basis set group =>   1
Atom  82N    basis set group =>   2
Atom  83C    basis set group =>   1
Atom  84N    basis set group =>   2
Atom  85C    basis set group =>   1
Atom  86N    basis set group =>   2
Atom  87H    basis set group =>   5
Atom  88H    basis set group =>   5
Atom  89H    basis set group =>   5
Atom  90H    basis set group =>   5
Atom  91H    basis set group =>   5
Atom  92H    basis set group =>   5
Atom  93H    basis set group =>   5
Atom  94H    basis set group =>   5
Atom  95H    basis set group =>   5
Atom  96H    basis set group =>   5
Atom  97H    basis set group =>   5
Atom  98H    basis set group =>   5
Atom  99H    basis set group =>   5
Atom 100H    basis set group =>   5
Atom 101H    basis set group =>   5
Atom 102H    basis set group =>   5
Atom 103H    basis set group =>   5
Atom 104H    basis set group =>   5
Atom 105H    basis set group =>   5
Atom 106H    basis set group =>   5
Atom 107H    basis set group =>   5
Atom 108H    basis set group =>   5
Atom 109H    basis set group =>   5
Atom 110H    basis set group =>   5
Atom 111H    basis set group =>   5
Atom 112H    basis set group =>   5
Atom 113H    basis set group =>   5
Atom 114H    basis set group =>   5
---------------------------------
AUXILIARY/J BASIS SET INFORMATION
---------------------------------
There are 5 groups of distinct atoms

 Group   1 Type C   : 12s5p4d2f1g contracted to 6s4p3d1f1g pattern {711111/2111/211/2/1}
 Group   2 Type N   : 12s5p4d2f1g contracted to 6s4p3d1f1g pattern {711111/2111/211/2/1}
 Group   3 Type O   : 12s5p4d2f1g contracted to 6s4p3d1f1g pattern {711111/2111/211/2/1}
 Group   4 Type S   : 14s5p5d2f1g contracted to 8s4p3d1f1g pattern {71111111/2111/311/2/1}
 Group   5 Type H   : 5s2p1d contracted to 3s1p1d pattern {311/2/1}

Atom   0C    basis set group =>   1
Atom   1C    basis set group =>   1
Atom   2C    basis set group =>   1
Atom   3C    basis set group =>   1
Atom   4N    basis set group =>   2
Atom   5C    basis set group =>   1
Atom   6C    basis set group =>   1
Atom   7N    basis set group =>   2
Atom   8C    basis set group =>   1
Atom   9C    basis set group =>   1
Atom  10C    basis set group =>   1
Atom  11O    basis set group =>   3
Atom  12C    basis set group =>   1
Atom  13C    basis set group =>   1
Atom  14C    basis set group =>   1
Atom  15C    basis set group =>   1
Atom  16N    basis set group =>   2
Atom  17C    basis set group =>   1
Atom  18N    basis set group =>   2
Atom  19C    basis set group =>   1
Atom  20C    basis set group =>   1
Atom  21S    basis set group =>   4
Atom  22C    basis set group =>   1
Atom  23C    basis set group =>   1
Atom  24C    basis set group =>   1
Atom  25C    basis set group =>   1
Atom  26C    basis set group =>   1
Atom  27C    basis set group =>   1
Atom  28C    basis set group =>   1
Atom  29S    basis set group =>   4
Atom  30C    basis set group =>   1
Atom  31S    basis set group =>   4
Atom  32C    basis set group =>   1
Atom  33C    basis set group =>   1
Atom  34C    basis set group =>   1
Atom  35C    basis set group =>   1
Atom  36C    basis set group =>   1
Atom  37C    basis set group =>   1
Atom  38S    basis set group =>   4
Atom  39C    basis set group =>   1
Atom  40C    basis set group =>   1
Atom  41C    basis set group =>   1
Atom  42C    basis set group =>   1
Atom  43C    basis set group =>   1
Atom  44C    basis set group =>   1
Atom  45N    basis set group =>   2
Atom  46C    basis set group =>   1
Atom  47C    basis set group =>   1
Atom  48N    basis set group =>   2
Atom  49C    basis set group =>   1
Atom  50C    basis set group =>   1
Atom  51S    basis set group =>   4
Atom  52C    basis set group =>   1
Atom  53C    basis set group =>   1
Atom  54C    basis set group =>   1
Atom  55C    basis set group =>   1
Atom  56C    basis set group =>   1
Atom  57C    basis set group =>   1
Atom  58C    basis set group =>   1
Atom  59S    basis set group =>   4
Atom  60C    basis set group =>   1
Atom  61S    basis set group =>   4
Atom  62C    basis set group =>   1
Atom  63C    basis set group =>   1
Atom  64C    basis set group =>   1
Atom  65C    basis set group =>   1
Atom  66C    basis set group =>   1
Atom  67C    basis set group =>   1
Atom  68C    basis set group =>   1
Atom  69C    basis set group =>   1
Atom  70O    basis set group =>   3
Atom  71C    basis set group =>   1
Atom  72C    basis set group =>   1
Atom  73C    basis set group =>   1
Atom  74C    basis set group =>   1
Atom  75C    basis set group =>   1
Atom  76C    basis set group =>   1
Atom  77C    basis set group =>   1
Atom  78C    basis set group =>   1
Atom  79C    basis set group =>   1
Atom  80N    basis set group =>   2
Atom  81C    basis set group =>   1
Atom  82N    basis set group =>   2
Atom  83C    basis set group =>   1
Atom  84N    basis set group =>   2
Atom  85C    basis set group =>   1
Atom  86N    basis set group =>   2
Atom  87H    basis set group =>   5
Atom  88H    basis set group =>   5
Atom  89H    basis set group =>   5
Atom  90H    basis set group =>   5
Atom  91H    basis set group =>   5
Atom  92H    basis set group =>   5
Atom  93H    basis set group =>   5
Atom  94H    basis set group =>   5
Atom  95H    basis set group =>   5
Atom  96H    basis set group =>   5
Atom  97H    basis set group =>   5
Atom  98H    basis set group =>   5
Atom  99H    basis set group =>   5
Atom 100H    basis set group =>   5
Atom 101H    basis set group =>   5
Atom 102H    basis set group =>   5
Atom 103H    basis set group =>   5
Atom 104H    basis set group =>   5
Atom 105H    basis set group =>   5
Atom 106H    basis set group =>   5
Atom 107H    basis set group =>   5
Atom 108H    basis set group =>   5
Atom 109H    basis set group =>   5
Atom 110H    basis set group =>   5
Atom 111H    basis set group =>   5
Atom 112H    basis set group =>   5
Atom 113H    basis set group =>   5
Atom 114H    basis set group =>   5


           ************************************************************
           *        Program running with 6 parallel MPI-processes     *
           *              working on a common directory               *
           ************************************************************
------------------------------------------------------------------------------
                           ORCA GTO INTEGRAL CALCULATION
                           -- RI-GTO INTEGRALS CHOSEN --
------------------------------------------------------------------------------

                         BASIS SET STATISTICS AND STARTUP INFO

Gaussian basis set:
 # of primitive gaussian shells          ... 1226
 # of primitive gaussian functions       ... 2368
 # of contracted shells                  ...  620
 # of contracted basis functions         ... 1386
 Highest angular momentum                ...    2
 Maximum contraction depth               ...    5
Auxiliary gaussian basis set:
 # of primitive gaussian shells          ... 2333
 # of primitive gaussian functions       ... 6587
 # of contracted shells                  ... 1459
 # of contracted aux-basis functions     ... 4585
 Highest angular momentum                ...    4
 Maximum contraction depth               ...    7
Ratio of auxiliary to basis functions    ...  3.31
Integral package used                  ... LIBINT
 One Electron integrals                  ... done
 Ordering auxiliary basis shells         ... done
 Integral threshhold             Thresh  ...  2.500e-11
 Primitive cut-off               TCut    ...  2.500e-12
 Pre-screening matrix                    ... done
 Shell pair data                         ... 
 Ordering of the shell pairs             ... done (   0.009 sec) 44803 of 192510 pairs
 Determination of significant pairs      ... done (   0.000 sec)
 Creation of shell pair data             ... done (   0.006 sec)
 Storage of shell pair data              ... done (   0.012 sec)
 Shell pair data done in (   0.027 sec)
 Computing two index integrals           ... done
 Cholesky decomposition of the V-matrix  ... done


Timings:
 Total evaluation time                   ...   2.911 sec (  0.049 min)
 One electron matrix time                ...   0.662 sec (  0.011 min) = 22.7%
 Schwartz matrix evaluation time         ...   0.897 sec (  0.015 min) = 30.8%
 Two index repulsion integral time       ...   0.471 sec (  0.008 min) = 16.2%
 Cholesky decomposition of V             ...   0.837 sec (  0.014 min) = 28.7%
 Three index repulsion integral time     ...   0.000 sec (  0.000 min) =  0.0%



           ************************************************************
           *        Program running with 6 parallel MPI-processes     *
           *              working on a common directory               *
           ************************************************************
-------------------------------------------------------------------------------
                                 ORCA SCF
-------------------------------------------------------------------------------

------------
SCF SETTINGS
------------
Hamiltonian:
 Density Functional     Method          .... DFT(GTOs)
 Exchange Functional    Exchange        .... WB88
 Correlation Functional Correlation     .... LYP
 LDA part of GGA corr.  LDAOpt          .... VWN-5
 Gradients option       PostSCFGGA      .... off
 Hybrid DFT is turned on
   Fraction HF Exchange ScalHFX         ....  0.190000
   Scaling of DF-GGA-X  ScalDFX         ....  0.350000
   Scaling of DF-GGA-C  ScalDFC         ....  0.810000
   Scaling of DF-LDA-C  ScalLDAC        ....  1.000000
   Perturbative correction              ....  0.000000
   Density functional embedding theory  .... OFF
 Long-range corrected/Screened/Range-Separated Hybrid DFT is turned on
   Amount of maximum screened exact exchange              ....  0.460000
   Range separation parameter mu (erf(mu*r12)/r12)        ....  0.330000
 RI-approximation to the Coulomb term is turned on
   Number of auxiliary basis functions  .... 4585
   RIJ-COSX (HFX calculated with COS-X)).... on


General Settings:
 Integral files         IntName         .... xtbopt
 Hartree-Fock type      HFTyp           .... RHF
 Total Charge           Charge          ....    0
 Multiplicity           Mult            ....    1
 Number of Electrons    NEL             ....  634
 Basis Dimension        Dim             .... 1386
 Nuclear Repulsion      ENuc            ....  12199.6779082586 Eh

Convergence Acceleration:
 DIIS                   CNVDIIS         .... on
   Start iteration      DIISMaxIt       ....    12
   Startup error        DIISStart       ....  0.200000
   # of expansion vecs  DIISMaxEq       ....     5
   Bias factor          DIISBfac        ....   1.050
   Max. coefficient     DIISMaxC        ....  10.000
 Newton-Raphson         CNVNR           .... off
 SOSCF                  CNVSOSCF        .... on
   Start iteration      SOSCFMaxIt      ....   150
   Startup grad/error   SOSCFStart      ....  0.003300
 Level Shifting         CNVShift        .... on
   Level shift para.    LevelShift      ....    0.2500
   Turn off err/grad.   ShiftErr        ....    0.0010
 Zerner damping         CNVZerner       .... off
 Static damping         CNVDamp         .... on
   Fraction old density DampFac         ....    0.7000
   Max. Damping (<1)    DampMax         ....    0.9800
   Min. Damping (>=0)   DampMin         ....    0.0000
   Turn off err/grad.   DampErr         ....    0.1000
 Fernandez-Rico         CNVRico         .... off

SCF Procedure:
 Maximum # iterations   MaxIter         ....   125
 SCF integral mode      SCFMode         .... Direct
   Integral package                     .... LIBINT
 Reset frequency        DirectResetFreq ....    20
 Integral Threshold     Thresh          ....  2.500e-11 Eh
 Primitive CutOff       TCut            ....  2.500e-12 Eh

Convergence Tolerance:
 Convergence Check Mode ConvCheckMode   .... Total+1el-Energy
 Convergence forced     ConvForced      .... 1
 Energy Change          TolE            ....  1.000e-08 Eh
 1-El. energy change                    ....  1.000e-05 Eh
 Orbital Gradient       TolG            ....  1.000e-05
 Orbital Rotation angle TolX            ....  1.000e-05
 DIIS Error             TolErr          ....  5.000e-07


Diagonalization of the overlap matrix:
Smallest eigenvalue                        ... 1.484e-04
Time for diagonalization                   ...    0.264 sec
Threshold for overlap eigenvalues          ... 1.000e-08
Number of eigenvalues below threshold      ... 0
Time for construction of square roots      ...    0.201 sec
Total time needed                          ...    0.469 sec

-------------------
DFT GRID GENERATION
-------------------

General Integration Accuracy     IntAcc      ...  4.670
Radial Grid Type                 RadialGrid  ... Gauss-Chebyshev
Angular Grid (max. acc.)         AngularGrid ... Lebedev-302
Angular grid pruning method      GridPruning ... 3 (G Style)
Weight generation scheme         WeightScheme... Becke
Basis function cutoff            BFCut       ...    1.0000e-11
Integration weight cutoff        WCut        ...    1.0000e-14
Grids for H and He will be reduced by one unit

# of grid points (after initial pruning)     ... 639914 (   0.0 sec)
# of grid points (after weights+screening)   ... 557388 (  10.7 sec)
nearest neighbour list constructed           ...    0.0 sec
Grid point re-assignment to atoms done       ...    0.1 sec
Grid point division into batches done        ...    2.0 sec
Reduced shell lists constructed in    3.0 sec

Total number of grid points                  ...   557388
Total number of batches                      ...     8767
Average number of points per batch           ...       63
Average number of grid points per atom       ...     4847
Average number of shells per batch           ...    75.40 (12.16%)
Average number of basis functions per batch  ...   164.66 (11.88%)
Average number of large shells per batch     ...    49.51 (65.67%)
Average number of large basis fcns per batch ...   108.94 (66.16%)
Maximum spatial batch extension              ...  21.74, 18.42, 19.07 au
Average spatial batch extension              ...   0.36,  0.41,  0.40 au

Time for grid setup =   14.102 sec

------------------------------
INITIAL GUESS: MODEL POTENTIAL
------------------------------
Loading Hartree-Fock densities                     ... done
Calculating cut-offs                               ... done
Setting up the integral package                    ... done
Initializing the effective Hamiltonian             ... done
Starting the Coulomb interaction                   ... done (   1.6 sec)
Reading the grid                                   ... done
Mapping shells                                     ... done
Starting the XC term evaluation                    ... done (   1.4 sec)
  promolecular density results
     # of electrons  =    633.985461002
     EX              =   -611.966277974
     EC              =    -22.004332876
     EX+EC           =   -633.970610850
Transforming the Hamiltonian                       ... done (   0.1 sec)
Diagonalizing the Hamiltonian                      ... done (   0.3 sec)
Back transforming the eigenvectors                 ... done (   0.1 sec)
Now organizing SCF variables                       ... done
                      ------------------
                      INITIAL GUESS DONE (  17.7 sec)
                      ------------------
--------------------
COSX GRID GENERATION
--------------------

General Integration Accuracy     IntAcc      ...  3.340
Radial Grid Type                 RadialGrid  ... Gauss-Chebyshev
Angular Grid (max. acc.)         AngularGrid ... Lebedev-50
Angular grid pruning method      GridPruning ... 3 (G Style)
Weight generation scheme         WeightScheme... Becke
Basis function cutoff            BFCut       ...    1.0000e-11
Integration weight cutoff        WCut        ...    1.0000e-14
Grids for H and He will be reduced by one unit

# of grid points (after initial pruning)     ...  60162 (   0.0 sec)
# of grid points (after weights+screening)   ...  54506 (   1.1 sec)
nearest neighbour list constructed           ...    0.0 sec
Grid point re-assignment to atoms done       ...    0.0 sec
Grid point division into batches done        ...    0.0 sec
Reduced shell lists constructed in    0.1 sec

Total number of grid points                  ...    54506
Total number of batches                      ...      912
Average number of points per batch           ...       59
Average number of grid points per atom       ...      474
Average number of shells per batch           ...    91.58 (14.77%)
Average number of basis functions per batch  ...   202.50 (14.61%)
Average number of large shells per batch     ...    60.83 (66.43%)
Average number of large basis fcns per batch ...   135.48 (66.90%)
Maximum spatial batch extension              ...  16.18, 21.67, 19.23 au
Average spatial batch extension              ...   0.67,  1.00,  0.91 au

Overlap Fitting                  UseSFitting ... on
Constructing numerical overlap ... done (      0.1 sec)
Inverting numerical overlap    ... done (      0.1 sec)
Obtaining analytic overlap     ... done (      0.0 sec)
Final contraction and storage  ... done (      0.1 sec)


General Integration Accuracy     IntAcc      ...  3.670
Radial Grid Type                 RadialGrid  ... Gauss-Chebyshev
Angular Grid (max. acc.)         AngularGrid ... Lebedev-50
Angular grid pruning method      GridPruning ... 3 (G Style)
Weight generation scheme         WeightScheme... Becke
Basis function cutoff            BFCut       ...    1.0000e-11
Integration weight cutoff        WCut        ...    1.0000e-14
Grids for H and He will be reduced by one unit

# of grid points (after initial pruning)     ...  74826 (   0.0 sec)
# of grid points (after weights+screening)   ...  67534 (   1.3 sec)
nearest neighbour list constructed           ...    0.0 sec
Grid point re-assignment to atoms done       ...    0.0 sec
Grid point division into batches done        ...    0.0 sec
Reduced shell lists constructed in    0.2 sec

Total number of grid points                  ...    67534
Total number of batches                      ...     1117
Average number of points per batch           ...       60
Average number of grid points per atom       ...      587
Average number of shells per batch           ...    90.18 (14.54%)
Average number of basis functions per batch  ...   199.01 (14.36%)
Average number of large shells per batch     ...    59.58 (66.07%)
Average number of large basis fcns per batch ...   132.93 (66.80%)
Maximum spatial batch extension              ...  16.28, 22.55, 20.25 au
Average spatial batch extension              ...   0.66,  0.98,  0.89 au

Overlap Fitting                  UseSFitting ... on
Constructing numerical overlap ... done (      0.1 sec)
Inverting numerical overlap    ... done (      0.1 sec)
Obtaining analytic overlap     ... done (      0.0 sec)
Final contraction and storage  ... done (      0.1 sec)


General Integration Accuracy     IntAcc      ...  4.010
Radial Grid Type                 RadialGrid  ... Gauss-Chebyshev
Angular Grid (max. acc.)         AngularGrid ... Lebedev-110
Angular grid pruning method      GridPruning ... 3 (G Style)
Weight generation scheme         WeightScheme... Becke
Basis function cutoff            BFCut       ...    1.0000e-11
Integration weight cutoff        WCut        ...    1.0000e-14
Grids for H and He will be reduced by one unit

# of grid points (after initial pruning)     ... 147476 (   0.0 sec)
# of grid points (after weights+screening)   ... 132074 (   2.7 sec)
nearest neighbour list constructed           ...    0.0 sec
Grid point re-assignment to atoms done       ...    0.0 sec
Grid point division into batches done        ...    0.1 sec
Reduced shell lists constructed in    0.3 sec

Total number of grid points                  ...   132074
Total number of batches                      ...     2119
Average number of points per batch           ...       62
Average number of grid points per atom       ...     1148
Average number of shells per batch           ...    84.61 (13.65%)
Average number of basis functions per batch  ...   186.37 (13.45%)
Average number of large shells per batch     ...    56.31 (66.55%)
Average number of large basis fcns per batch ...   124.77 (66.95%)
Maximum spatial batch extension              ...  18.98, 20.45, 19.00 au
Average spatial batch extension              ...   0.54,  0.71,  0.65 au

Overlap Fitting                  UseSFitting ... on
Constructing numerical overlap ... done (      0.2 sec)
Inverting numerical overlap    ... done (      0.1 sec)
Obtaining analytic overlap     ... done (      0.0 sec)
Final contraction and storage  ... done (      0.1 sec)

Time for X-Grid setup             =    7.290 sec
--------------
SCF ITERATIONS
--------------
ITER       Energy         Delta-E        Max-DP      RMS-DP      [F,P]     Damp
               ***  Starting incremental Fock matrix formation  ***
  0  -6086.2707441248   0.000000000000 0.07826662  0.00097553  0.2462231 0.7000
  1  -6087.1159240479  -0.845179923126 0.04562775  0.00067928  0.1024648 0.7000
                               ***Turning on DIIS***
  2  -6087.4462984887  -0.330374440788 0.08431079  0.00121955  0.0314351 0.0000
  3  -6088.0029198156  -0.556621326925 0.04354950  0.00048581  0.0548980 0.0000
  4  -6088.1086822574  -0.105762441772 0.01538427  0.00016114  0.0234948 0.0000
  5  -6088.1182547001  -0.009572442721 0.00657042  0.00005857  0.0057056 0.0000
                      *** Initiating the SOSCF procedure ***
                           *** Shutting down DIIS ***
                      *** Re-Reading the Fockian *** 
                      *** Removing any level shift *** 
ITER      Energy       Delta-E        Grad      Rot      Max-DP    RMS-DP
  6  -6088.11956778  -0.0013130836  0.003024  0.003024  0.003122  0.000032
               *** Restarting incremental Fock matrix formation ***
  7  -6088.12002922  -0.0004614397  0.002238  0.017010  0.003029  0.000039
  8  -6088.12044441  -0.0004151837  0.000805  0.016258  0.003816  0.000048
  9  -6088.12046238  -0.0000179755  0.001351  0.004986  0.002339  0.000016
 10  -6088.12057753  -0.0001151443  0.000239  0.002010  0.000788  0.000009
 11  -6088.12057789  -0.0000003650  0.000161  0.000826  0.000446  0.000005
 12  -6088.12058525  -0.0000073599  0.000038  0.000208  0.000245  0.000002
 13  -6088.12058517   0.0000000779  0.000041  0.000098  0.000135  0.000001
 14  -6088.12058568  -0.0000005028  0.000007  0.000043  0.000041  0.000000
 15  -6088.12058570  -0.0000000207  0.000011  0.000029  0.000020  0.000000
 16  -6088.12058570  -0.0000000017  0.000003  0.000021  0.000016  0.000000
 17  -6088.12058569   0.0000000112  0.000004  0.000005  0.000008  0.000000
                  ***Gradient check signals convergence***
              ***Rediagonalizing the Fockian in SOSCF/NRSCF***

               *****************************************************
               *                     SUCCESS                       *
               *           SCF CONVERGED AFTER  18 CYCLES          *
               *****************************************************

Setting up the final grid:

General Integration Accuracy     IntAcc      ...  5.010
Radial Grid Type                 RadialGrid  ... Gauss-Chebyshev
Angular Grid (max. acc.)         AngularGrid ... Lebedev-434
Angular grid pruning method      GridPruning ... 3 (G Style)
Weight generation scheme         WeightScheme... Becke
Basis function cutoff            BFCut       ...    1.0000e-11
Integration weight cutoff        WCut        ...    1.0000e-14
Grids for H and He will be reduced by one unit

# of grid points (after initial pruning)     ... 1124604 (   0.1 sec)
# of grid points (after weights+screening)   ... 976246 (  19.3 sec)
nearest neighbour list constructed           ...    0.0 sec
Grid point re-assignment to atoms done       ...    0.1 sec
Grid point division into batches done        ...    6.4 sec
Reduced shell lists constructed in    8.0 sec

Total number of grid points                  ...   976246
Total number of batches                      ...    15313
Average number of points per batch           ...       63
Average number of grid points per atom       ...     8489
Average number of shells per batch           ...    72.41 (11.68%)
Average number of basis functions per batch  ...   157.69 (11.38%)
Average number of large shells per batch     ...    47.46 (65.54%)
Average number of large basis fcns per batch ...   104.27 (66.12%)
Maximum spatial batch extension              ...  21.94, 20.26, 18.42 au
Average spatial batch extension              ...   0.31,  0.33,  0.33 au

Final grid set up in   28.6 sec
Final integration                            ... done (   3.4 sec)
Change in XC energy                          ...    -0.000072637
Integrated number of electrons               ...   634.000120546
Previous integrated no of electrons          ...   633.999634286
Old exchange energy                            =   -167.521825737 Eh
New exchange energy                            =   -167.519473271 Eh
Exchange energy change after final integration =      0.002352466 Eh
Total energy after final integration           =  -6088.118305908 Eh
Final COS-X integration done in                =    74.842 sec

----------------
TOTAL SCF ENERGY
----------------

Total Energy       :        -6088.11830591 Eh         -165666.12141 eV

Components:
Nuclear Repulsion  :        12199.67790826 Eh          331970.11292 eV
Electronic Energy  :       -18287.79621417 Eh         -497636.23432 eV
One Electron Energy:       -32616.57163544 Eh         -887542.03597 eV
Two Electron Energy:        14328.77542127 Eh          389905.80164 eV

Virial components:
Potential Energy   :       -12139.40280404 Eh         -330329.94395 eV
Kinetic Energy     :         6051.28449813 Eh          164663.82254 eV
Virial Ratio       :            2.00608694


DFT components:
N(Alpha)           :      317.000060272950 electrons
N(Beta)            :      317.000060272950 electrons
N(Total)           :      634.000120545900 electrons
E(XC)              :     -475.951441821202 Eh       
DFET-embed. en.    :        0.000000000000 Eh       

---------------
SCF CONVERGENCE
---------------

  Last Energy change         ...   -4.9353e-08  Tolerance :   1.0000e-08
  Last MAX-Density change    ...    8.4377e-15  Tolerance :   1.0000e-07
  Last RMS-Density change    ...    3.6028e-17  Tolerance :   5.0000e-09
  Last Orbital Gradient      ...    6.6855e-07  Tolerance :   1.0000e-05
  Last Orbital Rotation      ...    3.5909e-06  Tolerance :   1.0000e-05

             **** THE GBW FILE WAS UPDATED (xtbopt.gbw) ****
             **** DENSITY FILE WAS UPDATED (xtbopt.scfp) ****
             **** ENERGY FILE WAS UPDATED (xtbopt.en.tmp) ****
             **** THE GBW FILE WAS UPDATED (xtbopt.gbw) ****
             **** DENSITY FILE WAS UPDATED (xtbopt.scfp) ****
----------------
ORBITAL ENERGIES
----------------

  NO   OCC          E(Eh)            E(eV) 
   0   2.0000     -88.983296     -2421.3586 
   1   2.0000     -88.982866     -2421.3469 
   2   2.0000     -88.981967     -2421.3224 
   3   2.0000     -88.980014     -2421.2693 
   4   2.0000     -88.978721     -2421.2341 
   5   2.0000     -88.977942     -2421.2129 
   6   2.0000     -88.976943     -2421.1857 
   7   2.0000     -19.238621      -523.5095 
   8   2.0000     -19.231545      -523.3169 
   9   2.0000     -14.431061      -392.6891 
  10   2.0000     -14.430453      -392.6726 
  11   2.0000     -14.429163      -392.6375 
  12   2.0000     -14.427468      -392.5914 
  13   2.0000     -14.426990      -392.5784 
  14   2.0000     -14.426882      -392.5754 
  15   2.0000     -14.426374      -392.5616 
  16   2.0000     -14.425507      -392.5380 
  17   2.0000     -14.419118      -392.3642 
  18   2.0000     -14.418857      -392.3571 
  19   2.0000     -10.387486      -282.6579 
  20   2.0000     -10.382597      -282.5248 
  21   2.0000     -10.359786      -281.9041 
  22   2.0000     -10.359173      -281.8874 
  23   2.0000     -10.358591      -281.8716 
  24   2.0000     -10.358301      -281.8637 
  25   2.0000     -10.357633      -281.8455 
  26   2.0000     -10.357558      -281.8435 
  27   2.0000     -10.357309      -281.8367 
  28   2.0000     -10.357265      -281.8355 
  29   2.0000     -10.350324      -281.6466 
  30   2.0000     -10.349921      -281.6357 
  31   2.0000     -10.338984      -281.3381 
  32   2.0000     -10.337887      -281.3082 
  33   2.0000     -10.337162      -281.2885 
  34   2.0000     -10.336989      -281.2838 
  35   2.0000     -10.336348      -281.2663 
  36   2.0000     -10.335120      -281.2329 
  37   2.0000     -10.333165      -281.1797 
  38   2.0000     -10.332105      -281.1509 
  39   2.0000     -10.332096      -281.1506 
  40   2.0000     -10.331950      -281.1466 
  41   2.0000     -10.331765      -281.1416 
  42   2.0000     -10.331686      -281.1395 
  43   2.0000     -10.331367      -281.1308 
  44   2.0000     -10.331045      -281.1220 
  45   2.0000     -10.330751      -281.1140 
  46   2.0000     -10.330248      -281.1003 
  47   2.0000     -10.329175      -281.0711 
  48   2.0000     -10.329092      -281.0689 
  49   2.0000     -10.328985      -281.0660 
  50   2.0000     -10.328716      -281.0586 
  51   2.0000     -10.328398      -281.0500 
  52   2.0000     -10.328051      -281.0406 
  53   2.0000     -10.327647      -281.0296 
  54   2.0000     -10.327040      -281.0130 
  55   2.0000     -10.325229      -280.9638 
  56   2.0000     -10.325113      -280.9606 
  57   2.0000     -10.324211      -280.9361 
  58   2.0000     -10.324140      -280.9341 
  59   2.0000     -10.323682      -280.9217 
  60   2.0000     -10.322841      -280.8988 
  61   2.0000     -10.322452      -280.8882 
  62   2.0000     -10.322440      -280.8879 
  63   2.0000     -10.321927      -280.8739 
  64   2.0000     -10.317591      -280.7559 
  65   2.0000     -10.317101      -280.7426 
  66   2.0000     -10.316892      -280.7369 
  67   2.0000     -10.316693      -280.7315 
  68   2.0000     -10.311343      -280.5859 
  69   2.0000     -10.309000      -280.5221 
  70   2.0000     -10.308779      -280.5161 
  71   2.0000     -10.308243      -280.5015 
  72   2.0000     -10.308175      -280.4997 
  73   2.0000     -10.308067      -280.4968 
  74   2.0000     -10.307464      -280.4803 
  75   2.0000     -10.305866      -280.4369 
  76   2.0000     -10.302381      -280.3421 
  77   2.0000     -10.302223      -280.3377 
  78   2.0000     -10.300325      -280.2861 
  79   2.0000     -10.300240      -280.2838 
  80   2.0000     -10.298321      -280.2316 
  81   2.0000     -10.298261      -280.2299 
  82   2.0000     -10.298014      -280.2232 
  83   2.0000     -10.297725      -280.2153 
  84   2.0000     -10.297103      -280.1984 
  85   2.0000     -10.296943      -280.1941 
  86   2.0000     -10.294761      -280.1347 
  87   2.0000      -8.078593      -219.8297 
  88   2.0000      -8.078038      -219.8146 
  89   2.0000      -8.077564      -219.8017 
  90   2.0000      -8.075508      -219.7457 
  91   2.0000      -8.073874      -219.7013 
  92   2.0000      -8.072546      -219.6652 
  93   2.0000      -8.072384      -219.6607 
  94   2.0000      -6.047830      -164.5698 
  95   2.0000      -6.047481      -164.5603 
  96   2.0000      -6.046907      -164.5447 
  97   2.0000      -6.044918      -164.4906 
  98   2.0000      -6.043785      -164.4597 
  99   2.0000      -6.043237      -164.4449 
 100   2.0000      -6.043084      -164.4407 
 101   2.0000      -6.042764      -164.4320 
 102   2.0000      -6.041913      -164.4088 
 103   2.0000      -6.041824      -164.4064 
 104   2.0000      -6.040787      -164.3782 
 105   2.0000      -6.040678      -164.3752 
 106   2.0000      -6.040073      -164.3587 
 107   2.0000      -6.039566      -164.3449 
 108   2.0000      -6.039040      -164.3306 
 109   2.0000      -6.037838      -164.2979 
 110   2.0000      -6.037371      -164.2852 
 111   2.0000      -6.037297      -164.2832 
 112   2.0000      -6.035998      -164.2478 
 113   2.0000      -6.034512      -164.2074 
 114   2.0000      -6.034426      -164.2051 
 115   2.0000      -1.153987       -31.4016 
 116   2.0000      -1.146813       -31.2064 
 117   2.0000      -1.040920       -28.3249 
 118   2.0000      -1.040596       -28.3161 
 119   2.0000      -1.029326       -28.0094 
 120   2.0000      -1.026789       -27.9404 
 121   2.0000      -1.026565       -27.9343 
 122   2.0000      -1.022839       -27.8329 
 123   2.0000      -1.022551       -27.8250 
 124   2.0000      -1.015136       -27.6232 
 125   2.0000      -1.010533       -27.4980 
 126   2.0000      -1.009469       -27.4690 
 127   2.0000      -1.009165       -27.4608 
 128   2.0000      -1.008109       -27.4321 
 129   2.0000      -1.006645       -27.3922 
 130   2.0000      -1.006006       -27.3748 
 131   2.0000      -1.005663       -27.3655 
 132   2.0000      -1.005322       -27.3562 
 133   2.0000      -1.002098       -27.2685 
 134   2.0000      -0.992447       -27.0059 
 135   2.0000      -0.990420       -26.9507 
 136   2.0000      -0.977407       -26.5966 
 137   2.0000      -0.976474       -26.5712 
 138   2.0000      -0.966087       -26.2886 
 139   2.0000      -0.939567       -25.5669 
 140   2.0000      -0.930633       -25.3238 
 141   2.0000      -0.924095       -25.1459 
 142   2.0000      -0.923961       -25.1422 
 143   2.0000      -0.920755       -25.0550 
 144   2.0000      -0.906251       -24.6603 
 145   2.0000      -0.902783       -24.5660 
 146   2.0000      -0.901868       -24.5411 
[...]
  11   3.487     355.6   0.008071   0.008057   7.492646   5.734644     0.12 ( 112-> 115)    0.12 ( 111-> 115)    0.10 ( 110-> 115)
  12   3.656     339.1   0.003371   0.004164  -4.479148  -5.014368     0.36 ( 100-> 116)    0.16 ( 100-> 117)    0.16 ( 100-> 115)
  13   3.667     338.1   0.024497   0.023320  -38.968313  -46.893429     0.16 ( 113-> 119)    0.12 ( 112-> 118)    0.08 ( 108-> 114)
  14   3.720     333.3   0.070493   0.069895  -8.590676  -8.653371     0.13 ( 113-> 119)    0.11 ( 108-> 114)    0.10 ( 112-> 118)
  15   3.808     325.6   0.002088   0.001819  -2.463427  -2.309985     0.57 ( 100-> 115)    0.19 ( 100-> 116)    0.08 ( 100-> 114)
  16   3.838     323.1   0.064995   0.063626  21.803225  44.888260     0.27 ( 113-> 120)    0.19 ( 112-> 119)    0.06 (  98-> 117)
  17   3.860     321.2   0.065870   0.065918  -232.246212  -251.469919     0.15 ( 113-> 120)    0.14 ( 112-> 119)    0.13 (  98-> 117)
  18   3.907     317.4   0.009322   0.009550  75.972844  64.113746     0.21 ( 111-> 118)    0.13 ( 110-> 115)    0.09 ( 112-> 117)
  19   3.915     316.7   0.004326   0.003536  -1.269913  -0.480048     0.15 ( 112-> 116)    0.11 ( 110-> 116)    0.07 ( 109-> 116)
  20   3.967     312.5   0.034230   0.026374  10.383186  -2.480558     0.20 (  98-> 114)    0.09 (  97-> 114)    0.06 ( 112-> 117)
  21   4.004     309.6   0.038898   0.038705  -203.758951  -188.841324     0.15 ( 111-> 115)    0.14 ( 109-> 115)    0.12 ( 110-> 114)
  22   4.063     305.2   0.057671   0.055188  640.280854  622.951027     0.22 ( 106-> 115)    0.07 ( 103-> 115)    0.06 ( 108-> 114)
  23   4.082     303.7   0.113124   0.101532  -304.449467  -291.158321     0.12 ( 103-> 115)    0.10 ( 113-> 121)    0.09 ( 106-> 114)
  24   4.135     299.9   0.022737   0.022008  103.071828  86.642781     0.21 ( 111-> 118)    0.13 ( 113-> 120)    0.10 ( 110-> 115)
  25   4.191     295.8   0.077735   0.067837  -61.899264  -51.472133     0.21 ( 113-> 121)    0.11 ( 112-> 120)    0.06 ( 104-> 114)
  26   4.268     290.5   0.025554   0.025320  -52.138046  -74.547376     0.11 ( 112-> 120)    0.11 ( 111-> 119)    0.10 ( 102-> 114)
  27   4.283     289.5   0.036270   0.022678  -96.328797  -48.856255     0.16 ( 102-> 114)    0.11 ( 104-> 114)    0.08 ( 103-> 115)
  28   4.353     284.9   0.401811   0.340766  -275.848505  -256.347567     0.11 ( 108-> 115)    0.08 ( 106-> 115)    0.08 ( 108-> 116)
  29   4.425     280.2   0.408675   0.365083  -51.877292  -51.044519     0.23 ( 112-> 119)    0.08 ( 113-> 120)    0.08 ( 112-> 121)
  30   4.450     278.6   0.209657   0.173796  -192.445363  -149.696371     0.08 ( 108-> 117)    0.07 (  96-> 114)    0.05 ( 108-> 114)
  31   4.504     275.3   0.056158   0.045466  687.227086  629.384915     0.20 ( 110-> 118)    0.12 ( 111-> 119)    0.08 ( 113-> 121)
  32   4.517     274.5   0.117426   0.094323  65.476946  35.258600     0.23 ( 105-> 115)    0.15 ( 103-> 115)    0.07 (  99-> 115)
  33   4.560     271.9   0.047260   0.038708  -38.628700  -1.728647     0.14 ( 113-> 122)    0.10 ( 111-> 118)    0.09 ( 112-> 121)
  34   4.587     270.3   0.024314   0.023595  -70.495886  -65.149577     0.27 ( 104-> 114)    0.10 (  99-> 114)    0.07 ( 101-> 114)
  35   4.603     269.4   0.016636   0.013894   4.863993  13.166179     0.18 ( 111-> 117)    0.14 ( 110-> 116)    0.11 ( 109-> 117)
  36   4.635     267.5   0.114365   0.093505  -205.921869  -189.564485     0.10 (  95-> 114)    0.09 ( 111-> 116)    0.07 ( 110-> 117)
  37   4.648     266.7   0.037771   0.025289  107.927027  85.930598     0.09 ( 113-> 122)    0.08 (  96-> 114)    0.06 ( 104-> 114)
  38   4.663     265.9   0.090854   0.072240  39.441006  44.954693     0.11 ( 109-> 115)    0.09 ( 110-> 115)    0.08 ( 103-> 116)
  39   4.740     261.6   0.022385   0.014264  129.385760  101.490477     0.17 ( 112-> 122)    0.16 ( 113-> 123)    0.06 ( 110-> 117)
  40   4.763     260.3   0.076473   0.067003  -471.268590  -446.923522     0.15 ( 103-> 116)    0.09 ( 110-> 116)    0.07 ( 103-> 117)
  41   4.819     257.3   0.024284   0.018605  -61.759521  -22.899968     0.07 ( 110-> 117)    0.07 (  95-> 115)    0.06 ( 108-> 117)
  42   4.835     256.4   0.068814   0.051163  -62.784942  -3.097547     0.09 ( 112-> 120)    0.08 ( 109-> 115)    0.08 ( 101-> 115)
  43   4.871     254.5   0.291886   0.225273  160.266292  132.585064     0.14 ( 112-> 120)    0.07 ( 111-> 119)    0.06 ( 111-> 121)
  44   4.893     253.4   0.082714   0.052932  97.089354  39.262441     0.10 ( 112-> 120)    0.09 ( 110-> 118)    0.09 (  99-> 115)
  45   4.905     252.8   0.124325   0.084345  81.518177  25.933192     0.18 ( 107-> 114)    0.08 ( 112-> 123)    0.07 ( 113-> 125)
  46   4.960     250.0   0.037098   0.028537  -143.774894  -116.263857     0.19 ( 102-> 114)    0.15 ( 107-> 114)    0.08 (  99-> 114)
  47   4.972     249.4   0.049310   0.035476  162.499696  146.720696     0.10 (  99-> 115)    0.07 ( 110-> 119)    0.07 ( 102-> 114)
  48   4.990     248.5   0.020306   0.010990  46.616801  48.590721     0.28 ( 107-> 114)    0.07 ( 111-> 119)    0.06 ( 102-> 114)

-----------------------------------------------------------------------------
         ABSORPTION SPECTRUM VIA TRANSITION ELECTRIC DIPOLE MOMENTS
-----------------------------------------------------------------------------
State   Energy  Wavelength   fosc         T2         TX        TY        TZ  
        (cm-1)    (nm)                  (au**2)     (au)      (au)      (au) 
-----------------------------------------------------------------------------
   0   15097.8    662.3   2.263560072  49.35744  -0.56726  -5.46727   4.37546
   1   16679.2    599.5   1.296873272  25.59747   0.90017   2.78922  -4.12400
   2   20548.2    486.7   0.578284363   9.26497  -1.24807  -1.61386   2.25893
   3   21134.0    473.2   0.051921869   0.80881   0.19596  -0.40773   0.77728
   4   22553.0    443.4   0.061211477   0.89352   0.24394  -0.90353  -0.13283
   5   22881.2    437.0   0.011374737   0.16366   0.16321   0.29248  -0.22688
   6   24072.0    415.4   0.451414287   6.17361   0.35303   1.67937  -1.79686
   7   26678.7    374.8   0.082826451   1.02207  -0.20658   0.00691   0.98962
   8   27335.7    365.8   0.005882564   0.07085   0.20591  -0.16654  -0.02663
   9   27404.1    364.9   0.009286707   0.11156   0.15618  -0.27736  -0.10121
  10   27802.4    359.7   0.081684058   0.96723   0.64281   0.47448  -0.57350
  11   28124.1    355.6   0.008071473   0.09448  -0.07532  -0.16399   0.24883
  12   29485.7    339.1   0.003371038   0.03764   0.12135   0.10590   0.10815
  13   29578.1    338.1   0.024497038   0.27266   0.43898   0.26921  -0.08648
  14   30004.6    333.3   0.070492534   0.77345   0.22879   0.56324  -0.63550
  15   30712.5    325.6   0.002087589   0.02238  -0.13132   0.07165  -0.00031
  16   30951.6    323.1   0.064994967   0.69131   0.70769  -0.15206   0.40909
  17   31133.8    321.2   0.065869782   0.69651   0.04843  -0.29168   0.78044
  18   31508.6    317.4   0.009321575   0.09739   0.12418  -0.27988   0.06036
  19   31578.2    316.7   0.004326012   0.04510   0.07927  -0.10405   0.16730
  20   31999.4    312.5   0.034230046   0.35216   0.36986   0.40231  -0.23132
  21   32295.4    309.6   0.038898469   0.39652   0.24457  -0.21369   0.53948
  22   32766.8    305.2   0.057671452   0.57943  -0.69986   0.29896  -0.01594
  23   32926.2    303.7   0.113123782   1.13106  -0.65469  -0.78119   0.30363
  24   33349.0    299.9   0.022736874   0.22445  -0.42238  -0.04954   0.20879
  25   33801.7    295.8   0.077734688   0.75710  -0.55382  -0.56534   0.36163
  26   34422.6    290.5   0.025554398   0.24440  -0.37024  -0.15140  -0.29052
  27   34543.8    289.5   0.036270025   0.34566   0.39960   0.33039   0.27717
  28   35105.7    284.9   0.401810828   3.76807  -1.90202  -0.07812  -0.37984
  29   35691.1    280.2   0.408674651   3.76958  -1.25288  -1.15105   0.93539
  30   35895.3    278.6   0.209657084   1.92286   1.08341   0.86357  -0.05780
  31   36325.1    275.3   0.056158050   0.50896   0.65907  -0.26997  -0.04126
  32   36433.6    274.5   0.117425973   1.06105   0.16528  -0.65631   0.77653
  33   36782.4    271.9   0.047260024   0.42299  -0.59694  -0.11609  -0.23060
  34   36999.0    270.3   0.024314101   0.21634  -0.29869  -0.26555   0.23793
  35   37123.8    269.4   0.016635572   0.14752  -0.29208  -0.19652   0.15360
  36   37387.6    267.5   0.114365115   1.00703   0.61981   0.72913   0.30203
  37   37492.0    266.7   0.037771427   0.33167  -0.06725  -0.52096   0.23610
  38   37612.3    265.9   0.090854294   0.79523  -0.51733   0.43106  -0.58463
  39   38226.8    261.6   0.022385342   0.19278   0.42714   0.04972  -0.08870
  40   38413.9    260.3   0.076472716   0.65538  -0.60065  -0.54277  -0.00273
  41   38871.8    257.3   0.024284492   0.20567   0.04393  -0.39033  -0.22667
  42   38996.1    256.4   0.068813546   0.58094  -0.11503   0.26304  -0.70605
  43   39289.0    254.5   0.291886398   2.44579  -0.89751  -0.78736   1.01012
  44   39466.4    253.4   0.082714146   0.68997   0.70966   0.36768  -0.22619
  45   39560.6    252.8   0.124324588   1.03459  -0.90210  -0.46469  -0.06983
  46   40002.0    250.0   0.037098424   0.30532   0.36267   0.02512   0.41612
  47   40102.9    249.4   0.049309911   0.40479   0.61177   0.06071  -0.16383
  48   40243.5    248.5   0.020305600   0.16611   0.02864  -0.06365  -0.40155

-----------------------------------------------------------------------------
         ABSORPTION SPECTRUM VIA TRANSITION VELOCITY DIPOLE MOMENTS
-----------------------------------------------------------------------------
State   Energy  Wavelength   fosc         P2         PX        PY        PZ  
        (cm-1)    (nm)                  (au**2)     (au)      (au)      (au) 
-----------------------------------------------------------------------------
   0   15097.8    662.3   2.747049823   0.28346  -0.04109  -0.41749   0.32783
   1   16679.2    599.5   1.504847000   0.17154   0.07119   0.22654  -0.33934
   2   20548.2    486.7   0.596721419   0.08380  -0.12294  -0.14921   0.21546
   3   21134.0    473.2   0.055045710   0.00795   0.01836  -0.03827   0.07842
   4   22553.0    443.4   0.072285495   0.01114   0.02536  -0.10205  -0.00921
   5   22881.2    437.0   0.009215014   0.00144   0.02079   0.02752  -0.01586
   6   24072.0    415.4   0.493534044   0.08120   0.04123   0.19359  -0.20499
   7   26678.7    374.8   0.093071075   0.01697  -0.02356  -0.00038   0.12812
   8   27335.7    365.8   0.006546082   0.00122   0.02752  -0.02139  -0.00288
   9   27404.1    364.9   0.008968613   0.00168   0.01798  -0.03466  -0.01245
  10   27802.4    359.7   0.082182384   0.01562   0.07868   0.06050  -0.07593
  11   28124.1    355.6   0.008057080   0.00155  -0.01138  -0.02216   0.03047
  12   29485.7    339.1   0.004163533   0.00084   0.01848   0.01640   0.01512
  13   29578.1    338.1   0.023320376   0.00471   0.05709   0.03496  -0.01527
  14   30004.6    333.3   0.069895150   0.01433   0.03159   0.07606  -0.08689
  15   30712.5    325.6   0.001819260   0.00038  -0.01636   0.01068  -0.00048
  16   30951.6    323.1   0.063625753   0.01346   0.09411  -0.02740   0.06206
  17   31133.8    321.2   0.065917590   0.01403   0.00974  -0.03970   0.11115
  18   31508.6    317.4   0.009550375   0.00206   0.01132  -0.04322   0.00776
  19   31578.2    316.7   0.003536126   0.00076   0.00964  -0.01324   0.02225
  20   31999.4    312.5   0.026374396   0.00577   0.04757   0.04993  -0.03182
  21   32295.4    309.6   0.038704560   0.00854   0.03280  -0.03267   0.08000
  22   32766.8    305.2   0.055188255   0.01236  -0.10265   0.04260  -0.00255
  23   32926.2    303.7   0.101532499   0.02285  -0.09605  -0.10963   0.04006
  24   33349.0    299.9   0.022008136   0.00502  -0.06144  -0.01248   0.03295
  25   33801.7    295.8   0.067837462   0.01567  -0.08114  -0.08138   0.04966
  26   34422.6    290.5   0.025320461   0.00596  -0.06221  -0.02416  -0.03877
  27   34543.8    289.5   0.022677797   0.00535   0.04572   0.04796   0.03105
  28   35105.7    284.9   0.340766248   0.08176  -0.28047  -0.01136  -0.05448
  29   35691.1    280.2   0.365082607   0.08905  -0.19127  -0.17896   0.14297
  30   35895.3    278.6   0.173795844   0.04264   0.16080   0.12940  -0.00575
  31   36325.1    275.3   0.045465973   0.01129   0.09576  -0.04537  -0.00771
  32   36433.6    274.5   0.094323259   0.02349   0.03414  -0.09427   0.11591
  33   36782.4    271.9   0.038708044   0.00973  -0.08673  -0.00945  -0.04603
  34   36999.0    270.3   0.023595406   0.00597  -0.05160  -0.04789   0.03179
  35   37123.8    269.4   0.013893685   0.00353  -0.04657  -0.03086   0.02009
  36   37387.6    267.5   0.093505142   0.02389   0.09580   0.11206   0.04646
  37   37492.0    266.7   0.025289230   0.00648  -0.00401  -0.07227   0.03522
  38   37612.3    265.9   0.072239598   0.01857  -0.07619   0.06823  -0.09006
  39   38226.8    261.6   0.014263608   0.00373   0.05866   0.00492  -0.01617
  40   38413.9    260.3   0.067002988   0.01759  -0.10030  -0.08676  -0.00178
  41   38871.8    257.3   0.018604852   0.00494   0.00975  -0.06201  -0.03166
  42   38996.1    256.4   0.051163247   0.01364  -0.00368   0.04482  -0.10777
  43   39289.0    254.5   0.225272652   0.06049  -0.14150  -0.12111   0.16063
  44   39466.4    253.4   0.052931837   0.01428   0.09882   0.05254  -0.04185
  45   39560.6    252.8   0.084344797   0.02280  -0.13414  -0.06933  -0.00203
  46   40002.0    250.0   0.028536811   0.00780   0.05549   0.00320   0.06864
  47   40102.9    249.4   0.035475808   0.00972   0.09568   0.01033  -0.02151
  48   40243.5    248.5   0.010989783   0.00302   0.01409  -0.00525  -0.05288

-------------------------------------------------------------------
                             CD SPECTRUM
-------------------------------------------------------------------
State   Energy Wavelength       R         MX        MY        MZ   
        (cm-1)   (nm)       (1e40*cgs)   (au)      (au)      (au)  
-------------------------------------------------------------------
   0   15097.8    662.3      6.37888   2.13143  -5.02096  -6.00369
   1   16679.2    599.5    -116.95267  -9.32288   3.37105   0.12471
   2   20548.2    486.7    201.20254   6.44979  -2.42763   1.45129
   3   21134.0    473.2    -141.14139   2.43138  -0.03898   0.13690
   4   22553.0    443.4      9.97664  -4.18338  -0.61252  -3.19758
   5   22881.2    437.0     -8.70095  -0.05731  -0.10819  -0.34339
   6   24072.0    415.4    -13.77411  -3.80618   2.49305   1.54973
   7   26678.7    374.8      1.98420   6.69725  -1.48442   1.39992
   8   27335.7    365.8    -30.87469  -0.87928  -1.49608  -2.36146
   9   27404.1    364.9    159.58378  -1.99091   1.35105  -0.08560
  10   27802.4    359.7     98.65135  -2.34396   1.14648  -0.94899
  11   28124.1    355.6      7.49265   0.80892  -1.20858  -0.67941
  12   29485.7    339.1     -4.47915   0.65260  -0.49346  -0.07335
  13   29578.1    338.1    -38.96831   0.37927  -0.42719  -1.31621
  14   30004.6    333.3     -8.59068  -1.74380  -0.60250  -1.21914
  15   30712.5    325.6     -2.46343  -0.03335   0.08553   0.18156
  16   30951.6    323.1     21.80323   1.51218  -1.66425  -3.46066
  17   31133.8    321.2    -232.24621   4.06421  -0.30092   0.89778
  18   31508.6    317.4     75.97284  -1.27227   0.48642  -0.46676
  19   31578.2    316.7     -1.26991   0.44336  -0.03890  -0.20207
  20   31999.4    312.5     10.38319   0.00111  -1.40370  -2.24908
  21   32295.4    309.6    -203.75895   2.72087   0.86448   0.71120
  22   32766.8    305.2    640.28085   2.53242  -3.14059   0.31411
  23   32926.2    303.7    -304.44947  -1.63327   0.13603   1.08206
  24   33349.0    299.9    103.07183   1.55398  -1.08018   0.79312
  25   33801.7    295.8    -61.89926   0.52498  -0.06489   1.42867
  26   34422.6    290.5    -52.13805  -1.79412   0.72746   1.14600
  27   34543.8    289.5    -96.32880   2.83013  -1.44959  -0.87793
  28   35105.7    284.9    -275.84851  -0.70329  -4.61927   1.39083
  29   35691.1    280.2    -51.87729   2.79868  -0.31103   3.60114
  30   35895.3    278.6    -192.44536   2.91291  -3.03079  -4.80697
  31   36325.1    275.3    687.22709  -3.18035   3.09908  -0.41969
  32   36433.6    274.5     65.47695   1.86045  -0.26706  -0.97942
  33   36782.4    271.9    -38.62870  -1.65385   1.61469   2.75766
  34   36999.0    270.3    -70.49589   0.08187  -0.61193   0.67675
  35   37123.8    269.4      4.86399   0.62340   0.29773   1.43206
  36   37387.6    267.5    -205.92187   5.23223  -2.45902  -1.90866
  37   37492.0    266.7    107.92703  -0.22675   1.35757   0.99171
  38   37612.3    265.9     39.44101  -1.21408  -1.45434   0.28821
  39   38226.8    261.6    129.38576  -1.56213   1.19236  -0.66605
  40   38413.9    260.3    -471.26859  -2.85989  -0.51858  -0.00019
  41   38871.8    257.3    -61.75952  -5.09357   0.13184  -2.37016
  42   38996.1    256.4    -62.78494  -3.40561   1.91323   0.89040
  43   39289.0    254.5    160.26629   5.69643   0.10610   4.47099
  44   39466.4    253.4     97.08935  -1.23347  -0.40037  -2.69981
  45   39560.6    252.8     81.51818  -0.83651   1.79232   3.83150
  46   40002.0    250.0    -143.77489   2.64839  -0.79930  -0.79416
  47   40102.9    249.4    162.49970  -1.64993   0.89559  -1.62142
  48   40243.5    248.5     46.61680  -1.67665   1.76855   0.09259

sTD-DFT done

Total run time:        5.693 sec

           *** ORCA-CIS/TD-DFT FINISHED WITHOUT ERROR ***

-------------------------   --------------------
FINAL SINGLE POINT ENERGY     -6088.118305908461
-------------------------   --------------------


                            ***************************************
                            *     ORCA property calculations      *
                            ***************************************

                                    ---------------------
                                    Active property flags
                                    ---------------------
   (+) Dipole Moment


------------------------------------------------------------------------------
                       ORCA ELECTRIC PROPERTIES CALCULATION
------------------------------------------------------------------------------

Dipole Moment Calculation                       ... on
Quadrupole Moment Calculation                   ... off
Polarizability Calculation                      ... off
GBWName                                         ... xtbopt.gbw
Electron density file                           ... xtbopt.scfp
The origin for moment calculation is the CENTER OF MASS  = (-14.462716, -32.268651  9.547109)

-------------
DIPOLE MOMENT
-------------
                                X             Y             Z
Electronic contribution:      9.44783       6.88391     -19.72741
Nuclear contribution   :     -9.03986      -5.00468      24.74539
                        -----------------------------------------
Total Dipole Moment    :      0.40797       1.87922       5.01798
                        -----------------------------------------
Magnitude (a.u.)       :      5.37383
Magnitude (Debye)      :     13.65918



--------------------
Rotational spectrum 
--------------------
 
Rotational constants in cm-1:     0.002141     0.000072     0.000072 
Rotational constants in MHz :    64.194128     2.170814     2.147933 

 Dipole components along the rotational axes: 
x,y,z [a.u.] :    -2.023832     3.582801     3.456249 
x,y,z [Debye]:    -5.144172     9.106756     8.785086 

 

Timings for individual modules:

Sum of individual times         ...      829.200 sec (=  13.820 min)
GTO integral calculation        ...        3.618 sec (=   0.060 min)   0.4 %
SCF iterations                  ...      819.094 sec (=  13.652 min)  98.8 %
CIS module                      ...        6.488 sec (=   0.108 min)   0.8 %
                             ****ORCA TERMINATED NORMALLY****
TOTAL RUN TIME: 0 days 0 hours 13 minutes 50 seconds 329 msec
