
                                 *****************
                                 * O   R   C   A *
                                 *****************

           --- An Ab Initio, DFT and Semiempirical electronic structure package ---

                  #######################################################
                  #                        -***-                        #
                  #          Department of theory and spectroscopy      #
                  #               Directorship: Frank Neese             #
                  #        Max Planck Institute fuer Kohlenforschung    #
                  #                Kaiser Wilhelm Platz 1               #
                  #                 D-45470 Muelheim/Ruhr               #
                  #                      Germany                        #
                  #                                                     #
                  #                  All rights reserved                #
                  #                        -***-                        #
                  #######################################################


                         Program Version 4.2.0 -  RELEASE  -


 With contributions from (in alphabetic order):
   Daniel Aravena         : Magnetic Suceptibility
   Michael Atanasov       : Ab Initio Ligand Field Theory (pilot matlab implementation)
   Alexander A. Auer      : GIAO ZORA, VPT2
   Ute Becker             : Parallelization
   Giovanni Bistoni       : ED, misc. LED, open-shell LED, HFLED
   Martin Brehm           : Molecular dynamics
   Dmytro Bykov           : SCF Hessian
   Vijay G. Chilkuri      : MRCI spin determinant printing, contributions to CSF-ICE
   Dipayan Datta          : RHF DLPNO-CCSD density
   Achintya Kumar Dutta   : EOM-CC, STEOM-CC
   Dmitry Ganyushin       : Spin-Orbit,Spin-Spin,Magnetic field MRCI
   Miquel Garcia          : C-PCM Hessian, Gaussian charge scheme
   Yang Guo               : DLPNO-NEVPT2, CIM, IAO-localization
   Andreas Hansen         : Spin unrestricted coupled pair/coupled cluster methods
   Benjamin Helmich-Paris : CASSCF linear response (MC-RPA)
   Lee Huntington         : MR-EOM, pCC
   Robert Izsak           : Overlap fitted RIJCOSX, COSX-SCS-MP3, EOM
   Christian Kollmar      : KDIIS, OOCD, Brueckner-CCSD(T), CCSD density
   Simone Kossmann        : Meta GGA functionals, TD-DFT gradient, OOMP2, MP2 Hessian
   Martin Krupicka        : AUTO-CI
   Lucas Lang             : DCDCAS
   Dagmar Lenk            : GEPOL surface, SMD
   Dimitrios Liakos       : Extrapolation schemes; Compound Job, initial MDCI parallelization
   Dimitrios Manganas     : Further ROCIS development; embedding schemes
   Dimitrios Pantazis     : SARC Basis sets
   Taras Petrenko         : DFT Hessian,TD-DFT gradient, ASA, ECA, R-Raman, ABS, FL, XAS/XES, NRVS
   Peter Pinski           : DLPNO-MP2, DLPNO-MP2 Gradient
   Christoph Reimann      : Effective Core Potentials
   Marius Retegan         : Local ZFS, SOC
   Christoph Riplinger    : Optimizer, TS searches, QM/MM, DLPNO-CCSD(T), (RO)-DLPNO pert. Triples
   Tobias Risthaus        : Range-separated hybrids, TD-DFT gradient, RPA, STAB
   Michael Roemelt        : Original ROCIS implementation
   Masaaki Saitow         : Open-shell DLPNO-CCSD energy and density
   Barbara Sandhoefer     : DKH picture change effects
   Avijit Sen             : IP-ROCIS
   Kantharuban Sivalingam : CASSCF convergence, NEVPT2, FIC-MRCI
   Bernardo de Souza      : ESD, SOC TD-DFT
   Georgi Stoychev        : AutoAux, RI-MP2 NMR
   Willem Van den Heuvel  : Paramagnetic NMR
   Boris Wezisla          : Elementary symmetry handling
   Frank Wennmohs         : Technical directorship


 We gratefully acknowledge several colleagues who have allowed us to
 interface, adapt or use parts of their codes:
   Stefan Grimme, W. Hujo, H. Kruse,             : VdW corrections, initial TS optimization,
                  C. Bannwarth                     DFT functionals, gCP, sTDA/sTD-DF
   Ed Valeev, F. Pavosevic, A. Kumar             : LibInt (2-el integral package), F12 methods
   Garnet Chan, S. Sharma, J. Yang, R. Olivares  : DMRG
   Ulf Ekstrom                                   : XCFun DFT Library
   Mihaly Kallay                                 : mrcc  (arbitrary order and MRCC methods)
   Andreas Klamt, Michael Diedenhofen            : otool_cosmo (COSMO solvation model)
   Jiri Pittner, Ondrej Demel                    : Mk-CCSD
   Frank Weinhold                                : gennbo (NPA and NBO analysis)
   Christopher J. Cramer and Donald G. Truhlar   : smd solvation model
   Lars Goerigk                                  : TD-DFT with DH, B97 family of functionals
   V. Asgeirsson, H. Jonsson                     : NEB implementation
   FAccTs GmbH                                   : IRC, NEB, NEB-TS, Multilevel, MM, QM/MM, CI optimization
   S Lehtola, MJT Oliveira, MAL Marques          : LibXC Library


 Your calculation uses the libint2 library for the computation of 2-el integrals
 For citations please refer to: http://libint.valeyev.net

 Your ORCA version has been built with support for libXC version: 4.2.3
 For citations please refer to: https://tddft.org/programs/libxc/

 This ORCA versions uses:
   CBLAS   interface :  Fast vector & matrix operations
   LAPACKE interface :  Fast linear algebra routines
   SCALAPACK package :  Parallel linear algebra routines


XCFun DFT library Copyright 2009-2010 Ulf Ekstrom and contributors.
See http://admol.org/xcfun for more information. This is free soft-
ware; see the source code for copying conditions. There is ABSOLUTELY
NO WARRANTY; not even for MERCHANTABILITY or FITNESS FOR A PARTICULAR
PURPOSE. For details see the documentation. Scientific users of this 
library should cite U. Ekstrom, L. Visscher, R. Bast, A. J. Thorvald-
sen and K. Ruud; J.Chem.Theor.Comp. 2010, DOI: 10.1021/ct100117s
XCFun Version 0.99 
----- Orbital basis set information -----
Your calculation utilizes the basis: def2-SVP
   F. Weigend and R. Ahlrichs, Phys. Chem. Chem. Phys. 7, 3297 (2005).

----- AuxJ basis set information -----
Your calculation utilizes the auxiliary basis: def2/J
   F. Weigend, Phys. Chem. Chem. Phys. 8, 1057 (2006).

================================================================================
                                        WARNINGS
                       Please study these warnings very carefully!
================================================================================

INFO   : Checking CIS options ...

WARNING: CIS/ROCIS methods need fully converged wavefunctions
  ===> : Setting SCFConvForced true
         You can overwrite this default with %scf ConvForced false 


INFO   : the flag for use of LIBINT has been found!

================================================================================
                                       INPUT FILE
================================================================================
NAME = xtbopt.inp
|  1> # ORCA input file
|  2> # SCF done       -147.653094286623          0.000997255264
|  3> ! CAM-B3LYP def2-SVP def2/J RIJCOSX Grid4 TightSCF
|  4> %maxcore 5000
|  5> %tddft
|  6>     Mode sTDDFT
|  7>     Ethresh 5.0
|  8>     maxcore 5000
|  9> end
| 10> 
| 11> %pal
| 12>   nprocs 6
| 13>   end
| 14> * xyz 0 1
| 15>    C       -9.42636        -2.66121        -1.46309
| 16>    C       -8.94859        -2.72561        -2.74510
| 17>    C       -9.16582        -3.81610        -3.61431
| 18>    N       -9.31352        -4.67088        -4.36534
| 19>    C       -8.14864        -1.74297        -3.36781
| 20>    N       -7.47884        -1.00312        -3.93474
| 21>    C      -10.16873        -3.71277        -0.78010
| 22>    C      -10.36075        -3.33093         0.57049
| 23>    C      -11.03112        -4.11880         1.47493
| 24>    C      -11.53471        -5.34400         1.02670
| 25>    C      -11.33889        -5.71733        -0.32518
| 26>    C      -10.66238        -4.92009        -1.23979
| 27>    S      -12.04679        -7.26555        -0.66947
| 28>    C      -12.58953        -7.38953         0.98304
| 29>    C      -12.25776        -6.32716         1.75520
| 30>   Br      -13.54176        -8.90818         1.53288
| 31>    C       -9.76284        -2.00182         0.79893
| 32>    O       -9.79411        -1.36718         1.83131
| 33>    C       -9.21339        -1.58132        -0.51249
| 34>    C       -8.74885        -0.33688        -0.81954
| 35>    C       -8.40580         0.71104         0.06676
| 36>    S       -8.28491         2.34339        -0.63237
| 37>    C       -7.73236         3.09218         0.86705
| 38>    C       -7.64618         2.08909         1.81047
| 39>    C       -8.01893         0.79578         1.37388
| 40>    C       -7.70283         0.29383         2.76358
| 41>    N       -7.46476         1.70474         3.12146
| 42>    C       -7.56422         4.49416         0.95621
| 43>    S       -8.37366         5.53635        -0.16544
| 44>    C       -7.84210         6.91972         0.72867
| 45>    N       -8.22499         8.19451         0.28822
| 46>    O       -7.85991         9.15102         0.94577
| 47>    O       -8.90798         8.24655        -0.71846
| 48>    C       -7.07688         6.59966         1.81968
| 49>    C       -6.89705         5.21362         1.95660
| 50>    C       -6.05737         4.65344         2.98825
| 51>    S       -4.81791         3.50895         2.59194
| 52>    C       -4.18454         3.64497         4.20003
| 53>    N       -3.07729         2.85152         4.54405
| 54>    O       -2.60999         2.98671         5.65726
| 55>    O       -2.67646         2.07497         3.69583
| 56>    C       -4.88527         4.51674         4.98889
| 57>    C       -5.98709         5.08457         4.31370
| 58>    C       -6.93877         5.94973         4.96192
| 59>    C       -8.28273         5.94369         4.76543
| 60>    C       -9.23168         6.81976         5.37818
| 61>    C      -10.51931         6.58766         5.02997
| 62>    C      -10.68974         5.50534         4.12522
| 63>    S       -9.13542         4.77731         3.75853
| 64>    C      -11.83553         5.03867         3.53852
| 65>    C      -13.16779         5.51746         3.71335
| 66>    C      -14.09193         4.85820         2.98497
| 67>    C      -13.56438         3.79674         2.17193
| 68>    S      -11.80972         3.70478         2.40158
| 69>    C      -14.23950         2.97786         1.35680
| 70>    H      -11.16399        -3.79891         2.49650
| 71>    H      -10.54553        -5.24582        -2.25971
| 72>    H      -12.51266        -6.23926         2.79547
| 73>    H       -8.63046        -0.08292        -1.86580
| 74>    H       -6.82191        -0.34566         2.82049
| 75>    H       -8.54190        -0.15371         3.29211
| 76>    H       -6.76850         2.04292         3.76431
| 77>    H       -6.65208         7.33772         2.47553
| 78>    H       -4.63202         4.71099         6.01548
| 79>    H       -6.54415         6.60994         5.72187
| 80>    H       -8.91020         7.60195         6.04264
| 81>    H      -11.35606         7.16153         5.38585
| 82>    H      -13.38337         6.33720         4.37529
| 83>    H      -15.14510         5.07659         2.98172
| 84>    H      -15.30582         3.06916         1.24631
| 85>    H      -13.74484         2.21240         0.78760
| 86> *
| 87> 
| 88>                          ****END OF INPUT****
================================================================================

                       ****************************
                       * Single Point Calculation *
                       ****************************

---------------------------------
CARTESIAN COORDINATES (ANGSTROEM)
---------------------------------
  C     -9.426360   -2.661210   -1.463090
  C     -8.948590   -2.725610   -2.745100
  C     -9.165820   -3.816100   -3.614310
  N     -9.313520   -4.670880   -4.365340
  C     -8.148640   -1.742970   -3.367810
  N     -7.478840   -1.003120   -3.934740
  C    -10.168730   -3.712770   -0.780100
  C    -10.360750   -3.330930    0.570490
  C    -11.031120   -4.118800    1.474930
  C    -11.534710   -5.344000    1.026700
  C    -11.338890   -5.717330   -0.325180
  C    -10.662380   -4.920090   -1.239790
  S    -12.046790   -7.265550   -0.669470
  C    -12.589530   -7.389530    0.983040
  C    -12.257760   -6.327160    1.755200
  Br   -13.541760   -8.908180    1.532880
  C     -9.762840   -2.001820    0.798930
  O     -9.794110   -1.367180    1.831310
  C     -9.213390   -1.581320   -0.512490
  C     -8.748850   -0.336880   -0.819540
  C     -8.405800    0.711040    0.066760
  S     -8.284910    2.343390   -0.632370
  C     -7.732360    3.092180    0.867050
  C     -7.646180    2.089090    1.810470
  C     -8.018930    0.795780    1.373880
  C     -7.702830    0.293830    2.763580
  N     -7.464760    1.704740    3.121460
  C     -7.564220    4.494160    0.956210
  S     -8.373660    5.536350   -0.165440
  C     -7.842100    6.919720    0.728670
  N     -8.224990    8.194510    0.288220
  O     -7.859910    9.151020    0.945770
  O     -8.907980    8.246550   -0.718460
  C     -7.076880    6.599660    1.819680
  C     -6.897050    5.213620    1.956600
  C     -6.057370    4.653440    2.988250
  S     -4.817910    3.508950    2.591940
  C     -4.184540    3.644970    4.200030
  N     -3.077290    2.851520    4.544050
  O     -2.609990    2.986710    5.657260
  O     -2.676460    2.074970    3.695830
  C     -4.885270    4.516740    4.988890
  C     -5.987090    5.084570    4.313700
  C     -6.938770    5.949730    4.961920
  C     -8.282730    5.943690    4.765430
  C     -9.231680    6.819760    5.378180
  C    -10.519310    6.587660    5.029970
  C    -10.689740    5.505340    4.125220
  S     -9.135420    4.777310    3.758530
  C    -11.835530    5.038670    3.538520
  C    -13.167790    5.517460    3.713350
  C    -14.091930    4.858200    2.984970
  C    -13.564380    3.796740    2.171930
  S    -11.809720    3.704780    2.401580
  C    -14.239500    2.977860    1.356800
  H    -11.163990   -3.798910    2.496500
  H    -10.545530   -5.245820   -2.259710
  H    -12.512660   -6.239260    2.795470
  H     -8.630460   -0.082920   -1.865800
  H     -6.821910   -0.345660    2.820490
  H     -8.541900   -0.153710    3.292110
  H     -6.768500    2.042920    3.764310
  H     -6.652080    7.337720    2.475530
  H     -4.632020    4.710990    6.015480
  H     -6.544150    6.609940    5.721870
  H     -8.910200    7.601950    6.042640
  H    -11.356060    7.161530    5.385850
  H    -13.383370    6.337200    4.375290
  H    -15.145100    5.076590    2.981720
  H    -15.305820    3.069160    1.246310
  H    -13.744840    2.212400    0.787600

----------------------------
CARTESIAN COORDINATES (A.U.)
----------------------------
  NO LB      ZA    FRAG     MASS         X           Y           Z
   0 C     6.0000    0    12.011  -17.813239   -5.028958   -2.764839
   1 C     6.0000    0    12.011  -16.910384   -5.150656   -5.187487
   2 C     6.0000    0    12.011  -17.320890   -7.211384   -6.830056
   3 N     7.0000    0    14.007  -17.600002   -8.826684   -8.249297
   4 C     6.0000    0    12.011  -15.398698   -3.293736   -6.364239
   5 N     7.0000    0    14.007  -14.132959   -1.895622   -7.435581
   6 C     6.0000    0    12.011  -19.216115   -7.016118   -1.474175
   7 C     6.0000    0    12.011  -19.578980   -6.294545    1.078070
   8 C     6.0000    0    12.011  -20.845796   -7.783404    2.787214
   9 C     6.0000    0    12.011  -21.797443  -10.098696    1.940182
  10 C     6.0000    0    12.011  -21.427397  -10.804188   -0.614501
  11 C     6.0000    0    12.011  -20.148978   -9.297623   -2.342864
  12 S    16.0000    0    32.060  -22.765134  -13.729900   -1.265115
  13 C     6.0000    0    12.011  -23.790764  -13.964188    1.857676
  14 C     6.0000    0    12.011  -23.163809  -11.956600    3.316847
  15 Br   35.0000    0    79.900  -25.590218  -16.834021    2.896723
  16 C     6.0000    0    12.011  -18.449094   -3.782892    1.509759
  17 O     8.0000    0    15.999  -18.508186   -2.583596    3.460674
  18 C     6.0000    0    12.011  -17.410784   -2.988262   -0.968466
  19 C     6.0000    0    12.011  -16.532930   -0.636611   -1.548706
  20 C     6.0000    0    12.011  -15.884660    1.343671    0.126158
  21 S    16.0000    0    32.060  -15.656211    4.428365   -1.195006
  22 C     6.0000    0    12.011  -14.612043    5.843373    1.638487
  23 C     6.0000    0    12.011  -14.449186    3.947808    3.421292
  24 C     6.0000    0    12.011  -15.153582    1.503806    2.596257
  25 C     6.0000    0    12.011  -14.556239    0.555258    5.222409
  26 N     7.0000    0    14.007  -14.106352    3.221492    5.898705
  27 C     6.0000    0    12.011  -14.294304    8.492732    1.806975
  28 S    16.0000    0    32.060  -15.823924   10.462185   -0.312636
  29 C     6.0000    0    12.011  -14.819421   13.076376    1.376987
  30 N     7.0000    0    14.007  -15.542979   15.485380    0.544657
  31 O     8.0000    0    15.999  -14.853077   17.292922    1.787246
  32 O     8.0000    0    15.999  -16.833643   15.583721   -1.357693
  33 C     6.0000    0    12.011  -13.373365   12.471550    3.438697
  34 C     6.0000    0    12.011  -13.033536    9.852314    3.697438
  35 C     6.0000    0    12.011  -11.446770    8.793727    5.646974
  36 S    16.0000    0    32.060   -9.104530    6.630955    4.898057
  37 C     6.0000    0    12.011   -7.907635    6.887995    7.936906
  38 N     7.0000    0    14.007   -5.815235    5.388592    8.587010
  39 O     8.0000    0    15.999   -4.932166    5.644064   10.690672
  40 O     8.0000    0    15.999   -5.057776    3.921125    6.984107
  41 C     6.0000    0    12.011   -9.231822    8.535402    9.427636
  42 C     6.0000    0    12.011  -11.313960    9.608445    8.151712
  43 C     6.0000    0    12.011  -13.112375   11.243360    9.376670
  44 C     6.0000    0    12.011  -15.652091   11.231946    9.005358
  45 C     6.0000    0    12.011  -17.445347   12.887479   10.163287
  46 C     6.0000    0    12.011  -19.878615   12.448873    9.505266
  47 C     6.0000    0    12.011  -20.200681   10.403585    7.795536
  48 S    16.0000    0    32.060  -17.263442    9.027808    7.102592
  49 C     6.0000    0    12.011  -22.365910    9.521706    6.686834
  50 C     6.0000    0    12.011  -24.883517   10.426488    7.017215
  51 C     6.0000    0    12.011  -26.629888    9.180668    5.640776
  52 C     6.0000    0    12.011  -25.632963    7.174799    4.104353
  53 S    16.0000    0    32.060  -22.317137    7.001020    4.538328
  54 C     6.0000    0    12.011  -26.908755    5.627340    2.563980
  55 H     1.0000    0     1.008  -21.096884   -7.178900    4.717701
  56 H     1.0000    0     1.008  -19.928164   -9.913163   -4.270233
  57 H     1.0000    0     1.008  -23.645501  -11.790493    5.282673
  58 H     1.0000    0     1.008  -16.309206   -0.156696   -3.525851
  59 H     1.0000    0     1.008  -12.891542   -0.653203    5.329954
  60 H     1.0000    0     1.008  -16.141852   -0.290470    6.221186
  61 H     1.0000    0     1.008  -12.790611    3.860559    7.113515
  62 H     1.0000    0     1.008  -12.570609   13.866281    4.678074
  63 H     1.0000    0     1.008   -8.753249    8.902481   11.367610
  64 H     1.0000    0     1.008  -12.366651   12.490976   10.812767
  65 H     1.0000    0     1.008  -16.837838   14.365604   11.418935
  66 H     1.0000    0     1.008  -21.459843   13.533330   10.177781
  67 H     1.0000    0     1.008  -25.290904   11.975572    8.268100
  68 H     1.0000    0     1.008  -28.620091    9.593365    5.634634
  69 H     1.0000    0     1.008  -28.923808    5.799872    2.355185
  70 H     1.0000    0     1.008  -25.973983    4.180830    1.488348

--------------------------------
INTERNAL COORDINATES (ANGSTROEM)
--------------------------------
 C      0   0   0     0.000000000000     0.00000000     0.00000000
 C      1   0   0     1.369657319551     0.00000000     0.00000000
 C      2   1   0     1.411340971240   123.99383997     0.00000000
 N      3   2   1     1.147392783357   176.91568655   175.94790542
 C      2   1   3     1.411831830000   125.29318753   181.82111587
 N      5   2   1     1.147789043074   175.66339173   164.48434721
 C      1   2   3     1.457177748458   125.62615739     2.97879466
 C      7   1   2     1.416603972217   108.74801448   173.74794494
 C      8   7   1     1.374098536278   122.62326050   179.96756168
 C      9   8   7     1.398437721531   117.84343498     0.11819564
 C     10   9   8     1.416086259979   119.15465124   359.84703085
 C      7   1   2     1.382977512832   130.99840412   353.72559773
 S     11  10   9     1.736848635460   111.58502555   180.23537461
 C     13  11  10     1.743768060294    90.13642235     0.00000000
 C     14  13  11     1.354596772254   114.09219332   359.95788036
 Br    14  13  11     1.874930350973   119.57574705   179.96745512
 C      8   7   1     1.475199848766   109.60603929     0.89278719
 O     17   8   7     1.212251709382   126.37721814   177.17920614
 C      1   2   3     1.454358619117   126.55734550   178.61728392
 C     19   1   2     1.363344427392   125.48213603    14.77127921
 C     20  19   1     1.414689831341   128.14579165   186.32842458
 S     21  20  19     1.779877431595   116.72625876   197.21515561
 C     22  21  20     1.764726126910    94.39673331   184.27112279
 C     23  22  21     1.379731074123   106.98074145     0.82977992
 C     21  20  19     1.365800848916   135.57982375    23.82226734
 C     25  21  20     1.511005990226   156.75837410   355.67643702
 N     24  23  22     1.378162878255   149.47648602   189.16101022
 C     23  22  21     1.414838678295   120.74424993   185.55308048
 S     28  23  22     1.731892557926   119.99594176    20.57688215
 C     29  28  23     1.730809429891    90.16418928   173.00829227
 N     30  29  28     1.402030847984   118.72242495   180.79540146
 O     31  30  29     1.216785432605   117.58395274   178.70706861
 O     31  30  29     1.217615753881   116.85767867   359.34616011
 C     30  29  28     1.370511901481   113.33183630     0.50940787
 C     28  23  22     1.401256098149   127.61448857   193.67204517
 C     35  28  23     1.443317656408   126.01624126    10.83204407
 S     36  35  28     1.732968570921   120.59441921    48.52828090
 C     37  36  35     1.733670223947    89.84859990   169.52249691
 N     38  37  36     1.404960933763   118.08205533   178.30938363
 O     39  38  37     1.214858893123   117.68907788   177.46443743
 O     39  38  37     1.217855393633   116.67622076   356.83105766
 C     38  37  36     1.368687533881   113.42476499     0.00000000
 C     36  35  28     1.395575170960   126.03346140   218.09894541
 C     43  36  35     1.440272827071   125.43271052    14.85057047
 C     44  43  36     1.358261124858   125.87559402    36.84596464
 C     45  44  43     1.429498971633   126.30687944   181.67716472
 C     46  45  44     1.353924529285   114.58408241   181.16955883
 C     47  46  45     1.420927700413   114.10464352     0.48828225
 S     48  47  46     1.755106805696   110.04558681     0.97018473
 C     48  47  46     1.369245231140   129.25720923   182.68611173
 C     50  48  47     1.426436854754   127.92581809   358.71836070
 C     51  50  48     1.348775708411   114.18486057   179.36903379
 C     52  51  50     1.437372733740   114.51582023     0.11264838
 S     50  48  47     1.752872286221   121.66536818   178.07258700
 C     53  52  51     1.338203417160   127.68161592   179.78692500
 H      9   8   7     1.078697971584   120.89094998   180.20002951
 H     12   7   1     1.077028672692   122.68779290   359.54823895
 H     15  14  13     1.074645100905   123.90727754   180.00277600
 H     20  19   1     1.083130583679   117.95737016     7.32762158
 H     26  25  21     1.090048739553   114.32846197    67.76597364
 H     26  25  21     1.087968049807   114.96760762   297.81130782
 H     27  24  23     1.006180810044   127.23734753   314.92204613
 H     34  30  29     1.074861305518   123.09593781   179.01267392
 H     42  38  37     1.075060767166   123.01500878   179.39030034
 H     44  43  36     1.081261388842   116.22821499   212.22614520
 H     46  45  44     1.075489506271   120.80486841     2.29948447
 H     47  46  45     1.075233887952   124.29690948   180.96457355
 H     51  50  48     1.075459421643   121.23173320   359.48633321
 H     52  51  50     1.075579752273   124.97934492   180.20759586
 H     55  53  52     1.075909881217   120.70561123     0.14699390
 H     55  53  52     1.074526019787   121.75824381   179.87134030

---------------------------
INTERNAL COORDINATES (A.U.)
---------------------------
 C      0   0   0     0.000000000000     0.00000000     0.00000000
 C      1   0   0     2.588277231272     0.00000000     0.00000000
 C      2   1   0     2.667047917226   123.99383997     0.00000000
 N      3   2   1     2.168258128583   176.91568655   175.94790542
 C      2   1   3     2.667975505852   125.29318753   181.82111587
 N      5   2   1     2.169006950925   175.66339173   164.48434721
 C      1   2   3     2.753666873029   125.62615739     2.97879466
 C      7   1   2     2.676993547714   108.74801448   173.74794494
 C      8   7   1     2.596669914587   122.62326050   179.96756168
 C      9   8   7     2.642664309038   117.84343498     0.11819564
 C     10   9   8     2.676015213368   119.15465124   359.84703085
 C      7   1   2     2.613448748625   130.99840412   353.72559773
 S     11  10   9     3.282168257095   111.58502555   180.23537461
 C     13  11  10     3.295244075034    90.13642235     0.00000000
 C     14  13  11     2.559816921453   114.09219332   359.95788036
 Br    14  13  11     3.543104883516   119.57574705   179.96745512
 C      8   7   1     2.787723706970   109.60603929     0.89278719
 O     17   8   7     2.290823736110   126.37721814   177.17920614
 C      1   2   3     2.748339490639   126.55734550   178.61728392
 C     19   1   2     2.576347593978   125.48213603    14.77127921
 C     20  19   1     2.673376345678   128.14579165   186.32842458
 S     21  20  19     3.363480897661   116.72625876   197.21515561
 C     22  21  20     3.334849081236    94.39673331   184.27112279
 C     23  22  21     2.607313868553   106.98074145     0.82977992
 C     21  20  19     2.580989557929   135.57982375    23.82226734
 C     25  21  20     2.855387508242   156.75837410   355.67643702
 N     24  23  22     2.604350407839   149.47648602   189.16101022
 C     23  22  21     2.673657625657   120.74424993   185.55308048
 S     28  23  22     3.272802627857   119.99594176    20.57688215
 C     29  28  23     3.270755812503    90.16418928   173.00829227
 N     30  29  28     2.649454334000   118.72242495   180.79540146
 O     31  30  29     2.299391231369   117.58395274   178.70706861
 O     31  30  29     2.300960311184   116.85767867   359.34616011
 C     30  29  28     2.589892157078   113.33183630     0.50940787
 C     28  23  22     2.647990268989   127.61448857   193.67204517
 C     35  28  23     2.727475094865   126.01624126    10.83204407
 S     36  35  28     3.274835997734   120.59441921    48.52828090
 C     37  36  35     3.276161929794    89.84859990   169.52249691
 N     38  37  36     2.654991393670   118.08205533   178.30938363
 O     39  38  37     2.295750599361   117.68907788   177.46443743
 O     39  38  37     2.301413164684   116.67622076   356.83105766
 C     38  37  36     2.586444601946   113.42476499     0.00000000
 C     36  35  28     2.637254872415   126.03346140   218.09894541
 C     43  36  35     2.721721201293   125.43271052    14.85057047
 C     44  43  36     2.566741544333   125.87559402    36.84596464
 C     45  44  43     2.701361565109   126.30687944   181.67716472
 C     46  45  44     2.558546566347   114.58408241   181.16955883
 C     47  46  45     2.685164209882   114.10464352     0.48828225
 S     48  47  46     3.316671198547   110.04558681     0.97018473
 C     48  47  46     2.587498497033   129.25720923   182.68611173
 C     50  48  47     2.695575002817   127.92581809   358.71836070
 C     51  50  48     2.548816704983   114.18486057   179.36903379
 C     52  51  50     2.716240819135   114.51582023     0.11264838
 S     50  48  47     3.312448568697   121.66536818   178.07258700
 C     53  52  51     2.528837969911   127.68161592   179.78692500
 H      9   8   7     2.038443747511   120.89094998   180.20002951
 H     12   7   1     2.035289229768   122.68779290   359.54823895
 H     15  14  13     2.030784931871   123.90727754   180.00277600
 H     20  19   1     2.046820170427   117.95737016     7.32762158
 H     26  25  21     2.059893590380   114.32846197    67.76597364
 H     26  25  21     2.055961656591   114.96760762   297.81130782
 H     27  24  23     1.901406172189   127.23734753   314.92204613
 H     34  30  29     2.031193499378   123.09593781   179.01267392
 H     42  38  37     2.031570427267   123.01500878   179.39030034
 H     44  43  36     2.043287904094   116.22821499   212.22614520
 H     46  45  44     2.032380626759   120.80486841     2.29948447
 H     47  46  45     2.031897578140   124.29690948   180.96457355
 H     51  50  48     2.032323775050   121.23173320   359.48633321
 H     52  51  50     2.032551166987   124.97934492   180.20759586
 H     55  53  52     2.033175020280   120.70561123     0.14699390
 H     55  53  52     2.030559901170   121.75824381   179.87134030

---------------------
BASIS SET INFORMATION
---------------------
There are 6 groups of distinct atoms

 Group   1 Type C   : 7s4p1d contracted to 3s2p1d pattern {511/31/1}
 Group   2 Type N   : 7s4p1d contracted to 3s2p1d pattern {511/31/1}
 Group   3 Type S   : 10s7p1d contracted to 4s3p1d pattern {5311/511/1}
 Group   4 Type Br  : 14s10p6d contracted to 5s4p3d pattern {63311/5311/411}
 Group   5 Type O   : 7s4p1d contracted to 3s2p1d pattern {511/31/1}
 Group   6 Type H   : 4s1p contracted to 2s1p pattern {31/1}

Atom   0C    basis set group =>   1
Atom   1C    basis set group =>   1
Atom   2C    basis set group =>   1
Atom   3N    basis set group =>   2
Atom   4C    basis set group =>   1
Atom   5N    basis set group =>   2
Atom   6C    basis set group =>   1
Atom   7C    basis set group =>   1
Atom   8C    basis set group =>   1
Atom   9C    basis set group =>   1
Atom  10C    basis set group =>   1
Atom  11C    basis set group =>   1
Atom  12S    basis set group =>   3
Atom  13C    basis set group =>   1
Atom  14C    basis set group =>   1
Atom  15Br   basis set group =>   4
Atom  16C    basis set group =>   1
Atom  17O    basis set group =>   5
Atom  18C    basis set group =>   1
Atom  19C    basis set group =>   1
Atom  20C    basis set group =>   1
Atom  21S    basis set group =>   3
Atom  22C    basis set group =>   1
Atom  23C    basis set group =>   1
Atom  24C    basis set group =>   1
Atom  25C    basis set group =>   1
Atom  26N    basis set group =>   2
Atom  27C    basis set group =>   1
Atom  28S    basis set group =>   3
Atom  29C    basis set group =>   1
Atom  30N    basis set group =>   2
Atom  31O    basis set group =>   5
Atom  32O    basis set group =>   5
Atom  33C    basis set group =>   1
Atom  34C    basis set group =>   1
Atom  35C    basis set group =>   1
Atom  36S    basis set group =>   3
Atom  37C    basis set group =>   1
Atom  38N    basis set group =>   2
Atom  39O    basis set group =>   5
Atom  40O    basis set group =>   5
Atom  41C    basis set group =>   1
Atom  42C    basis set group =>   1
Atom  43C    basis set group =>   1
Atom  44C    basis set group =>   1
Atom  45C    basis set group =>   1
Atom  46C    basis set group =>   1
Atom  47C    basis set group =>   1
Atom  48S    basis set group =>   3
Atom  49C    basis set group =>   1
Atom  50C    basis set group =>   1
Atom  51C    basis set group =>   1
Atom  52C    basis set group =>   1
Atom  53S    basis set group =>   3
Atom  54C    basis set group =>   1
Atom  55H    basis set group =>   6
Atom  56H    basis set group =>   6
Atom  57H    basis set group =>   6
Atom  58H    basis set group =>   6
Atom  59H    basis set group =>   6
Atom  60H    basis set group =>   6
Atom  61H    basis set group =>   6
Atom  62H    basis set group =>   6
Atom  63H    basis set group =>   6
Atom  64H    basis set group =>   6
Atom  65H    basis set group =>   6
Atom  66H    basis set group =>   6
Atom  67H    basis set group =>   6
Atom  68H    basis set group =>   6
Atom  69H    basis set group =>   6
Atom  70H    basis set group =>   6
---------------------------------
AUXILIARY/J BASIS SET INFORMATION
---------------------------------
There are 6 groups of distinct atoms

 Group   1 Type C   : 12s5p4d2f1g contracted to 6s4p3d1f1g pattern {711111/2111/211/2/1}
 Group   2 Type N   : 12s5p4d2f1g contracted to 6s4p3d1f1g pattern {711111/2111/211/2/1}
 Group   3 Type S   : 14s5p5d2f1g contracted to 8s4p3d1f1g pattern {71111111/2111/311/2/1}
 Group   4 Type Br  : 19s5p5d3f1g contracted to 8s4p3d2f1g pattern {121111111/2111/311/21/1}
 Group   5 Type O   : 12s5p4d2f1g contracted to 6s4p3d1f1g pattern {711111/2111/211/2/1}
 Group   6 Type H   : 5s2p1d contracted to 3s1p1d pattern {311/2/1}

Atom   0C    basis set group =>   1
Atom   1C    basis set group =>   1
Atom   2C    basis set group =>   1
Atom   3N    basis set group =>   2
Atom   4C    basis set group =>   1
Atom   5N    basis set group =>   2
Atom   6C    basis set group =>   1
Atom   7C    basis set group =>   1
Atom   8C    basis set group =>   1
Atom   9C    basis set group =>   1
Atom  10C    basis set group =>   1
Atom  11C    basis set group =>   1
Atom  12S    basis set group =>   3
Atom  13C    basis set group =>   1
Atom  14C    basis set group =>   1
Atom  15Br   basis set group =>   4
Atom  16C    basis set group =>   1
Atom  17O    basis set group =>   5
Atom  18C    basis set group =>   1
Atom  19C    basis set group =>   1
Atom  20C    basis set group =>   1
Atom  21S    basis set group =>   3
Atom  22C    basis set group =>   1
Atom  23C    basis set group =>   1
Atom  24C    basis set group =>   1
Atom  25C    basis set group =>   1
Atom  26N    basis set group =>   2
Atom  27C    basis set group =>   1
Atom  28S    basis set group =>   3
Atom  29C    basis set group =>   1
Atom  30N    basis set group =>   2
Atom  31O    basis set group =>   5
Atom  32O    basis set group =>   5
Atom  33C    basis set group =>   1
Atom  34C    basis set group =>   1
Atom  35C    basis set group =>   1
Atom  36S    basis set group =>   3
Atom  37C    basis set group =>   1
Atom  38N    basis set group =>   2
Atom  39O    basis set group =>   5
Atom  40O    basis set group =>   5
Atom  41C    basis set group =>   1
Atom  42C    basis set group =>   1
Atom  43C    basis set group =>   1
Atom  44C    basis set group =>   1
Atom  45C    basis set group =>   1
Atom  46C    basis set group =>   1
Atom  47C    basis set group =>   1
Atom  48S    basis set group =>   3
Atom  49C    basis set group =>   1
Atom  50C    basis set group =>   1
Atom  51C    basis set group =>   1
Atom  52C    basis set group =>   1
Atom  53S    basis set group =>   3
Atom  54C    basis set group =>   1
Atom  55H    basis set group =>   6
Atom  56H    basis set group =>   6
Atom  57H    basis set group =>   6
Atom  58H    basis set group =>   6
Atom  59H    basis set group =>   6
Atom  60H    basis set group =>   6
Atom  61H    basis set group =>   6
Atom  62H    basis set group =>   6
Atom  63H    basis set group =>   6
Atom  64H    basis set group =>   6
Atom  65H    basis set group =>   6
Atom  66H    basis set group =>   6
Atom  67H    basis set group =>   6
Atom  68H    basis set group =>   6
Atom  69H    basis set group =>   6
Atom  70H    basis set group =>   6


           ************************************************************
           *        Program running with 6 parallel MPI-processes     *
           *              working on a common directory               *
           ************************************************************
------------------------------------------------------------------------------
                           ORCA GTO INTEGRAL CALCULATION
                           -- RI-GTO INTEGRALS CHOSEN --
------------------------------------------------------------------------------

                         BASIS SET STATISTICS AND STARTUP INFO

Gaussian basis set:
 # of primitive gaussian shells          ...  794
 # of primitive gaussian functions       ... 1554
 # of contracted shells                  ...  396
 # of contracted basis functions         ...  892
 Highest angular momentum                ...    2
 Maximum contraction depth               ...    6
Auxiliary gaussian basis set:
 # of primitive gaussian shells          ... 1475
 # of primitive gaussian functions       ... 4167
 # of contracted shells                  ...  920
 # of contracted aux-basis functions     ... 2892
 Highest angular momentum                ...    4
 Maximum contraction depth               ...   12
Ratio of auxiliary to basis functions    ...  3.24
Integral package used                  ... LIBINT
 One Electron integrals                  ... done
 Ordering auxiliary basis shells         ... done
 Integral threshhold             Thresh  ...  2.500e-11
 Primitive cut-off               TCut    ...  2.500e-12
 Pre-screening matrix                    ... done
 Shell pair data                         ... 
 Ordering of the shell pairs             ... done (   0.005 sec) 34269 of 78606 pairs
 Determination of significant pairs      ... done (   0.000 sec)
 Creation of shell pair data             ... done (   0.004 sec)
 Storage of shell pair data              ... done (   0.011 sec)
 Shell pair data done in (   0.021 sec)
 Computing two index integrals           ... done
 Cholesky decomposition of the V-matrix  ... done


Timings:
 Total evaluation time                   ...   1.363 sec (  0.023 min)
 One electron matrix time                ...   0.301 sec (  0.005 min) = 22.1%
 Schwartz matrix evaluation time         ...   0.456 sec (  0.008 min) = 33.5%
 Two index repulsion integral time       ...   0.240 sec (  0.004 min) = 17.6%
 Cholesky decomposition of V             ...   0.331 sec (  0.006 min) = 24.2%
 Three index repulsion integral time     ...   0.000 sec (  0.000 min) =  0.0%



           ************************************************************
           *        Program running with 6 parallel MPI-processes     *
           *              working on a common directory               *
           ************************************************************
-------------------------------------------------------------------------------
                                 ORCA SCF
-------------------------------------------------------------------------------

------------
SCF SETTINGS
------------
Hamiltonian:
 Density Functional     Method          .... DFT(GTOs)
 Exchange Functional    Exchange        .... WB88
 Correlation Functional Correlation     .... LYP
 LDA part of GGA corr.  LDAOpt          .... VWN-5
 Gradients option       PostSCFGGA      .... off
 Hybrid DFT is turned on
   Fraction HF Exchange ScalHFX         ....  0.190000
   Scaling of DF-GGA-X  ScalDFX         ....  0.350000
   Scaling of DF-GGA-C  ScalDFC         ....  0.810000
   Scaling of DF-LDA-C  ScalLDAC        ....  1.000000
   Perturbative correction              ....  0.000000
   Density functional embedding theory  .... OFF
 Long-range corrected/Screened/Range-Separated Hybrid DFT is turned on
   Amount of maximum screened exact exchange              ....  0.460000
   Range separation parameter mu (erf(mu*r12)/r12)        ....  0.330000
 RI-approximation to the Coulomb term is turned on
   Number of auxiliary basis functions  .... 2892
   RIJ-COSX (HFX calculated with COS-X)).... on


General Settings:
 Integral files         IntName         .... xtbopt
 Hartree-Fock type      HFTyp           .... RHF
 Total Charge           Charge          ....    0
 Multiplicity           Mult            ....    1
 Number of Electrons    NEL             ....  450
 Basis Dimension        Dim             ....  892
 Nuclear Repulsion      ENuc            ....   9061.2940524741 Eh

Convergence Acceleration:
 DIIS                   CNVDIIS         .... on
   Start iteration      DIISMaxIt       ....    12
   Startup error        DIISStart       ....  0.200000
   # of expansion vecs  DIISMaxEq       ....     5
   Bias factor          DIISBfac        ....   1.050
   Max. coefficient     DIISMaxC        ....  10.000
 Newton-Raphson         CNVNR           .... off
 SOSCF                  CNVSOSCF        .... on
   Start iteration      SOSCFMaxIt      ....   150
   Startup grad/error   SOSCFStart      ....  0.003300
 Level Shifting         CNVShift        .... on
   Level shift para.    LevelShift      ....    0.2500
   Turn off err/grad.   ShiftErr        ....    0.0010
 Zerner damping         CNVZerner       .... off
 Static damping         CNVDamp         .... on
   Fraction old density DampFac         ....    0.7000
   Max. Damping (<1)    DampMax         ....    0.9800
   Min. Damping (>=0)   DampMin         ....    0.0000
   Turn off err/grad.   DampErr         ....    0.1000
 Fernandez-Rico         CNVRico         .... off

SCF Procedure:
 Maximum # iterations   MaxIter         ....   125
 SCF integral mode      SCFMode         .... Direct
   Integral package                     .... LIBINT
 Reset frequency        DirectResetFreq ....    20
 Integral Threshold     Thresh          ....  2.500e-11 Eh
 Primitive CutOff       TCut            ....  2.500e-12 Eh

Convergence Tolerance:
 Convergence Check Mode ConvCheckMode   .... Total+1el-Energy
 Convergence forced     ConvForced      .... 1
 Energy Change          TolE            ....  1.000e-08 Eh
 1-El. energy change                    ....  1.000e-05 Eh
 Orbital Gradient       TolG            ....  1.000e-05
 Orbital Rotation angle TolX            ....  1.000e-05
 DIIS Error             TolErr          ....  5.000e-07


Diagonalization of the overlap matrix:
Smallest eigenvalue                        ... 2.087e-04
Time for diagonalization                   ...    0.125 sec
Threshold for overlap eigenvalues          ... 1.000e-08
Number of eigenvalues below threshold      ... 0
Time for construction of square roots      ...    0.077 sec
Total time needed                          ...    0.204 sec

-------------------
DFT GRID GENERATION
-------------------

General Integration Accuracy     IntAcc      ...  4.670
Radial Grid Type                 RadialGrid  ... Gauss-Chebyshev
Angular Grid (max. acc.)         AngularGrid ... Lebedev-302
Angular grid pruning method      GridPruning ... 3 (G Style)
Weight generation scheme         WeightScheme... Becke
Basis function cutoff            BFCut       ...    1.0000e-11
Integration weight cutoff        WCut        ...    1.0000e-14
Grids for H and He will be reduced by one unit

# of grid points (after initial pruning)     ... 403172 (   0.0 sec)
# of grid points (after weights+screening)   ... 347754 (   2.0 sec)
nearest neighbour list constructed           ...    0.0 sec
Grid point re-assignment to atoms done       ...    0.1 sec
Grid point division into batches done        ...    1.1 sec
Reduced shell lists constructed in    1.9 sec

Total number of grid points                  ...   347754
Total number of batches                      ...     5467
Average number of points per batch           ...       63
Average number of grid points per atom       ...     4898
Average number of shells per batch           ...    82.28 (20.78%)
Average number of basis functions per batch  ...   177.87 (19.94%)
Average number of large shells per batch     ...    52.51 (63.82%)
Average number of large basis fcns per batch ...   115.38 (64.87%)
Maximum spatial batch extension              ...  21.11, 15.20, 16.61 au
Average spatial batch extension              ...   0.39,  0.36,  0.34 au

Time for grid setup =    4.101 sec

------------------------------
INITIAL GUESS: MODEL POTENTIAL
------------------------------
Loading Hartree-Fock densities                     ... done
Calculating cut-offs                               ... done
Setting up the integral package                    ... done
Initializing the effective Hamiltonian             ... done
Starting the Coulomb interaction                   ... done (   0.7 sec)
Reading the grid                                   ... done
Mapping shells                                     ... done
Starting the XC term evaluation                    ... done (   0.9 sec)
  promolecular density results
     # of electrons  =    449.991431919
     EX              =   -511.477973033
     EC              =    -16.389435216
     EX+EC           =   -527.867408250
Transforming the Hamiltonian                       ... done (   0.1 sec)
Diagonalizing the Hamiltonian                      ... done (   0.1 sec)
Back transforming the eigenvectors                 ... done (   0.0 sec)
Now organizing SCF variables                       ... done
                      ------------------
                      INITIAL GUESS DONE (   6.1 sec)
                      ------------------
--------------------
COSX GRID GENERATION
--------------------

General Integration Accuracy     IntAcc      ...  3.340
Radial Grid Type                 RadialGrid  ... Gauss-Chebyshev
Angular Grid (max. acc.)         AngularGrid ... Lebedev-50
Angular grid pruning method      GridPruning ... 3 (G Style)
Weight generation scheme         WeightScheme... Becke
Basis function cutoff            BFCut       ...    1.0000e-11
Integration weight cutoff        WCut        ...    1.0000e-14
Grids for H and He will be reduced by one unit

# of grid points (after initial pruning)     ...  38168 (   0.0 sec)
# of grid points (after weights+screening)   ...  34404 (   0.2 sec)
nearest neighbour list constructed           ...    0.0 sec
Grid point re-assignment to atoms done       ...    0.0 sec
Grid point division into batches done        ...    0.0 sec
Reduced shell lists constructed in    0.1 sec

Total number of grid points                  ...    34404
Total number of batches                      ...      572
Average number of points per batch           ...       60
Average number of grid points per atom       ...      485
Average number of shells per batch           ...   100.18 (25.30%)
Average number of basis functions per batch  ...   218.07 (24.45%)
Average number of large shells per batch     ...    63.55 (63.44%)
Average number of large basis fcns per batch ...   142.23 (65.22%)
Maximum spatial batch extension              ...  27.89, 16.69, 16.83 au
Average spatial batch extension              ...   1.01,  0.77,  0.72 au

Overlap Fitting                  UseSFitting ... on
Constructing numerical overlap ... done (      0.1 sec)
Inverting numerical overlap    ... done (      0.0 sec)
Obtaining analytic overlap     ... done (      0.0 sec)
Final contraction and storage  ... done (      0.0 sec)


General Integration Accuracy     IntAcc      ...  3.670
Radial Grid Type                 RadialGrid  ... Gauss-Chebyshev
Angular Grid (max. acc.)         AngularGrid ... Lebedev-50
Angular grid pruning method      GridPruning ... 3 (G Style)
Weight generation scheme         WeightScheme... Becke
Basis function cutoff            BFCut       ...    1.0000e-11
Integration weight cutoff        WCut        ...    1.0000e-14
Grids for H and He will be reduced by one unit

# of grid points (after initial pruning)     ...  47410 (   0.0 sec)
# of grid points (after weights+screening)   ...  42591 (   0.2 sec)
nearest neighbour list constructed           ...    0.0 sec
Grid point re-assignment to atoms done       ...    0.0 sec
Grid point division into batches done        ...    0.0 sec
Reduced shell lists constructed in    0.1 sec

Total number of grid points                  ...    42591
Total number of batches                      ...      697
Average number of points per batch           ...       61
Average number of grid points per atom       ...      600
Average number of shells per batch           ...    98.42 (24.85%)
Average number of basis functions per batch  ...   214.16 (24.01%)
Average number of large shells per batch     ...    62.34 (63.34%)
Average number of large basis fcns per batch ...   139.42 (65.10%)
Maximum spatial batch extension              ...  23.76, 17.26, 18.52 au
Average spatial batch extension              ...   0.87,  0.70,  0.66 au

Overlap Fitting                  UseSFitting ... on
Constructing numerical overlap ... done (      0.1 sec)
Inverting numerical overlap    ... done (      0.0 sec)
Obtaining analytic overlap     ... done (      0.0 sec)
Final contraction and storage  ... done (      0.0 sec)


General Integration Accuracy     IntAcc      ...  4.010
Radial Grid Type                 RadialGrid  ... Gauss-Chebyshev
Angular Grid (max. acc.)         AngularGrid ... Lebedev-110
Angular grid pruning method      GridPruning ... 3 (G Style)
Weight generation scheme         WeightScheme... Becke
Basis function cutoff            BFCut       ...    1.0000e-11
Integration weight cutoff        WCut        ...    1.0000e-14
Grids for H and He will be reduced by one unit

# of grid points (after initial pruning)     ...  93296 (   0.0 sec)
# of grid points (after weights+screening)   ...  82895 (   0.5 sec)
nearest neighbour list constructed           ...    0.0 sec
Grid point re-assignment to atoms done       ...    0.0 sec
Grid point division into batches done        ...    0.1 sec
Reduced shell lists constructed in    0.3 sec

Total number of grid points                  ...    82895
Total number of batches                      ...     1329
Average number of points per batch           ...       62
Average number of grid points per atom       ...     1168
Average number of shells per batch           ...    92.04 (23.24%)
Average number of basis functions per batch  ...   199.69 (22.39%)
Average number of large shells per batch     ...    58.85 (63.94%)
Average number of large basis fcns per batch ...   130.49 (65.35%)
Maximum spatial batch extension              ...  19.85, 18.98, 19.15 au
Average spatial batch extension              ...   0.67,  0.58,  0.54 au

Overlap Fitting                  UseSFitting ... on
Constructing numerical overlap ... done (      0.1 sec)
Inverting numerical overlap    ... done (      0.0 sec)
Obtaining analytic overlap     ... done (      0.0 sec)
Final contraction and storage  ... done (      0.0 sec)

Time for X-Grid setup             =    1.988 sec
--------------
SCF ITERATIONS
--------------
ITER       Energy         Delta-E        Max-DP      RMS-DP      [F,P]     Damp
               ***  Starting incremental Fock matrix formation  ***
  0  -7065.7969463330   0.000000000000 0.07905460  0.00115481  0.2223083 0.7000
  1  -7066.3262853859  -0.529339052906 0.04467961  0.00078866  0.0969950 0.7000
                               ***Turning on DIIS***
  2  -7066.5397708328  -0.213485446859 0.09082857  0.00137160  0.0365487 0.0000
  3  -7066.8846607301  -0.344889897387 0.04493769  0.00062491  0.0488088 0.0000
  4  -7066.9597155488  -0.075054818684 0.01523519  0.00020359  0.0168192 0.0000
  5  -7066.9650424196  -0.005326870758 0.00830017  0.00008706  0.0094079 0.0000
                      *** Initiating the SOSCF procedure ***
                           *** Shutting down DIIS ***
                      *** Re-Reading the Fockian *** 
                      *** Removing any level shift *** 
ITER      Energy       Delta-E        Grad      Rot      Max-DP    RMS-DP
  6  -7066.96627327  -0.0012308523  0.002445  0.002445  0.003144  0.000050
               *** Restarting incremental Fock matrix formation ***
  7  -7066.96668412  -0.0004108456  0.001828  0.011480  0.003550  0.000053
  8  -7066.96698404  -0.0002999227  0.000917  0.011272  0.004101  0.000067
  9  -7066.96698696  -0.0000029153  0.001491  0.003693  0.001962  0.000027
 10  -7066.96708479  -0.0000978320  0.000209  0.000779  0.000738  0.000009
 11  -7066.96708267   0.0000021175  0.000160  0.000544  0.000458  0.000006
 12  -7066.96708844  -0.0000057654  0.000034  0.000178  0.000162  0.000002
 13  -7066.96708834   0.0000000941  0.000042  0.000097  0.000092  0.000001
 14  -7066.96708866  -0.0000003182  0.000008  0.000043  0.000048  0.000000
 15  -7066.96708866   0.0000000042  0.000014  0.000027  0.000031  0.000000
 16  -7066.96708862   0.0000000318  0.000003  0.000018  0.000013  0.000000
 17  -7066.96708858   0.0000000422  0.000004  0.000005  0.000009  0.000000
                  ***Gradient check signals convergence***
              ***Rediagonalizing the Fockian in SOSCF/NRSCF***

               *****************************************************
               *                     SUCCESS                       *
               *           SCF CONVERGED AFTER  18 CYCLES          *
               *****************************************************

Setting up the final grid:

General Integration Accuracy     IntAcc      ...  5.010
Radial Grid Type                 RadialGrid  ... Gauss-Chebyshev
Angular Grid (max. acc.)         AngularGrid ... Lebedev-434
Angular grid pruning method      GridPruning ... 3 (G Style)
Weight generation scheme         WeightScheme... Becke
Basis function cutoff            BFCut       ...    1.0000e-11
Integration weight cutoff        WCut        ...    1.0000e-14
Grids for H and He will be reduced by one unit

# of grid points (after initial pruning)     ... 707170 (   0.0 sec)
# of grid points (after weights+screening)   ... 607979 (   3.3 sec)
nearest neighbour list constructed           ...    0.0 sec
Grid point re-assignment to atoms done       ...    0.1 sec
Grid point division into batches done        ...    3.6 sec
Reduced shell lists constructed in    4.9 sec

Total number of grid points                  ...   607979
Total number of batches                      ...     9536
Average number of points per batch           ...       63
Average number of grid points per atom       ...     8563
Average number of shells per batch           ...    80.16 (20.24%)
Average number of basis functions per batch  ...   173.14 (19.41%)
Average number of large shells per batch     ...    51.16 (63.82%)
Average number of large basis fcns per batch ...   112.23 (64.82%)
Maximum spatial batch extension              ...  20.58, 17.47, 19.23 au
Average spatial batch extension              ...   0.32,  0.30,  0.29 au

Final grid set up in    8.6 sec
Final integration                            ... done (   2.0 sec)
Change in XC energy                          ...    -0.000208888
Integrated number of electrons               ...   450.000076216
Previous integrated no of electrons          ...   449.999684211
Old exchange energy                            =   -133.674801536 Eh
New exchange energy                            =   -133.671362865 Eh
Exchange energy change after final integration =      0.003438671 Eh
Total energy after final integration           =  -7066.963858804 Eh
Final COS-X integration done in                =    35.255 sec

----------------
TOTAL SCF ENERGY
----------------

Total Energy       :        -7066.96385880 Eh         -192301.86304 eV

Components:
Nuclear Repulsion  :         9061.29405247 Eh          246570.34656 eV
Electronic Energy  :       -16128.25791128 Eh         -438872.20960 eV
One Electron Energy:       -27799.02716755 Eh         -756449.98640 eV
Two Electron Energy:        11670.76925627 Eh          317577.77681 eV

Virial components:
Potential Energy   :       -14107.07798660 Eh         -383873.10775 eV
Kinetic Energy     :         7040.11412779 Eh          191571.24471 eV
Virial Ratio       :            2.00381382


DFT components:
N(Alpha)           :      225.000038107753 electrons
N(Beta)            :      225.000038107753 electrons
N(Total)           :      450.000076215507 electrons
E(XC)              :     -400.544460819158 Eh       
DFET-embed. en.    :        0.000000000000 Eh       

---------------
SCF CONVERGENCE
---------------

  Last Energy change         ...   -4.2837e-09  Tolerance :   1.0000e-08
  Last MAX-Density change    ...    6.6613e-15  Tolerance :   1.0000e-07
  Last RMS-Density change    ...    4.4490e-17  Tolerance :   5.0000e-09
  Last Orbital Gradient      ...    5.1639e-07  Tolerance :   1.0000e-05
  Last Orbital Rotation      ...    3.8134e-06  Tolerance :   1.0000e-05

             **** THE GBW FILE WAS UPDATED (xtbopt.gbw) ****
             **** DENSITY FILE WAS UPDATED (xtbopt.scfp) ****
             **** ENERGY FILE WAS UPDATED (xtbopt.en.tmp) ****
             **** THE GBW FILE WAS UPDATED (xtbopt.gbw) ****
             **** DENSITY FILE WAS UPDATED (xtbopt.scfp) ****
----------------
ORBITAL ENERGIES
----------------

  NO   OCC          E(Eh)            E(eV) 
   0   2.0000    -482.890655    -13140.1228 
   1   2.0000     -88.988578     -2421.5023 
   2   2.0000     -88.982942     -2421.3490 
   3   2.0000     -88.981435     -2421.3079 
   4   2.0000     -88.966194     -2420.8932 
   5   2.0000     -88.949948     -2420.4511 
   6   2.0000     -88.946375     -2420.3539 
   7   2.0000     -62.568375     -1702.5721 
   8   2.0000     -56.402333     -1534.7855 
   9   2.0000     -56.399603     -1534.7112 
  10   2.0000     -56.399573     -1534.7104 
  11   2.0000     -19.246292      -523.7182 
  12   2.0000     -19.246229      -523.7165 
  13   2.0000     -19.237707      -523.4846 
  14   2.0000     -19.236764      -523.4590 
  15   2.0000     -19.226391      -523.1767 
  16   2.0000     -14.657546      -398.8521 
  17   2.0000     -14.648846      -398.6154 
  18   2.0000     -14.438640      -392.8954 
  19   2.0000     -14.420869      -392.4118 
  20   2.0000     -14.420773      -392.4092 
  21   2.0000     -10.377524      -282.3868 
  22   2.0000     -10.364870      -282.0425 
  23   2.0000     -10.352493      -281.7057 
  24   2.0000     -10.349670      -281.6288 
  25   2.0000     -10.347921      -281.5813 
  26   2.0000     -10.343839      -281.4702 
  27   2.0000     -10.340175      -281.3705 
  28   2.0000     -10.333873      -281.1990 
  29   2.0000     -10.332059      -281.1496 
  30   2.0000     -10.331413      -281.1321 
  31   2.0000     -10.331091      -281.1233 
  32   2.0000     -10.329718      -281.0859 
  33   2.0000     -10.327187      -281.0170 
  34   2.0000     -10.325003      -280.9576 
  35   2.0000     -10.323318      -280.9118 
  36   2.0000     -10.323086      -280.9055 
  37   2.0000     -10.320348      -280.8310 
  38   2.0000     -10.320265      -280.8287 
  39   2.0000     -10.315089      -280.6878 
  40   2.0000     -10.314263      -280.6654 
  41   2.0000     -10.314023      -280.6588 
  42   2.0000     -10.313600      -280.6473 
  43   2.0000     -10.313120      -280.6343 
  44   2.0000     -10.312032      -280.6046 
  45   2.0000     -10.311223      -280.5826 
  46   2.0000     -10.310050      -280.5507 
  47   2.0000     -10.308827      -280.5174 
  48   2.0000     -10.308160      -280.4993 
  49   2.0000     -10.308064      -280.4967 
  50   2.0000     -10.302478      -280.3447 
  51   2.0000     -10.299619      -280.2669 
  52   2.0000     -10.299547      -280.2649 
  53   2.0000     -10.297344      -280.2050 
  54   2.0000     -10.297212      -280.2014 
  55   2.0000     -10.294111      -280.1170 
  56   2.0000     -10.291135      -280.0360 
  57   2.0000     -10.289818      -280.0002 
  58   2.0000     -10.279094      -279.7084 
  59   2.0000      -8.797811      -239.4006 
  60   2.0000      -8.083380      -219.9599 
  61   2.0000      -8.078344      -219.8229 
  62   2.0000      -8.077445      -219.7984 
  63   2.0000      -8.061347      -219.3604 
  64   2.0000      -8.045442      -218.9276 
  65   2.0000      -8.042987      -218.8608 
  66   2.0000      -6.634153      -180.5245 
  67   2.0000      -6.619524      -180.1264 
  68   2.0000      -6.619318      -180.1208 
  69   2.0000      -6.052807      -164.7053 
  70   2.0000      -6.048348      -164.5839 
  71   2.0000      -6.047829      -164.5698 
  72   2.0000      -6.047121      -164.5505 
  73   2.0000      -6.045439      -164.5048 
  74   2.0000      -6.043409      -164.4495 
  75   2.0000      -6.042849      -164.4343 
  76   2.0000      -6.040150      -164.3608 
  77   2.0000      -6.038674      -164.3207 
  78   2.0000      -6.031187      -164.1169 
  79   2.0000      -6.026955      -164.0018 
  80   2.0000      -6.022425      -163.8785 
  81   2.0000      -6.015307      -163.6848 
  82   2.0000      -6.012834      -163.6175 
  83   2.0000      -6.011185      -163.5727 
  84   2.0000      -6.008867      -163.5096 
  85   2.0000      -6.006212      -163.4373 
  86   2.0000      -6.003511      -163.3638 
  87   2.0000      -2.750002       -74.8314 
  88   2.0000      -2.745925       -74.7204 
  89   2.0000      -2.745758       -74.7159 
  90   2.0000      -2.734144       -74.3998 
  91   2.0000      -2.734123       -74.3993 
  92   2.0000      -1.328093       -36.1393 
  93   2.0000      -1.318763       -35.8854 
  94   2.0000      -1.147197       -31.2168 
  95   2.0000      -1.141735       -31.0682 
  96   2.0000      -1.137715       -30.9588 
  97   2.0000      -1.083638       -29.4873 
  98   2.0000      -1.029491       -28.0139 
  99   2.0000      -1.028572       -27.9889 
 100   2.0000      -1.019293       -27.7364 
 101   2.0000      -1.011575       -27.5264 
 102   2.0000      -0.999615       -27.2009 
 103   2.0000      -0.999579       -27.1999 
 104   2.0000      -0.996828       -27.1251 
 105   2.0000      -0.978109       -26.6157 
 106   2.0000      -0.976521       -26.5725 
 107   2.0000      -0.949007       -25.8238 
 108   2.0000      -0.927891       -25.2492 
 109   2.0000      -0.919106       -25.0101 
 110   2.0000      -0.914728       -24.8910 
 111   2.0000      -0.903347       -24.5813 
 112   2.0000      -0.892471       -24.2854 
 113   2.0000      -0.891611       -24.2620 
 114   2.0000      -0.879059       -23.9204 
 115   2.0000      -0.872704       -23.7475 
 116   2.0000      -0.862914       -23.4811 
 117   2.0000      -0.853305       -23.2196 
 118   2.0000      -0.847379       -23.0583 
 119   2.0000      -0.839119       -22.8336 
 120   2.0000      -0.835640       -22.7389 
 121   2.0000      -0.825283       -22.4571 
 122   2.0000      -0.819205       -22.2917 
 123   2.0000      -0.798309       -21.7231 
 124   2.0000      -0.790429       -21.5087 
 125   2.0000      -0.783729       -21.3264 
 126   2.0000      -0.771894       -21.0043 
 127   2.0000      -0.766649       -20.8616 
 128   2.0000      -0.749915       -20.4062 
 129   2.0000      -0.732502       -19.9324 
 130   2.0000      -0.713827       -19.4242 
 131   2.0000      -0.704747       -19.1771 
 132   2.0000      -0.695959       -18.9380 
 133   2.0000      -0.690208       -18.7815 
 134   2.0000      -0.687191       -18.6994 
 135   2.0000      -0.677772       -18.4431 
 136   2.0000      -0.667881       -18.1740 
 137   2.0000      -0.665021       -18.0962 
 138   2.0000      -0.651223       -17.7207 
 139   2.0000      -0.649877       -17.6840 
 140   2.0000      -0.640751       -17.4357 
 141   2.0000      -0.639196       -17.3934 
 142   2.0000      -0.634549       -17.2670 
 143   2.0000      -0.633857       -17.2481 
 144   2.0000      -0.630162       -17.1476 
 145   2.0000      -0.627031       -17.0624 
 146   2.0000      -0.626487       -17.0476 
 147   2.0000      -0.617484       -16.8026 
 148   2.0000      -0.607759       -16.5380 
 149   2.0000      -0.606029       -16.4909 
 150   2.0000      -0.596937       -16.2435 
 151   2.0000      -0.595384       -16.2012 
 152   2.0000      -0.586604       -15.9623 
 153   2.0000      -0.584124       -15.8948 
 154   2.0000      -0.577271       -15.7084 
 155   2.0000      -0.568810       -15.4781 
 156   2.0000      -0.566603       -15.4180 
 157   2.0000      -0.560237       -15.2448 
 158   2.0000      -0.553570       -15.0634 
 159   2.0000      -0.551859       -15.0168 
 160   2.0000      -0.547795       -14.9062 
 161   2.0000      -0.546571       -14.8730 
 162   2.0000      -0.540221       -14.7002 
 163   2.0000      -0.536342       -14.5946 
 164   2.0000      -0.533905       -14.5283 
 165   2.0000      -0.527805       -14.3623 
 166   2.0000      -0.522614       -14.2211 
 167   2.0000      -0.517823       -14.0907 
 168   2.0000      -0.515629       -14.0310 
 169   2.0000      -0.514437       -13.9985 
 170   2.0000      -0.512557       -13.9474 
 171   2.0000      -0.504835       -13.7373 
 172   2.0000      -0.502696       -13.6791 
 173   2.0000      -0.501091       -13.6354 
 174   2.0000      -0.500505       -13.6194 
 175   2.0000      -0.496379       -13.5071 
 176   2.0000      -0.493274       -13.4227 
 177   2.0000      -0.486608       -13.2413 
 178   2.0000      -0.484909       -13.1950 
 179   2.0000      -0.481761       -13.1094 
 180   2.0000      -0.479358       -13.0440 
 181   2.0000      -0.468577       -12.7506 
 182   2.0000      -0.465339       -12.6625 
 183   2.0000      -0.464089       -12.6285 
 184   2.0000      -0.462670       -12.5899 
 185   2.0000      -0.458077       -12.4649 
 186   2.0000      -0.453866       -12.3503 
 187   2.0000      -0.453376       -12.3370 
 188   2.0000      -0.450741       -12.2653 
 189   2.0000      -0.448718       -12.2102 
 190   2.0000      -0.444958       -12.1079 
 191   2.0000      -0.438654       -11.9364 
 192   2.0000      -0.435030       -11.8378 
 193   2.0000      -0.433025       -11.7832 
 194   2.0000      -0.430809       -11.7229 
 195   2.0000      -0.429051       -11.6751 
 196   2.0000      -0.424940       -11.5632 
 197   2.0000      -0.415586       -11.3087 
 198   2.0000      -0.414045       -11.2667 
 199   2.0000      -0.409587       -11.1454 
 200   2.0000      -0.402509       -10.9528 
 201   2.0000      -0.400430       -10.8962 
 202   2.0000      -0.393579       -10.7098 
 203   2.0000      -0.391947       -10.6654 
 204   2.0000      -0.386153       -10.5078 
 205   2.0000      -0.384743       -10.4694 
 206   2.0000      -0.379959       -10.3392 
 207   2.0000      -0.379552       -10.3281 
 208   2.0000      -0.378158       -10.2902 
 209   2.0000      -0.374412       -10.1883 
 210   2.0000      -0.367440        -9.9986 
 211   2.0000      -0.365289        -9.9400 
 212   2.0000      -0.364296        -9.9130 
 213   2.0000      -0.360433        -9.8079 
 214   2.0000      -0.349501        -9.5104 
 215   2.0000      -0.345694        -9.4068 
 216   2.0000      -0.340023        -9.2525 
 217   2.0000      -0.333826        -9.0839 
 218   2.0000      -0.322257        -8.7690 
 219   2.0000      -0.316886        -8.6229 
 220   2.0000      -0.307847        -8.3769 
 221   2.0000      -0.303190        -8.2502 
 222   2.0000      -0.298637        -8.1263 
 223   2.0000      -0.264155        -7.1880 
 224   2.0000      -0.235128        -6.3981 
 225   0.0000      -0.104223        -2.8361 
 226   0.0000      -0.075772        -2.0618 
 227   0.0000      -0.070003        -1.9049 
 228   0.0000      -0.063428        -1.7260 
 229   0.0000      -0.052885        -1.4391 
 230   0.0000      -0.020048        -0.5455 
 231   0.0000      -0.006355        -0.1729 
 232   0.0000       0.010649         0.2898 
 233   0.0000       0.020099         0.5469 
 234   0.0000       0.025670         0.6985 
 235   0.0000       0.031912         0.8684 
 236   0.0000       0.035609         0.9690 
 237   0.0000       0.039104         1.0641 
 238   0.0000       0.042250         1.1497 
 239   0.0000       0.050547         1.3754 
 240   0.0000       0.055398         1.5074 
 241   0.0000       0.062588         1.7031 
 242   0.0000       0.070171         1.9095 
 243   0.0000       0.075347         2.0503 
 244   0.0000       0.082540         2.2460 
 245   0.0000       0.086151         2.3443 
 246   0.0000       0.090018         2.4495 
 247   0.0000       0.091236         2.4827 
 248   0.0000       0.091693         2.4951 
 249   0.0000       0.094453         2.5702 
 250   0.0000       0.103875         2.8266 
 251   0.0000       0.104866         2.8535 
 252   0.0000       0.107958         2.9377 
 253   0.0000       0.111970         3.0469 
 254   0.0000       0.113136         3.0786 
 255   0.0000       0.115566         3.1447 
 256   0.0000       0.120881         3.2893 
 257   0.0000       0.125116         3.4046 
 258   0.0000       0.131898         3.5891 
 259   0.0000       0.137395         3.7387 
 260   0.0000       0.139076         3.7845 
 261   0.0000       0.142353         3.8736 
 262   0.0000       0.145842         3.9686 
 263   0.0000       0.148502         4.0409 
 264   0.0000       0.150522         4.0959 
 265   0.0000       0.151160         4.1133 
 266   0.0000       0.159916         4.3515 
 267   0.0000       0.164716         4.4822 
 268   0.0000       0.167888         4.5685 
 269   0.0000       0.172338         4.6895 
 270   0.0000       0.175590         4.7780 
 271   0.0000       0.179826         4.8933 
 272   0.0000       0.180735         4.9181 
 273   0.0000       0.187409         5.0996 
 274   0.0000       0.193589         5.2678 
 275   0.0000       0.197584         5.3765 
 276   0.0000       0.202482         5.5098 
 277   0.0000       0.205236         5.5847 
 278   0.0000       0.208899         5.6844 
 279   0.0000       0.219433         5.9711 
 280   0.0000       0.222841         6.0638 
 281   0.0000       0.229851         6.2546 
 282   0.0000       0.230597         6.2749 
 283   0.0000       0.237507         6.4629 
 284   0.0000       0.240992         6.5577 
 285   0.0000       0.245549         6.6817 
 286   0.0000       0.246225         6.7001 
 287   0.0000       0.257156         6.9976 
 288   0.0000       0.270365         7.3570 
 289   0.0000       0.278297         7.5728 
 290   0.0000       0.281206         7.6520 
 291   0.0000       0.282912         7.6984 
 292   0.0000       0.288402         7.8478 
 293   0.0000       0.292836         7.9685 
 294   0.0000       0.299294         8.1442 
 295   0.0000       0.299850         8.1593 
 296   0.0000       0.304755         8.2928 
 297   0.0000       0.305230         8.3057 
 298   0.0000       0.309421         8.4198 
 299   0.0000       0.314179         8.5492 
 300   0.0000       0.317783         8.6473 
 301   0.0000       0.321413         8.7461 
 302   0.0000       0.325811         8.8658 
 303   0.0000       0.328620         8.9422 
 304   0.0000       0.331909         9.0317 
 305   0.0000       0.332532         9.0487 
 306   0.0000       0.338333         9.2065 
 307   0.0000       0.343532         9.3480 
 308   0.0000       0.344884         9.3848 
 309   0.0000       0.351081         9.5534 
 310   0.0000       0.353642         9.6231 
 311   0.0000       0.355994         9.6871 
 312   0.0000       0.358097         9.7443 
 313   0.0000       0.365024         9.9328 
 314   0.0000       0.375591        10.2204 
 315   0.0000       0.379275        10.3206 
 316   0.0000       0.382951        10.4206 
 317   0.0000       0.385747        10.4967 
 318   0.0000       0.386950        10.5295 
 319   0.0000       0.388621        10.5749 
 320   0.0000       0.392240        10.6734 
 321   0.0000       0.393151        10.6982 
 322   0.0000       0.398486        10.8434 
 323   0.0000       0.402939        10.9645 
 324   0.0000       0.403472        10.9790 
 325   0.0000       0.411161        11.1883 
 326   0.0000       0.412953        11.2370 
 327   0.0000       0.415973        11.3192 
 328   0.0000       0.417596        11.3634 
 329   0.0000       0.420988        11.4557 
 330   0.0000       0.425945        11.5905 
 331   0.0000       0.427662        11.6373 
 332   0.0000       0.431165        11.7326 
 333   0.0000       0.434313        11.8183 
 334   0.0000       0.440105        11.9759 
 335   0.0000       0.446558        12.1515 
 336   0.0000       0.449810        12.2400 
 337   0.0000       0.452351        12.3091 
 338   0.0000       0.456969        12.4348 
 339   0.0000       0.460292        12.5252 
 340   0.0000       0.463594        12.6150 
 341   0.0000       0.469484        12.7753 
 342   0.0000       0.471945        12.8423 
 343   0.0000       0.477290        12.9877 
 344   0.0000       0.479524        13.0485 
 345   0.0000       0.485180        13.2024 
 346   0.0000       0.485263        13.2047 
 347   0.0000       0.486941        13.2504 
 348   0.0000       0.487864        13.2755 
 349   0.0000       0.495577        13.4853 
 350   0.0000       0.496361        13.5067 
 351   0.0000       0.497875        13.5479 
 352   0.0000       0.498583        13.5671 
 353   0.0000       0.502942        13.6858 
 354   0.0000       0.505785        13.7631 
 355   0.0000       0.506273        13.7764 
 356   0.0000       0.511141        13.9088 
 357   0.0000       0.516336        14.0502 
 358   0.0000       0.517645        14.0858 
 359   0.0000       0.522177        14.2092 
 360   0.0000       0.523771        14.2525 
 361   0.0000       0.526986        14.3400 
 362   0.0000       0.528230        14.3739 
 363   0.0000       0.533141        14.5075 
 364   0.0000       0.534701        14.5500 
 365   0.0000       0.537802        14.6343 
 366   0.0000       0.539027        14.6677 
 367   0.0000       0.544159        14.8073 
 368   0.0000       0.545442        14.8422 
 369   0.0000       0.548230        14.9181 
 370   0.0000       0.548465        14.9245 
 371   0.0000       0.552381        15.0311 
 372   0.0000       0.556130        15.1331 
 373   0.0000       0.557745        15.1770 
 374   0.0000       0.561894        15.2899 
 375   0.0000       0.562895        15.3172 
 376   0.0000       0.565087        15.3768 
 377   0.0000       0.570356        15.5202 
 378   0.0000       0.571535        15.5523 
 379   0.0000       0.574671        15.6376 
 380   0.0000       0.575942        15.6722 
 381   0.0000       0.580002        15.7827 
 382   0.0000       0.583200        15.8697 
 383   0.0000       0.586043        15.9470 
 384   0.0000       0.588813        16.0224 
 385   0.0000       0.592290        16.1170 
 386   0.0000       0.597864        16.2687 
 387   0.0000       0.600366        16.3368 
 388   0.0000       0.603224        16.4146 
 389   0.0000       0.605386        16.4734 
 390   0.0000       0.606857        16.5134 
 391   0.0000       0.611854        16.6494 
 392   0.0000       0.615750        16.7554 
 393   0.0000       0.622442        16.9375 
 394   0.0000       0.624114        16.9830 
 395   0.0000       0.625410        17.0183 
 396   0.0000       0.628612        17.1054 
 397   0.0000       0.629575        17.1316 
 398   0.0000       0.631076        17.1724 
 399   0.0000       0.636299        17.3146 
 400   0.0000       0.638249        17.3676 
 401   0.0000       0.643494        17.5104 
 402   0.0000       0.649439        17.6721 
 403   0.0000       0.653563        17.7843 
 404   0.0000       0.657020        17.8784 
 405   0.0000       0.659668        17.9505 
 406   0.0000       0.666527        18.1371 
 407   0.0000       0.670174        18.2364 
 408   0.0000       0.672307        18.2944 
 409   0.0000       0.675757        18.3883 
 410   0.0000       0.675899        18.3921 
 411   0.0000       0.679334        18.4856 
 412   0.0000       0.680319        18.5124 
 413   0.0000       0.681238        18.5374 
 414   0.0000       0.683211        18.5911 
 415   0.0000       0.686193        18.6723 
 416   0.0000       0.689996        18.7757 
 417   0.0000       0.690992        18.8028 
 418   0.0000       0.692408        18.8414 
 419   0.0000       0.696590        18.9552 
 420   0.0000       0.697090        18.9688 
 421   0.0000       0.699185        19.0258 
 422   0.0000       0.701760        19.0959 
 423   0.0000       0.702622        19.1193 
 424   0.0000       0.706478        19.2242 
 425   0.0000       0.707687        19.2571 
 426   0.0000       0.710176        19.3249 
 427   0.0000       0.711437        19.3592 
 428   0.0000       0.713156        19.4060 
 429   0.0000       0.716068        19.4852 
 430   0.0000       0.716605        19.4998 
 431   0.0000       0.719774        19.5861 
 432   0.0000       0.722562        19.6619 
 433   0.0000       0.723319        19.6825 
 434   0.0000       0.727259        19.7897 
 435   0.0000       0.732970        19.9451 
 436   0.0000       0.735183        20.0053 
 437   0.0000       0.736640        20.0450 
 438   0.0000       0.739428        20.1209 
 439   0.0000       0.739855        20.1325 
 440   0.0000       0.742389        20.2014 
 441   0.0000       0.745074        20.2745 
 442   0.0000       0.745722        20.2921 
 443   0.0000       0.751788        20.4572 
 444   0.0000       0.753586        20.5061 
 445   0.0000       0.757343        20.6084 
 446   0.0000       0.757865        20.6226 
 447   0.0000       0.758551        20.6412 
 448   0.0000       0.762538        20.7497 
 449   0.0000       0.765708        20.8360 
 450   0.0000       0.767972        20.8976 
 451   0.0000       0.771364        20.9899 
 452   0.0000       0.773760        21.0551 
 453   0.0000       0.776329        21.1250 
 454   0.0000       0.779978        21.2243 
 455   0.0000       0.781905        21.2767 
 456   0.0000       0.784868        21.3573 
 457   0.0000       0.787738        21.4354 
 458   0.0000       0.789895        21.4941 
 459   0.0000       0.797402        21.6984 
 460   0.0000       0.801500        21.8099 
 461   0.0000       0.803653        21.8685 
 462   0.0000       0.806084        21.9347 
 463   0.0000       0.807076        21.9617 
 464   0.0000       0.816436        22.2164 
 465   0.0000       0.819363        22.2960 
 466   0.0000       0.823829        22.4175 
 467   0.0000       0.828820        22.5533 
 468   0.0000       0.831154        22.6169 
 469   0.0000       0.832686        22.6585 
 470   0.0000       0.833953        22.6930 
 471   0.0000       0.839912        22.8552 
 472   0.0000       0.842138        22.9158 
 473   0.0000       0.847007        23.0482 
 474   0.0000       0.850868        23.1533 
 475   0.0000       0.853232        23.2176 
 476   0.0000       0.857138        23.3239 
 477   0.0000       0.858739        23.3675 
 478   0.0000       0.863458        23.4959 
 479   0.0000       0.867118        23.5955 
 480   0.0000       0.871003        23.7012 
 481   0.0000       0.877305        23.8727 
 482   0.0000       0.879689        23.9376 
 483   0.0000       0.882321        24.0092 
 484   0.0000       0.884786        24.0763 
 485   0.0000       0.892429        24.2842 
 486   0.0000       0.895454        24.3666 
 487   0.0000       0.898627        24.4529 
 488   0.0000       0.902491        24.5580 
 489   0.0000       0.910992        24.7893 
 490   0.0000       0.911837        24.8123 
 491   0.0000       0.918189        24.9852 
 492   0.0000       0.922266        25.0961 
 493   0.0000       0.923956        25.1421 
 494   0.0000       0.927975        25.2515 
 495   0.0000       0.932093        25.3635 
 496   0.0000       0.936718        25.4894 
 497   0.0000       0.940493        25.5921 
 498   0.0000       0.945715        25.7342 
 499   0.0000       0.949405        25.8346 
 500   0.0000       0.954523        25.9739 
 501   0.0000       0.957049        26.0426 
 502   0.0000       0.958633        26.0857 
 503   0.0000       0.962344        26.1867 
 504   0.0000       0.965131        26.2625 
 505   0.0000       0.970225        26.4012 
 506   0.0000       0.974215        26.5097 
 507   0.0000       0.975600        26.5474 
 508   0.0000       0.983717        26.7683 
 509   0.0000       0.985585        26.8191 
[...]
  23      4.57     271.4    66 ->  72      gap,J,K:    6.315     2.206     0.230
  24      4.60     269.5    65 ->  72      gap,J,K:    6.561     2.180     0.110

average / max PT2 energy lowering (eV):       0.041       0.096

CSF included by PT:                   277 
total number of CSF included:         314 
 
sTD-DFT procedure...
setting up A+B and A-B matrices...  done
estimated time (min):    0.001
calculating (A-B)^0.5 ... done
calculating (A+B)*(A-B)^0.5 ... done
calculating (A-B)^0.5 *(A+B)*(A-B)^0.5 ... done
diagonalizing ...using LAPACKE_ssyevr ...done

   43 roots found, lowest/highest eigenvalue :     1.726     4.973

excitation energies, transition moments and amplitudes

molecular weight:  894.836
state   eV        nm        fL         fV        Rl        RV
   0   1.726     718.3   0.033497   0.044114  -83.549628  -95.350036     0.89 (  70->  71)    0.06 (  70->  72)    0.02 (  70->  73)
   1   2.268     546.6   0.619295   0.718139  -398.575081  -444.297713     0.86 (  69->  71)    0.04 (  70->  72)    0.03 (  70->  73)
   2   2.444     507.2   0.266293   0.315099  455.983551  439.630815     0.57 (  70->  72)    0.19 (  70->  74)    0.11 (  70->  73)
   3   2.702     458.8   0.010460   0.011835  -29.482124  -31.145014     0.39 (  70->  75)    0.26 (  70->  73)    0.16 (  70->  72)
   4   2.820     439.7   0.600623   0.648210  295.377370  298.170089     0.54 (  70->  74)    0.16 (  70->  73)    0.15 (  69->  72)
   5   2.919     424.7   0.409117   0.435928  -203.041016  -220.166814     0.56 (  69->  72)    0.12 (  69->  73)    0.12 (  70->  74)
   6   3.049     406.7   0.005764   0.005854  -0.118608   0.323023     0.52 (  70->  75)    0.29 (  70->  73)    0.09 (  70->  72)
   7   3.107     399.1   0.284370   0.302258  25.458655  38.086846     0.54 (  67->  71)    0.30 (  68->  71)    0.05 (  60->  71)
   8   3.242     382.4   0.023110   0.023253  61.396901  63.019256     0.48 (  69->  73)    0.17 (  68->  71)    0.13 (  67->  71)
   9   3.319     373.5   0.039505   0.039276  86.215893  81.899095     0.71 (  69->  74)    0.11 (  69->  73)    0.09 (  68->  71)
  10   3.352     369.8   0.385293   0.386867  -195.357147  -152.425696     0.34 (  68->  71)    0.18 (  69->  74)    0.15 (  69->  73)
  11   3.536     350.7   0.030762   0.034459  75.474210  80.001800     0.67 (  69->  75)    0.12 (  60->  71)    0.06 (  66->  71)
  12   3.629     341.6   0.047325   0.046899  31.396413  24.240192     0.24 (  64->  71)    0.19 (  69->  75)    0.17 (  60->  71)
  13   3.675     337.3   0.162085   0.152855  -185.995983  -184.432753     0.71 (  66->  71)    0.09 (  64->  71)    0.04 (  69->  75)
  14   3.692     335.8   0.018999   0.017639  -18.239465  -13.116007     0.30 (  64->  71)    0.20 (  60->  71)    0.09 (  66->  71)
  15   3.812     325.3   0.065164   0.064852  39.502149  25.380719     0.56 (  65->  71)    0.14 (  67->  72)    0.05 (  67->  73)
  16   3.872     320.2   0.038828   0.038996  41.482493  38.860284     0.42 (  70->  77)    0.35 (  70->  76)    0.06 (  66->  72)
  17   3.918     316.4   0.132482   0.123512  -128.064119  -107.453338     0.17 (  67->  72)    0.16 (  65->  71)    0.10 (  68->  72)
  18   4.012     309.1   0.047597   0.045186  30.289380  33.628744     0.26 (  67->  73)    0.25 (  67->  72)    0.09 (  65->  72)
  19   4.082     303.7   0.568428   0.515165  168.148502  164.283416     0.31 (  68->  73)    0.25 (  64->  71)    0.14 (  68->  72)
  20   4.201     295.2   0.069546   0.063855  -55.225713  -52.415708     0.28 (  66->  72)    0.17 (  66->  73)    0.15 (  70->  76)
  21   4.221     293.7   0.048344   0.040329  -86.478588  -86.831598     0.23 (  65->  72)    0.19 (  65->  73)    0.10 (  67->  74)
  22   4.262     290.9   0.005063   0.004359  11.744868  15.875225     0.25 (  58->  75)    0.15 (  58->  71)    0.11 (  57->  75)
  23   4.303     288.1   0.069492   0.065212  36.749923  19.410906     0.36 (  63->  71)    0.22 (  60->  71)    0.10 (  60->  73)
  24   4.318     287.1   0.085072   0.073452  -56.110857  -61.060001     0.20 (  63->  71)    0.17 (  67->  73)    0.15 (  60->  73)
  25   4.352     284.9   0.092985   0.082157  14.883220  15.328726     0.23 (  66->  74)    0.11 (  66->  72)    0.09 (  70->  77)
  26   4.422     280.4   0.120853   0.108959  -74.173451  -70.344921     0.25 (  66->  74)    0.12 (  70->  77)    0.12 (  67->  74)
  27   4.474     277.2   0.007977   0.009572  -10.528693  -11.707088     0.67 (  70->  83)    0.10 (  70->  76)    0.06 (  70->  79)
  28   4.505     275.2   0.047349   0.038905  112.485410  96.709085     0.36 (  67->  75)    0.10 (  66->  72)    0.07 (  63->  71)
  29   4.542     273.0   0.006489   0.006674  16.320734  16.574477     0.23 (  67->  74)    0.14 (  66->  74)    0.11 (  68->  74)
  30   4.581     270.6   0.075460   0.067044   9.243337   6.484713     0.51 (  62->  71)    0.14 (  66->  74)    0.04 (  61->  71)
  31   4.608     269.1   0.010202   0.009636  -26.200103  -28.572316     0.55 (  69->  76)    0.11 (  69->  77)    0.04 (  69->  79)
  32   4.635     267.5   0.032255   0.027309   9.870962   7.260753     0.34 (  66->  75)    0.20 (  66->  73)    0.08 (  68->  75)
  33   4.694     264.1   0.024965   0.022536  -4.927306  -0.620539     0.23 (  61->  71)    0.18 (  70->  79)    0.07 (  70->  77)
  34   4.749     261.1   0.224999   0.182138   1.065799  -7.799381     0.32 (  64->  73)    0.22 (  64->  72)    0.07 (  68->  72)
  35   4.765     260.2   0.018319   0.014051  -12.357197  -12.979477     0.24 (  70->  79)    0.24 (  61->  71)    0.06 (  70->  78)
  36   4.783     259.2   0.062152   0.051985  -51.354029  -45.879731     0.40 (  65->  74)    0.21 (  61->  71)    0.10 (  65->  72)
  37   4.833     256.6   0.006665   0.005630  -1.578560  -0.316573     0.30 (  70->  80)    0.14 (  70->  79)    0.09 (  69->  79)
  38   4.860     255.1   0.036923   0.029359  -6.497894  -7.551683     0.15 (  65->  73)    0.13 (  68->  72)    0.11 (  65->  74)
  39   4.877     254.2   0.030449   0.023836  -48.074917  -42.723192     0.21 (  68->  72)    0.14 (  65->  75)    0.10 (  65->  73)
  40   4.909     252.6   0.055246   0.046556  148.652265  135.187445     0.18 (  66->  75)    0.15 (  66->  73)    0.11 (  65->  75)
  41   4.958     250.1   0.012679   0.013392  15.800194  19.624656     0.34 (  55->  74)    0.08 (  69->  79)    0.07 (  58->  72)
  42   4.973     249.3   0.026121   0.022918  97.011652  91.247141     0.34 (  69->  77)    0.17 (  69->  79)    0.06 (  55->  74)

-----------------------------------------------------------------------------
         ABSORPTION SPECTRUM VIA TRANSITION ELECTRIC DIPOLE MOMENTS
-----------------------------------------------------------------------------
State   Energy  Wavelength   fosc         T2         TX        TY        TZ  
        (cm-1)    (nm)                  (au**2)     (au)      (au)      (au) 
-----------------------------------------------------------------------------
   0   13921.2    718.3   0.033496769   0.79214  -0.49309   0.64511   0.36447
   1   18296.2    546.6   0.619294808  11.14324  -0.33063  -3.21982  -0.81653
   2   19715.5    507.2   0.266292510   4.44658  -1.65835  -1.29102  -0.17236
   3   21795.3    458.8   0.010459739   0.15799   0.36577  -0.08988   0.12697
   4   22741.4    439.7   0.600623299   8.69481  -2.60528  -1.14178  -0.77694
   5   23544.0    424.7   0.409116950   5.72061  -2.20448   0.17038  -0.91207
   6   24590.1    406.7   0.005764225   0.07717   0.00012  -0.00604  -0.27773
   7   25058.9    399.1   0.284370388   3.73592  -0.72071  -1.41481  -1.10219
   8   26149.3    382.4   0.023109727   0.29094   0.48575   0.11613   0.20373
   9   26772.0    373.5   0.039505166   0.48579   0.51234   0.11947  -0.45720
  10   27039.0    369.8   0.385292551   4.69110  -0.78727  -1.78102   0.94831
  11   28517.5    350.7   0.030762463   0.35513  -0.46480   0.37104  -0.03769
  12   29270.3    341.6   0.047325030   0.53228   0.48197  -0.20413   0.50825
  13   29643.5    337.3   0.162084547   1.80006   0.45998  -0.83940   0.94015
  14   29776.7    335.8   0.018999128   0.21005  -0.09806  -0.39161  -0.21698
  15   30744.0    325.3   0.065164049   0.69779   0.09943  -0.81030  -0.17698
  16   31232.9    320.2   0.038828227   0.40927   0.46843   0.39254   0.18909
  17   31603.3    316.4   0.132482420   1.38007  -0.41074  -0.96380   0.53146
  18   32357.2    309.1   0.047597106   0.48427   0.22207  -0.57160   0.32897
  19   32923.2    303.7   0.568428045   5.68393  -1.30621  -1.28948   1.52151
  20   33879.4    295.2   0.069546290   0.67579   0.20260   0.30208   0.73722
  21   34047.5    293.7   0.048344252   0.46745  -0.11083  -0.22855  -0.63477
  22   34372.4    290.9   0.005062725   0.04849   0.00862  -0.19490  -0.10212
  23   34706.9    288.1   0.069491900   0.65916  -0.46543  -0.16891  -0.64343
  24   34827.2    287.1   0.085072486   0.80417  -0.20916  -0.85143  -0.18837
  25   35104.0    284.9   0.092984687   0.87203  -0.67574   0.19419  -0.61457
  26   35664.7    280.4   0.120853246   1.11557  -0.63904   0.79647   0.26987
  27   36081.5    277.2   0.007977061   0.07278  -0.23543   0.13172  -0.00268
  28   36339.1    275.2   0.047349402   0.42896   0.54663  -0.01206  -0.36057
  29   36630.2    273.0   0.006489401   0.05832   0.21398  -0.11008  -0.02046
  30   36951.3    270.6   0.075459772   0.67230   0.70289  -0.39379  -0.15223
  31   37165.6    269.1   0.010202325   0.09037   0.02203   0.02200   0.29900
  32   37382.3    267.5   0.032254697   0.28406  -0.38888   0.27900  -0.23449
  33   37858.6    264.1   0.024964822   0.21709   0.33154   0.23378   0.22917
  34   38303.6    261.1   0.224999208   1.93382   0.16445   0.94613   1.00579
  35   38429.1    260.2   0.018318502   0.15693  -0.03576  -0.21015  -0.33390
  36   38577.4    259.2   0.062151784   0.53039   0.50920  -0.51761   0.05646
  37   38978.0    256.6   0.006664877   0.05629   0.03588   0.22730   0.05778
  38   39198.3    255.1   0.036922594   0.31010  -0.28016  -0.45724  -0.15014
  39   39337.3    254.2   0.030449196   0.25483  -0.35832  -0.08102  -0.34622
  40   39591.7    252.6   0.055245717   0.45938   0.42338  -0.31799  -0.42310
  41   39990.2    250.1   0.012679166   0.10438  -0.24264   0.17730  -0.11863
  42   40111.0    249.3   0.026121268   0.21439  -0.43973   0.06226  -0.13098

-----------------------------------------------------------------------------
         ABSORPTION SPECTRUM VIA TRANSITION VELOCITY DIPOLE MOMENTS
-----------------------------------------------------------------------------
State   Energy  Wavelength   fosc         P2         PX        PY        PZ  
        (cm-1)    (nm)                  (au**2)     (au)      (au)      (au) 
-----------------------------------------------------------------------------
   0   13921.2    718.3   0.044113536   0.00420  -0.03679   0.04615   0.02672
   1   18296.2    546.6   0.718138658   0.08980  -0.02942  -0.28873  -0.07462
   2   19715.5    507.2   0.315099056   0.04246  -0.16162  -0.12589  -0.02212
   3   21795.3    458.8   0.011834909   0.00176   0.03900  -0.01043   0.01153
   4   22741.4    439.7   0.648210259   0.10075  -0.28251  -0.11948  -0.08161
   5   23544.0    424.7   0.435928229   0.07015  -0.24391   0.01981  -0.10131
   6   24590.1    406.7   0.005853679   0.00098  -0.00005  -0.00120  -0.03134
   7   25058.9    399.1   0.302257951   0.05177  -0.08232  -0.16828  -0.12912
   8   26149.3    382.4   0.023253209   0.00416   0.05851   0.01369   0.02335
   9   26772.0    373.5   0.039276355   0.00719   0.06282   0.01652  -0.05447
  10   27039.0    369.8   0.386867152   0.07149  -0.09606  -0.21731   0.12264
  11   28517.5    350.7   0.034459210   0.00672  -0.06108   0.05403  -0.00808
  12   29270.3    341.6   0.046899251   0.00938   0.06416  -0.03197   0.06515
  13   29643.5    337.3   0.152854827   0.03097   0.06408  -0.11201   0.11965
  14   29776.7    335.8   0.017638797   0.00359  -0.01480  -0.05225  -0.02531
  15   30744.0    325.3   0.064851934   0.01363   0.00940  -0.11288  -0.02822
  16   31232.9    320.2   0.038995513   0.00832   0.06227   0.05957   0.02996
  17   31603.3    316.4   0.123511967   0.02668  -0.05572  -0.13202   0.07839
  18   32357.2    309.1   0.045185793   0.00999   0.03218  -0.08070   0.04944
  19   32923.2    303.7   0.515164816   0.11592  -0.18839  -0.18367   0.21609
  20   33879.4    295.2   0.063855422   0.01479   0.03378   0.04318   0.10854
  21   34047.5    293.7   0.040329313   0.00938  -0.01951  -0.02914  -0.09030
  22   34372.4    290.9   0.004358943   0.00102   0.00357  -0.03006  -0.01039
  23   34706.9    288.1   0.065211868   0.01547  -0.07043  -0.02107  -0.10032
  24   34827.2    287.1   0.073451711   0.01748  -0.03190  -0.12461  -0.03062
  25   35104.0    284.9   0.082156769   0.01971  -0.10219   0.02937  -0.09168
  26   35664.7    280.4   0.108959231   0.02656  -0.09831   0.12326   0.04123
  27   36081.5    277.2   0.009571667   0.00236  -0.04197   0.02398  -0.00485
  28   36339.1    275.2   0.038905413   0.00966   0.08451  -0.00043  -0.05020
  29   36630.2    273.0   0.006673971   0.00167   0.03626  -0.01856  -0.00338
  30   36951.3    270.6   0.067043829   0.01693   0.10998  -0.06540  -0.02365
  31   37165.6    269.1   0.009635989   0.00245   0.00270   0.00164   0.04937
  32   37382.3    267.5   0.027309427   0.00698  -0.06014   0.04460  -0.03704
  33   37858.6    264.1   0.022536354   0.00583   0.05276   0.04077   0.03722
  34   38303.6    261.1   0.182138038   0.04768   0.02546   0.14740   0.15908
  35   38429.1    260.2   0.014050547   0.00369  -0.00635  -0.03121  -0.05173
  36   38577.4    259.2   0.051985354   0.01371   0.08198  -0.08257   0.01296
  37   38978.0    256.6   0.005629934   0.00150   0.00051   0.03787   0.00808
  38   39198.3    255.1   0.029358779   0.00787  -0.04784  -0.07084  -0.02362
  39   39337.3    254.2   0.023836327   0.00641  -0.05798  -0.01206  -0.05387
  40   39591.7    252.6   0.046556400   0.01260   0.06879  -0.05329  -0.07089
  41   39990.2    250.1   0.013391735   0.00366  -0.04760   0.03063  -0.02135
  42   40111.0    249.3   0.022918345   0.00628  -0.07469   0.00370  -0.02628

-------------------------------------------------------------------
                             CD SPECTRUM
-------------------------------------------------------------------
State   Energy Wavelength       R         MX        MY        MZ   
        (cm-1)   (nm)       (1e40*cgs)   (au)      (au)      (au)  
-------------------------------------------------------------------
   0   13921.2    718.3    -83.54963  -0.18544   0.38875   0.03353
   1   18296.2    546.6    -398.57508   0.02408   0.46687  -3.92159
   2   19715.5    507.2    455.98355  -0.17046   2.24814  -3.97591
   3   21795.3    458.8    -29.48212   0.03990  -0.67615   0.39145
   4   22741.4    439.7    295.37737   0.16849   4.51495  -5.58721
   5   23544.0    424.7    -203.04102   1.17319   3.86325  -3.05834
   6   24590.1    406.7     -0.11861   0.25892   0.37285  -0.00980
   7   25058.9    399.1     25.45866   0.17428   2.42349  -3.12685
   8   26149.3    382.4     61.39690  -0.67181  -0.25478   0.46855
   9   26772.0    373.5     86.21589  -0.51992   0.92869   0.46003
  10   27039.0    369.8    -195.35715  -0.09452  -2.07135  -3.09471
  11   28517.5    350.7     75.47421   0.64441   0.01198   0.66620
  12   29270.3    341.6     31.39641  -0.85958  -0.93059   0.17933
  13   29643.5    337.3    -185.99598  -1.12927  -2.22272  -0.59274
  14   29776.7    335.8    -18.23947  -0.31739   0.38749  -0.91253
  15   30744.0    325.3     39.50215  -0.42555   0.54432  -1.78433
  16   31232.9    320.2     41.48249  -0.15363  -0.98277   1.49014
  17   31603.3    316.4    -128.06412  -0.07901  -1.39141  -1.56213
  18   32357.2    309.1     30.28938  -0.73595  -0.49891  -0.76068
  19   32923.2    303.7    168.14850   1.93962  -4.41359  -2.54418
  20   33879.4    295.2    -55.22571  -0.59696  -1.69475   1.17627
  21   34047.5    293.7    -86.47859   0.34240   1.84992  -1.30381
  22   34372.4    290.9     11.74487  -0.31636   0.45235  -0.40213
  23   34706.9    288.1     36.74992   0.97904   1.74644  -0.92436
  24   34827.2    287.1    -56.11086  -0.28312   0.21827  -1.93586
  25   35104.0    284.9     14.88322   1.15634   1.52584  -0.68656
  26   35664.7    280.4    -74.17345   0.24142   0.36814   0.65115
  27   36081.5    277.2    -10.52869   0.09710   0.51290   0.01246
  28   36339.1    275.2    112.48541  -0.24199   0.43265   0.94212
  29   36630.2    273.0     16.32073  -0.31697   0.02126  -0.04536
  30   36951.3    270.6      9.24334  -0.26210  -0.39484   0.06877
  31   37165.6    269.1    -26.20010  -0.24986  -0.97513   0.46187
  32   37382.3    267.5      9.87096   0.72286   0.82484  -0.03880
  33   37858.6    264.1     -4.92731  -0.08756  -1.08470   1.32437
  34   38303.6    261.1      1.06580   1.12832  -3.17724   2.79978
  35   38429.1    260.2    -12.35720  -0.16864   1.03117  -0.78792
  36   38577.4    259.2    -51.35403  -0.53627  -0.95210  -0.03362
  37   38978.0    256.6     -1.57856  -0.01897  -0.12897   0.63505
  38   39198.3    255.1     -6.49789  -0.22254   0.50671  -1.31145
  39   39337.3    254.2    -48.07492  -0.02112   1.29991  -0.87141
  40   39591.7    252.6    148.65226  -1.03256   1.26288  -0.49190
  41   39990.2    250.1     15.80019   0.63827   0.46413  -0.04679
  42   40111.0    249.3     97.01165   1.20582   0.51098  -0.66327

sTD-DFT done

Total run time:        1.528 sec

           *** ORCA-CIS/TD-DFT FINISHED WITHOUT ERROR ***

-------------------------   --------------------
FINAL SINGLE POINT ENERGY     -7066.963858803526
-------------------------   --------------------


                            ***************************************
                            *     ORCA property calculations      *
                            ***************************************

                                    ---------------------
                                    Active property flags
                                    ---------------------
   (+) Dipole Moment


------------------------------------------------------------------------------
                       ORCA ELECTRIC PROPERTIES CALCULATION
------------------------------------------------------------------------------

Dipole Moment Calculation                       ... on
Quadrupole Moment Calculation                   ... off
Polarizability Calculation                      ... off
GBWName                                         ... xtbopt.gbw
Electron density file                           ... xtbopt.scfp
The origin for moment calculation is the CENTER OF MASS  = (-17.470543,  1.500546  2.711702)

-------------
DIPOLE MOMENT
-------------
                                X             Y             Z
Electronic contribution:    -31.02531    -112.97775     -17.68897
Nuclear contribution   :     28.18682     112.25950      20.83752
                        -----------------------------------------
Total Dipole Moment    :     -2.83848      -0.71824       3.14855
                        -----------------------------------------
Magnitude (a.u.)       :      4.29956
Magnitude (Debye)      :     10.92861



--------------------
Rotational spectrum 
--------------------
 
Rotational constants in cm-1:     0.001879     0.000538     0.000515 
Rotational constants in MHz :    56.322662    16.137913    15.435085 

 Dipole components along the rotational axes: 
x,y,z [a.u.] :    -0.973229    -3.005073     2.916946 
x,y,z [Debye]:    -2.473752    -7.638289     7.414289 

 

Timings for individual modules:

Sum of individual times         ...      367.231 sec (=   6.121 min)
GTO integral calculation        ...        2.009 sec (=   0.033 min)   0.5 %
SCF iterations                  ...      363.044 sec (=   6.051 min)  98.9 %
CIS module                      ...        2.178 sec (=   0.036 min)   0.6 %
                             ****ORCA TERMINATED NORMALLY****
TOTAL RUN TIME: 0 days 0 hours 6 minutes 8 seconds 55 msec
