
                                 *****************
                                 * O   R   C   A *
                                 *****************

           --- An Ab Initio, DFT and Semiempirical electronic structure package ---

                  #######################################################
                  #                        -***-                        #
                  #          Department of theory and spectroscopy      #
                  #               Directorship: Frank Neese             #
                  #        Max Planck Institute fuer Kohlenforschung    #
                  #                Kaiser Wilhelm Platz 1               #
                  #                 D-45470 Muelheim/Ruhr               #
                  #                      Germany                        #
                  #                                                     #
                  #                  All rights reserved                #
                  #                        -***-                        #
                  #######################################################


                         Program Version 4.2.0 -  RELEASE  -


 With contributions from (in alphabetic order):
   Daniel Aravena         : Magnetic Suceptibility
   Michael Atanasov       : Ab Initio Ligand Field Theory (pilot matlab implementation)
   Alexander A. Auer      : GIAO ZORA, VPT2
   Ute Becker             : Parallelization
   Giovanni Bistoni       : ED, misc. LED, open-shell LED, HFLED
   Martin Brehm           : Molecular dynamics
   Dmytro Bykov           : SCF Hessian
   Vijay G. Chilkuri      : MRCI spin determinant printing, contributions to CSF-ICE
   Dipayan Datta          : RHF DLPNO-CCSD density
   Achintya Kumar Dutta   : EOM-CC, STEOM-CC
   Dmitry Ganyushin       : Spin-Orbit,Spin-Spin,Magnetic field MRCI
   Miquel Garcia          : C-PCM Hessian, Gaussian charge scheme
   Yang Guo               : DLPNO-NEVPT2, CIM, IAO-localization
   Andreas Hansen         : Spin unrestricted coupled pair/coupled cluster methods
   Benjamin Helmich-Paris : CASSCF linear response (MC-RPA)
   Lee Huntington         : MR-EOM, pCC
   Robert Izsak           : Overlap fitted RIJCOSX, COSX-SCS-MP3, EOM
   Christian Kollmar      : KDIIS, OOCD, Brueckner-CCSD(T), CCSD density
   Simone Kossmann        : Meta GGA functionals, TD-DFT gradient, OOMP2, MP2 Hessian
   Martin Krupicka        : AUTO-CI
   Lucas Lang             : DCDCAS
   Dagmar Lenk            : GEPOL surface, SMD
   Dimitrios Liakos       : Extrapolation schemes; Compound Job, initial MDCI parallelization
   Dimitrios Manganas     : Further ROCIS development; embedding schemes
   Dimitrios Pantazis     : SARC Basis sets
   Taras Petrenko         : DFT Hessian,TD-DFT gradient, ASA, ECA, R-Raman, ABS, FL, XAS/XES, NRVS
   Peter Pinski           : DLPNO-MP2, DLPNO-MP2 Gradient
   Christoph Reimann      : Effective Core Potentials
   Marius Retegan         : Local ZFS, SOC
   Christoph Riplinger    : Optimizer, TS searches, QM/MM, DLPNO-CCSD(T), (RO)-DLPNO pert. Triples
   Tobias Risthaus        : Range-separated hybrids, TD-DFT gradient, RPA, STAB
   Michael Roemelt        : Original ROCIS implementation
   Masaaki Saitow         : Open-shell DLPNO-CCSD energy and density
   Barbara Sandhoefer     : DKH picture change effects
   Avijit Sen             : IP-ROCIS
   Kantharuban Sivalingam : CASSCF convergence, NEVPT2, FIC-MRCI
   Bernardo de Souza      : ESD, SOC TD-DFT
   Georgi Stoychev        : AutoAux, RI-MP2 NMR
   Willem Van den Heuvel  : Paramagnetic NMR
   Boris Wezisla          : Elementary symmetry handling
   Frank Wennmohs         : Technical directorship


 We gratefully acknowledge several colleagues who have allowed us to
 interface, adapt or use parts of their codes:
   Stefan Grimme, W. Hujo, H. Kruse,             : VdW corrections, initial TS optimization,
                  C. Bannwarth                     DFT functionals, gCP, sTDA/sTD-DF
   Ed Valeev, F. Pavosevic, A. Kumar             : LibInt (2-el integral package), F12 methods
   Garnet Chan, S. Sharma, J. Yang, R. Olivares  : DMRG
   Ulf Ekstrom                                   : XCFun DFT Library
   Mihaly Kallay                                 : mrcc  (arbitrary order and MRCC methods)
   Andreas Klamt, Michael Diedenhofen            : otool_cosmo (COSMO solvation model)
   Jiri Pittner, Ondrej Demel                    : Mk-CCSD
   Frank Weinhold                                : gennbo (NPA and NBO analysis)
   Christopher J. Cramer and Donald G. Truhlar   : smd solvation model
   Lars Goerigk                                  : TD-DFT with DH, B97 family of functionals
   V. Asgeirsson, H. Jonsson                     : NEB implementation
   FAccTs GmbH                                   : IRC, NEB, NEB-TS, Multilevel, MM, QM/MM, CI optimization
   S Lehtola, MJT Oliveira, MAL Marques          : LibXC Library


 Your calculation uses the libint2 library for the computation of 2-el integrals
 For citations please refer to: http://libint.valeyev.net

 Your ORCA version has been built with support for libXC version: 4.2.3
 For citations please refer to: https://tddft.org/programs/libxc/

 This ORCA versions uses:
   CBLAS   interface :  Fast vector & matrix operations
   LAPACKE interface :  Fast linear algebra routines
   SCALAPACK package :  Parallel linear algebra routines


XCFun DFT library Copyright 2009-2010 Ulf Ekstrom and contributors.
See http://admol.org/xcfun for more information. This is free soft-
ware; see the source code for copying conditions. There is ABSOLUTELY
NO WARRANTY; not even for MERCHANTABILITY or FITNESS FOR A PARTICULAR
PURPOSE. For details see the documentation. Scientific users of this 
library should cite U. Ekstrom, L. Visscher, R. Bast, A. J. Thorvald-
sen and K. Ruud; J.Chem.Theor.Comp. 2010, DOI: 10.1021/ct100117s
XCFun Version 0.99 
----- Orbital basis set information -----
Your calculation utilizes the basis: def2-SVP
   F. Weigend and R. Ahlrichs, Phys. Chem. Chem. Phys. 7, 3297 (2005).

----- AuxJ basis set information -----
Your calculation utilizes the auxiliary basis: def2/J
   F. Weigend, Phys. Chem. Chem. Phys. 8, 1057 (2006).

================================================================================
                                        WARNINGS
                       Please study these warnings very carefully!
================================================================================

INFO   : Checking CIS options ...

WARNING: CIS/ROCIS methods need fully converged wavefunctions
  ===> : Setting SCFConvForced true
         You can overwrite this default with %scf ConvForced false 


INFO   : the flag for use of LIBINT has been found!

================================================================================
                                       INPUT FILE
================================================================================
NAME = xtbopt.inp
|  1> # ORCA input file
|  2> # SCF done       -232.536457128382          0.000477569282
|  3> ! CAM-B3LYP def2-SVP def2/J RIJCOSX Grid4 TightSCF
|  4> %maxcore 5000
|  5> %tddft
|  6>     Mode sTDDFT
|  7>     Ethresh 5.0
|  8>     maxcore 5000
|  9> end
| 10> 
| 11> %pal
| 12>   nprocs 6
| 13>   end
| 14> * xyz 0 1
| 15>    C        2.51180        -8.37943        -3.63750
| 16>    S        2.38177        -9.58906        -2.43683
| 17>    C        4.09125        -9.88179        -2.42573
| 18>    C        4.72595        -9.04890        -3.34707
| 19>    C        3.81443        -8.18217        -4.03508
| 20>    C        4.31216        -7.26729        -4.99218
| 21>    C        5.64668        -7.20549        -5.26417
| 22>    C        6.16896        -6.23327        -6.27747
| 23>    C        6.55840        -8.07030        -4.58090
| 24>    C        8.02199        -7.99277        -4.89211
| 25>    C        6.10148        -8.95960        -3.65096
| 26>    C        4.71322       -10.87141        -1.60130
| 27>    C        4.14866       -11.56435        -0.60353
| 28>    C        2.78717       -11.34856        -0.10105
| 29>    C        1.75808       -12.26832        -0.35722
| 30>    C        2.01776       -13.40792        -1.25023
| 31>    O        3.12074       -13.85759        -1.48276
| 32>    C        0.82091       -13.94249        -1.95695
| 33>    C       -0.03484       -13.18078        -2.69036
| 34>    S       -1.21367       -14.12762        -3.51002
| 35>    C       -0.54573       -15.57338        -2.86947
| 36>    C        0.53224       -15.33714        -2.06779
| 37>    C        1.24610       -16.36123        -1.26995
| 38>    O        1.54840       -16.15283        -0.11434
| 39>    C        1.51563       -17.65149        -1.94837
| 40>    C        1.66584       -18.79477        -1.16514
| 41>    C        1.91495       -20.01781        -1.75645
| 42>    C        2.03458       -20.10774        -3.13442
| 43>    C        1.91145       -18.97106        -3.91763
| 44>    C        1.65025       -17.74628        -3.33160
| 45>    C        0.49712       -12.05444         0.20238
| 46>    C        0.24143       -10.93142         0.95562
| 47>    C        1.23487        -9.96879         1.15059
| 48>    C        2.50369       -10.20412         0.63220
| 49>    C        0.92937        -8.72040         1.85631
| 50>    C        0.16765        -8.71705         2.99090
| 51>    C       -0.16028        -7.49077         3.61562
| 52>    C       -0.91837        -7.22032         4.73978
| 53>    C       -1.53837        -8.21350         5.66511
| 54>    C       -1.16279        -7.94599         7.13463
| 55>    N       -1.01199        -9.21628         7.82762
| 56>    C       -3.06410        -8.26812         5.47745
| 57>    N       -3.36982        -8.83095         4.17234
| 58>    C       -0.98937        -5.78104         4.85457
| 59>    C       -1.66121        -4.98812         5.70634
| 60>    C       -1.59527        -3.49835         5.61108
| 61>    C       -0.70596        -2.98088         4.52898
| 62>    C       -0.06504        -3.78952         3.66465
| 63>    C       -0.19018        -5.19555         3.76687
| 64>    C        0.30359        -6.24407         3.01773
| 65>    C        1.10765        -6.28963         1.85468
| 66>    C        1.41382        -7.49070         1.30278
| 67>    C       -1.19843        -3.00561         6.98339
| 68>    C       -2.06666        -2.94552         7.98623
| 69>    C       -1.73005        -2.60818         9.36481
| 70>    C       -2.33924        -3.30904        10.41985
| 71>    C       -3.26016        -4.43147        10.13412
| 72>    O       -3.03953        -5.27332         9.28025
| 73>    C       -4.50074        -4.47422        10.92329
| 74>    C       -5.04024        -3.45649        11.66353
| 75>    S       -6.56048        -3.86776        12.32768
| 76>    C       -6.50193        -5.42573        11.58876
| 77>    C       -5.36261        -5.61675        10.88061
| 78>    C       -5.04789        -6.85433        10.10429
| 79>    O       -5.68919        -7.15384         9.12267
| 80>    C       -3.97593        -7.71264        10.66030
| 81>    C       -3.72069        -8.92907        10.02774
| 82>    C       -2.76331        -9.79069        10.52654
| 83>    C       -2.03667        -9.43743        11.65321
| 84>    C       -2.28041        -8.22837        12.28540
| 85>    C       -3.25175        -7.37260        11.80125
| 86>    C       -2.00059        -2.99177        11.73427
| 87>    C       -1.11226        -1.97652        12.00857
| 88>    C       -0.53936        -1.23116        10.97096
| 89>    C       -0.84212        -1.58236         9.65498
| 90>    C        0.36117        -0.14148        11.26581
| 91>    S        1.41541        -0.24157        12.63018
| 92>    C        2.12082         1.30851        12.33077
| 93>    C        1.56002         1.88576        11.19191
| 94>    C        0.54383         1.06754        10.59785
| 95>    C       -0.18058         1.57239         9.49482
| 96>    C        0.13533         2.77934         8.94042
| 97>    C       -0.64856         3.30278         7.77701
| 98>    C        1.22479         3.54107         9.46044
| 99>    C        1.60828         4.82993         8.80166
|100>    C        1.90257         3.10256        10.56191
|101>    C        3.11916         1.77263        13.25403
|102>    C        3.44863         3.03843        13.50646
|103>    H        1.63107        -7.87338        -3.97927
|104>    H        3.61332        -6.61910        -5.50136
|105>    H        5.35475        -5.65418        -6.70606
|106>    H        6.68372        -6.75532        -7.08339
|107>    H        6.87950        -5.54512        -5.82048
|108>    H        8.40846        -6.99505        -4.68602
|109>    H        8.20415        -8.20831        -5.94455
|110>    H        8.57902        -8.70860        -4.29283
|111>    H        6.79877        -9.60516        -3.13752
|112>    H        5.74492       -11.07763        -1.85267
|113>    H        4.71785       -12.33152        -0.09903
|114>    H       -0.02395       -12.11564        -2.81318
|115>    H       -1.00615       -16.51605        -3.09162
|116>    H        1.57638       -18.70049        -0.09310
|117>    H        2.02064       -20.90205        -1.14547
|118>    H        2.23193       -21.06301        -3.59839
|119>    H        2.02136       -19.04064        -4.98992
|120>    H        1.57658       -16.85949        -3.94305
|121>    H       -0.28173       -12.78653         0.04904
|122>    H       -0.74223       -10.77009         1.37084
|123>    H        3.29672        -9.49204         0.81165
|124>    H       -0.18422        -9.64315         3.41994
|125>    H       -1.14617        -9.20296         5.41306
|126>    H       -1.90916        -7.28794         7.60610
|127>    H       -0.19458        -7.43852         7.17537
|128>    H       -1.89158        -9.72150         7.80740
|129>    H       -0.77247        -9.05697         8.80049
|130>    H       -3.48458        -7.26026         5.62907
|131>    H       -3.50297        -8.93038         6.22959
|132>    H       -2.94048        -8.26381         3.44752
|133>    H       -4.37171        -8.83460         4.01475
|134>    H       -2.26365        -5.37926         6.51309
|135>    H       -2.62094        -3.14379         5.41933
|136>    H       -0.61388        -1.90651         4.46594
|137>    H        0.55496        -3.37613         2.88149
|138>    H        1.46129        -5.36868         1.41352
|139>    H        2.00675        -7.54164         0.40104
|140>    H       -0.14713        -2.80668         7.13155
|141>    H       -3.09998        -3.21553         7.80645
|142>    H       -4.63331        -2.47909        11.83304
|143>    H       -7.31165        -6.11274        11.73254
|144>    H       -4.29682        -9.17763         9.14847
|145>    H       -2.57969       -10.73929        10.04367
|146>    H       -1.28191       -10.10603        12.04023
|147>    H       -1.71448        -7.95609        13.16421
|148>    H       -3.44400        -6.44100        12.31277
|149>    H       -2.42155        -3.56659        12.54651
|150>    H       -0.86098        -1.73789        13.03161
|151>    H       -0.36502        -1.06225         8.83943
|152>    H       -1.00837         1.00087         9.10340
|153>    H       -1.45179         2.61806         7.51684
|154>    H       -0.00640         3.42951         6.90603
|155>    H       -1.08324         4.27353         8.01182
|156>    H        1.86747         4.66505         7.75649
|157>    H        2.46267         5.27775         9.30276
|158>    H        0.78056         5.53802         8.83010
|159>    H        2.72706         3.67991        10.94831
|160>    H        3.60169         0.98362        13.81920
|161>    H        2.96172         3.87162        13.03293
|162>    H        4.21191         3.27579        14.22671
|163> *
|164> 
|165>                          ****END OF INPUT****
================================================================================

                       ****************************
                       * Single Point Calculation *
                       ****************************

---------------------------------
CARTESIAN COORDINATES (ANGSTROEM)
---------------------------------
  C      2.511800   -8.379430   -3.637500
  S      2.381770   -9.589060   -2.436830
  C      4.091250   -9.881790   -2.425730
  C      4.725950   -9.048900   -3.347070
  C      3.814430   -8.182170   -4.035080
  C      4.312160   -7.267290   -4.992180
  C      5.646680   -7.205490   -5.264170
  C      6.168960   -6.233270   -6.277470
  C      6.558400   -8.070300   -4.580900
  C      8.021990   -7.992770   -4.892110
  C      6.101480   -8.959600   -3.650960
  C      4.713220  -10.871410   -1.601300
  C      4.148660  -11.564350   -0.603530
  C      2.787170  -11.348560   -0.101050
  C      1.758080  -12.268320   -0.357220
  C      2.017760  -13.407920   -1.250230
  O      3.120740  -13.857590   -1.482760
  C      0.820910  -13.942490   -1.956950
  C     -0.034840  -13.180780   -2.690360
  S     -1.213670  -14.127620   -3.510020
  C     -0.545730  -15.573380   -2.869470
  C      0.532240  -15.337140   -2.067790
  C      1.246100  -16.361230   -1.269950
  O      1.548400  -16.152830   -0.114340
  C      1.515630  -17.651490   -1.948370
  C      1.665840  -18.794770   -1.165140
  C      1.914950  -20.017810   -1.756450
  C      2.034580  -20.107740   -3.134420
  C      1.911450  -18.971060   -3.917630
  C      1.650250  -17.746280   -3.331600
  C      0.497120  -12.054440    0.202380
  C      0.241430  -10.931420    0.955620
  C      1.234870   -9.968790    1.150590
  C      2.503690  -10.204120    0.632200
  C      0.929370   -8.720400    1.856310
  C      0.167650   -8.717050    2.990900
  C     -0.160280   -7.490770    3.615620
  C     -0.918370   -7.220320    4.739780
  C     -1.538370   -8.213500    5.665110
  C     -1.162790   -7.945990    7.134630
  N     -1.011990   -9.216280    7.827620
  C     -3.064100   -8.268120    5.477450
  N     -3.369820   -8.830950    4.172340
  C     -0.989370   -5.781040    4.854570
  C     -1.661210   -4.988120    5.706340
  C     -1.595270   -3.498350    5.611080
  C     -0.705960   -2.980880    4.528980
  C     -0.065040   -3.789520    3.664650
  C     -0.190180   -5.195550    3.766870
  C      0.303590   -6.244070    3.017730
  C      1.107650   -6.289630    1.854680
  C      1.413820   -7.490700    1.302780
  C     -1.198430   -3.005610    6.983390
  C     -2.066660   -2.945520    7.986230
  C     -1.730050   -2.608180    9.364810
  C     -2.339240   -3.309040   10.419850
  C     -3.260160   -4.431470   10.134120
  O     -3.039530   -5.273320    9.280250
  C     -4.500740   -4.474220   10.923290
  C     -5.040240   -3.456490   11.663530
  S     -6.560480   -3.867760   12.327680
  C     -6.501930   -5.425730   11.588760
  C     -5.362610   -5.616750   10.880610
  C     -5.047890   -6.854330   10.104290
  O     -5.689190   -7.153840    9.122670
  C     -3.975930   -7.712640   10.660300
  C     -3.720690   -8.929070   10.027740
  C     -2.763310   -9.790690   10.526540
  C     -2.036670   -9.437430   11.653210
  C     -2.280410   -8.228370   12.285400
  C     -3.251750   -7.372600   11.801250
  C     -2.000590   -2.991770   11.734270
  C     -1.112260   -1.976520   12.008570
  C     -0.539360   -1.231160   10.970960
  C     -0.842120   -1.582360    9.654980
  C      0.361170   -0.141480   11.265810
  S      1.415410   -0.241570   12.630180
  C      2.120820    1.308510   12.330770
  C      1.560020    1.885760   11.191910
  C      0.543830    1.067540   10.597850
  C     -0.180580    1.572390    9.494820
  C      0.135330    2.779340    8.940420
  C     -0.648560    3.302780    7.777010
  C      1.224790    3.541070    9.460440
  C      1.608280    4.829930    8.801660
  C      1.902570    3.102560   10.561910
  C      3.119160    1.772630   13.254030
  C      3.448630    3.038430   13.506460
  H      1.631070   -7.873380   -3.979270
  H      3.613320   -6.619100   -5.501360
  H      5.354750   -5.654180   -6.706060
  H      6.683720   -6.755320   -7.083390
  H      6.879500   -5.545120   -5.820480
  H      8.408460   -6.995050   -4.686020
  H      8.204150   -8.208310   -5.944550
  H      8.579020   -8.708600   -4.292830
  H      6.798770   -9.605160   -3.137520
  H      5.744920  -11.077630   -1.852670
  H      4.717850  -12.331520   -0.099030
  H     -0.023950  -12.115640   -2.813180
  H     -1.006150  -16.516050   -3.091620
  H      1.576380  -18.700490   -0.093100
  H      2.020640  -20.902050   -1.145470
  H      2.231930  -21.063010   -3.598390
  H      2.021360  -19.040640   -4.989920
  H      1.576580  -16.859490   -3.943050
  H     -0.281730  -12.786530    0.049040
  H     -0.742230  -10.770090    1.370840
  H      3.296720   -9.492040    0.811650
  H     -0.184220   -9.643150    3.419940
  H     -1.146170   -9.202960    5.413060
  H     -1.909160   -7.287940    7.606100
  H     -0.194580   -7.438520    7.175370
  H     -1.891580   -9.721500    7.807400
  H     -0.772470   -9.056970    8.800490
  H     -3.484580   -7.260260    5.629070
  H     -3.502970   -8.930380    6.229590
  H     -2.940480   -8.263810    3.447520
  H     -4.371710   -8.834600    4.014750
  H     -2.263650   -5.379260    6.513090
  H     -2.620940   -3.143790    5.419330
  H     -0.613880   -1.906510    4.465940
  H      0.554960   -3.376130    2.881490
  H      1.461290   -5.368680    1.413520
  H      2.006750   -7.541640    0.401040
  H     -0.147130   -2.806680    7.131550
  H     -3.099980   -3.215530    7.806450
  H     -4.633310   -2.479090   11.833040
  H     -7.311650   -6.112740   11.732540
  H     -4.296820   -9.177630    9.148470
  H     -2.579690  -10.739290   10.043670
  H     -1.281910  -10.106030   12.040230
  H     -1.714480   -7.956090   13.164210
  H     -3.444000   -6.441000   12.312770
  H     -2.421550   -3.566590   12.546510
  H     -0.860980   -1.737890   13.031610
  H     -0.365020   -1.062250    8.839430
  H     -1.008370    1.000870    9.103400
  H     -1.451790    2.618060    7.516840
  H     -0.006400    3.429510    6.906030
  H     -1.083240    4.273530    8.011820
  H      1.867470    4.665050    7.756490
  H      2.462670    5.277750    9.302760
  H      0.780560    5.538020    8.830100
  H      2.727060    3.679910   10.948310
  H      3.601690    0.983620   13.819200
  H      2.961720    3.871620   13.032930
  H      4.211910    3.275790   14.226710

----------------------------
CARTESIAN COORDINATES (A.U.)
----------------------------
  NO LB      ZA    FRAG     MASS         X           Y           Z
   0 C     6.0000    0    12.011    4.746614  -15.834828   -6.873879
   1 S    16.0000    0    32.060    4.500893  -18.120697   -4.604941
   2 C     6.0000    0    12.011    7.731342  -18.673877   -4.583965
   3 C     6.0000    0    12.011    8.930751  -17.099943   -6.325046
   4 C     6.0000    0    12.011    7.208228  -15.462060   -7.625196
   5 C     6.0000    0    12.011    8.148801  -13.733188   -9.433853
   6 C     6.0000    0    12.011   10.670679  -13.616403   -9.947840
   7 C     6.0000    0    12.011   11.657645  -11.779173  -11.862699
   8 C     6.0000    0    12.011   12.393580  -15.250657   -8.656646
   9 C     6.0000    0    12.011   15.159364  -15.104146   -9.244748
  10 C     6.0000    0    12.011   11.530126  -16.931190   -6.899315
  11 C     6.0000    0    12.011    8.906695  -20.543988   -3.026018
  12 C     6.0000    0    12.011    7.839831  -21.853454   -1.140506
  13 C     6.0000    0    12.011    5.266988  -21.445670   -0.190957
  14 C     6.0000    0    12.011    3.322290  -23.183765   -0.675048
  15 C     6.0000    0    12.011    3.813014  -25.337297   -2.362592
  16 O     8.0000    0    15.999    5.897344  -26.187050   -2.802010
  17 C     6.0000    0    12.011    1.551295  -26.347488   -3.698100
  18 C     6.0000    0    12.011   -0.065838  -24.908064   -5.084044
  19 S    16.0000    0    32.060   -2.293504  -26.697333   -6.632977
  20 C     6.0000    0    12.011   -1.031280  -29.429423   -5.422512
  21 C     6.0000    0    12.011    1.005788  -28.982994   -3.907557
  22 C     6.0000    0    12.011    2.354788  -30.918244   -2.399858
  23 O     8.0000    0    15.999    2.926052  -30.524425   -0.216071
  24 C     6.0000    0    12.011    2.864126  -33.356482   -3.681886
  25 C     6.0000    0    12.011    3.147981  -35.516968   -2.201796
  26 C     6.0000    0    12.011    3.618731  -37.828179   -3.319209
  27 C     6.0000    0    12.011    3.844799  -37.998122   -5.923195
  28 C     6.0000    0    12.011    3.612117  -35.850108   -7.403248
  29 C     6.0000    0    12.011    3.118521  -33.535609   -6.295812
  30 C     6.0000    0    12.011    0.939421  -22.779590    0.382443
  31 C     6.0000    0    12.011    0.456237  -20.657390    1.805860
  32 C     6.0000    0    12.011    2.333566  -18.838283    2.174300
  33 C     6.0000    0    12.011    4.731288  -19.282992    1.194685
  34 C     6.0000    0    12.011    1.756255  -16.479168    3.507918
  35 C     6.0000    0    12.011    0.316813  -16.472837    5.651982
  36 C     6.0000    0    12.011   -0.302885  -14.155504    6.832532
  37 C     6.0000    0    12.011   -1.735468  -13.644427    8.956886
  38 C     6.0000    0    12.011   -2.907098  -15.521266   10.705506
  39 C     6.0000    0    12.011   -2.197355  -15.015745   13.482497
  40 N     7.0000    0    14.007   -1.912384  -17.416245   14.792058
  41 C     6.0000    0    12.011   -5.790310  -15.624482   10.350880
  42 N     7.0000    0    14.007   -6.368037  -16.688077    7.884580
  43 C     6.0000    0    12.011   -1.869638  -10.924582    9.173808
  44 C     6.0000    0    12.011   -3.139232   -9.426181   10.783420
  45 C     6.0000    0    12.011   -3.014623   -6.610923   10.603405
  46 C     6.0000    0    12.011   -1.334071   -5.633047    8.558532
  47 C     6.0000    0    12.011   -0.122908   -7.161155    6.925185
  48 C     6.0000    0    12.011   -0.359388   -9.818167    7.118353
  49 C     6.0000    0    12.011    0.573702  -11.799582    5.702683
  50 C     6.0000    0    12.011    2.093155  -11.885678    3.504837
  51 C     6.0000    0    12.011    2.671733  -14.155372    2.461897
  52 C     6.0000    0    12.011   -2.264704   -5.679780   13.196695
  53 C     6.0000    0    12.011   -3.905421   -5.566226   15.091788
  54 C     6.0000    0    12.011   -3.269321   -4.928746   17.696926
  55 C     6.0000    0    12.011   -4.420523   -6.253179   19.690663
  56 C     6.0000    0    12.011   -6.160810   -8.374265   19.150711
  57 O     8.0000    0    15.999   -5.743879   -9.965131   17.537131
  58 C     6.0000    0    12.011   -8.505166   -8.455050   20.642027
  59 C     6.0000    0    12.011   -9.524673   -6.531819   22.040877
  60 S    16.0000    0    32.060  -12.397511   -7.309007   23.295939
  61 C     6.0000    0    12.011  -12.286867  -10.253144   21.899583
  62 C     6.0000    0    12.011  -10.133864  -10.614119   20.561373
  63 C     6.0000    0    12.011   -9.539130  -12.952807   19.094341
  64 O     8.0000    0    15.999  -10.751011  -13.518798   17.239348
  65 C     6.0000    0    12.011   -7.513419  -14.574777   20.145048
  66 C     6.0000    0    12.011   -7.031085  -16.873497   18.949682
  67 C     6.0000    0    12.011   -5.221899  -18.501723   19.892278
  68 C     6.0000    0    12.011   -3.848749  -17.834158   22.021375
  69 C     6.0000    0    12.011   -4.309350  -15.549366   23.216041
  70 C     6.0000    0    12.011   -6.144917  -13.932195   22.301131
  71 C     6.0000    0    12.011   -3.780567   -5.653626   22.174557
  72 C     6.0000    0    12.011   -2.101867   -3.735081   22.692909
  73 C     6.0000    0    12.011   -1.019243   -2.326555   20.732110
  74 C     6.0000    0    12.011   -1.591376   -2.990227   18.245268
  75 C     6.0000    0    12.011    0.682512   -0.267358   21.289296
  76 S    16.0000    0    32.060    2.674737   -0.456501   23.867581
  77 C     6.0000    0    12.011    4.007769    2.472726   23.301778
  78 C     6.0000    0    12.011    2.948011    3.563570   21.149645
  79 C     6.0000    0    12.011    1.027690    2.017358   20.027034
  80 C     6.0000    0    12.011   -0.341247    2.971386   17.942609
  81 C     6.0000    0    12.011    0.255737    5.252191   16.894945
  82 C     6.0000    0    12.011   -1.225601    6.241350   14.696419
  83 C     6.0000    0    12.011    2.314518    6.691653   17.877641
  84 C     6.0000    0    12.011    3.039209    9.127245   16.632727
  85 C     6.0000    0    12.011    3.595336    5.862989   19.959117
  86 C     6.0000    0    12.011    5.894358    3.349785   25.046487
  87 C     6.0000    0    12.011    6.516966    5.741801   25.523510
  88 H     1.0000    0     1.008    3.082276  -14.878532   -7.519731
  89 H     1.0000    0     1.008    6.828185  -12.508286  -10.396064
  90 H     1.0000    0     1.008   10.119011  -10.684852  -12.672617
  91 H     1.0000    0     1.008   12.630400  -12.765705  -13.385667
  92 H     1.0000    0     1.008   13.000371  -10.478758  -10.999113
  93 H     1.0000    0     1.008   15.889687  -13.218729   -8.855294
  94 H     1.0000    0     1.008   15.503597  -15.511458  -11.233571
  95 H     1.0000    0     1.008   16.211998  -16.456869   -8.112273
  96 H     1.0000    0     1.008   12.847813  -18.151122   -5.929054
  97 H     1.0000    0     1.008   10.856325  -20.933687   -3.501039
  98 H     1.0000    0     1.008    8.915444  -23.303196   -0.187140
  99 H     1.0000    0     1.008   -0.045259  -22.895242   -5.316140
 100 H     1.0000    0     1.008   -1.901348  -31.210811   -5.842315
 101 H     1.0000    0     1.008    2.978926  -35.338805   -0.175934
 102 H     1.0000    0     1.008    3.818456  -39.499150   -2.164625
 103 H     1.0000    0     1.008    4.217736  -39.803320   -6.799972
 104 H     1.0000    0     1.008    3.819817  -35.981595   -9.429582
 105 H     1.0000    0     1.008    2.979304  -31.859819   -7.451285
 106 H     1.0000    0     1.008   -0.532393  -24.163040    0.092672
 107 H     1.0000    0     1.008   -1.402611  -20.352521    2.590512
 108 H     1.0000    0     1.008    6.229898  -17.937356    1.533796
 109 H     1.0000    0     1.008   -0.348125  -18.222913    6.462750
 110 H     1.0000    0     1.008   -2.165947  -17.391074   10.229201
 111 H     1.0000    0     1.008   -3.607790  -13.772211   14.373446
 112 H     1.0000    0     1.008   -0.367703  -14.056766   13.559484
 113 H     1.0000    0     1.008   -3.574568  -18.370973   14.753848
 114 H     1.0000    0     1.008   -1.459757  -17.115193   16.630516
 115 H     1.0000    0     1.008   -6.584902  -13.719903   10.637401
 116 H     1.0000    0     1.008   -6.619654  -16.875972   11.772219
 117 H     1.0000    0     1.008   -5.556702  -15.616338    6.514869
 118 H     1.0000    0     1.008   -8.261335  -16.694975    7.586778
 119 H     1.0000    0     1.008   -4.277679  -10.165328   12.307956
 120 H     1.0000    0     1.008   -4.952859   -5.940902   10.241050
 121 H     1.0000    0     1.008   -1.160065   -3.602782    8.439404
 122 H     1.0000    0     1.008    1.048722   -6.379961    5.445227
 123 H     1.0000    0     1.008    2.761438  -10.145335    2.671166
 124 H     1.0000    0     1.008    3.792208  -14.251634    0.757856
 125 H     1.0000    0     1.008   -0.278035   -5.303857   13.476676
 126 H     1.0000    0     1.008   -5.858113   -6.076471   14.752053
 127 H     1.0000    0     1.008   -8.755687   -4.684801   22.361205
 128 H     1.0000    0     1.008  -13.817016  -11.551405   22.171287
 129 H     1.0000    0     1.008   -8.119813  -17.343207   17.288103
 130 H     1.0000    0     1.008   -4.874908  -20.294317   18.979786
 131 H     1.0000    0     1.008   -2.422459  -19.097629   22.752737
 132 H     1.0000    0     1.008   -3.239898  -15.034831   24.876752
 133 H     1.0000    0     1.008   -6.508217  -12.171726   23.267763
 134 H     1.0000    0     1.008   -4.576066   -6.739878   23.709468
 135 H     1.0000    0     1.008   -1.627016   -3.284136   24.626174
 136 H     1.0000    0     1.008   -0.689788   -2.007362   16.704102
 137 H     1.0000    0     1.008   -1.905543    1.891370   17.202933
 138 H     1.0000    0     1.008   -2.743486    4.947416   14.204769
 139 H     1.0000    0     1.008   -0.012094    6.480835   13.050505
 140 H     1.0000    0     1.008   -2.047027    8.075801   15.140146
 141 H     1.0000    0     1.008    3.529007    8.815667   14.657642
 142 H     1.0000    0     1.008    4.653772    9.973502   17.579669
 143 H     1.0000    0     1.008    1.475045   10.465341   16.686471
 144 H     1.0000    0     1.008    5.153397    6.954022   20.689308
 145 H     1.0000    0     1.008    6.806208    1.858772   26.114503
 146 H     1.0000    0     1.008    5.596840    7.316301   24.628668
 147 H     1.0000    0     1.008    7.959356    6.190346   26.884586

--------------------------------
INTERNAL COORDINATES (ANGSTROEM)
--------------------------------
 C      0   0   0     0.000000000000     0.00000000     0.00000000
 S      1   0   0     1.709304240532     0.00000000     0.00000000
 C      2   1   0     1.734397858999    92.80615417     0.00000000
 C      3   2   1     1.394782147039   110.09038012   359.77889861
 C      1   2   3     1.376163609786   112.10970883   359.87481613
 C      5   1   2     1.414489652596   128.40916285   180.51080461
 C      6   5   1     1.363356677653   120.58029048   179.97306905
 C      7   6   5     1.498253989416   120.36851131   180.08664769
 C      7   6   5     1.430380224765   120.08014812     0.03822219
 C      9   7   6     1.498318475191   119.48003944   179.88753745
 C      9   7   6     1.365437212031   120.38506406   359.82591641
 C      3   2   1     1.430342354194   123.30225469   181.39572721
 C     12   3   2     1.339566650115   127.15361202   349.47284847
 C     13  12   3     1.467210446596   124.75660589   354.85466654
 C     14  13  12     1.403783371678   121.42624684   107.83456043
 C     15  14  13     1.470914247161   119.27416278   354.29481408
 O     16  15  14     1.213605450795   124.32182521    22.77540621
 C     16  15  14     1.489183724663   115.10905457   207.04717179
 C     18  16  15     1.360294238281   124.08737844    52.60889480
 S     19  18  16     1.719880423198   112.32538560   173.89322338
 C     20  19  18     1.716586765561    91.09622281   359.65227508
 C     21  20  19     1.364008607341   112.39301213   359.86374750
 C     22  21  20     1.481521209197   125.28130795   173.96762276
 O     23  22  21     1.212538791998   120.96860070   225.60050066
 C     23  22  21     1.482454378691   116.28157177    43.40447357
 C     25  23  22     1.393951733526   118.44390269   205.67509341
 C     26  25  23     1.381133646611   120.34243021   179.85519643
 C     27  26  25     1.386073613738   119.91087612     0.87939189
 C     28  27  26     1.385864467904   120.06315606     0.33867343
 C     29  28  27     1.382657820757   120.25138985   359.08369771
 C     15  14  13     1.396036151394   119.25011657   176.60504181
 C     31  15  14     1.376198312054   120.81288739     2.48695146
 C     32  31  15     1.396994220246   120.43554621     1.35132059
 C     14  13  12     1.388437750315   119.44270073   288.51511108
 C     33  32  31     1.466236188511   120.37779172   174.80135230
 C     35  33  32     1.366573470034   121.18695033    42.89507039
 C     36  35  33     1.414770582709   119.86342036   182.84640012
 C     37  36  35     1.382598769058   130.97059703   178.93894775
 C     38  37  36     1.492327752640   126.99687117     4.31491897
 C     39  38  37     1.540165889409   112.00639538   127.47895824
 N     40  39  38     1.454858228213   109.15359197   215.78946597
 C     39  38  37     1.538197533771   111.10486495   252.74298859
 N     42  39  38     1.453806878303   109.38131697    67.89904991
 C     38  37  36     1.445594916462   106.63353628   183.93538937
 C     44  38  37     1.343727370005   131.48343802   175.27293129
 C     45  44  38     1.494268116537   121.72478722   181.13730154
 C     46  45  44     1.493180460293   114.70800552   358.51417761
 C     47  46  45     1.346010194947   122.73478492     3.11760238
 C     48  47  46     1.415284179555   120.55452604   358.67745796
 C     49  48  47     1.380004979303   133.15553537   177.73391062
 C     50  49  48     1.414663740859   132.38714172   359.03848641
 C     51  50  49     1.356798741081   119.41848898   181.89115150
 C     46  45  44     1.511128528385   106.18784647   233.12547754
 C     53  46  45     1.327826120620   121.93188364   282.71125030
 C     54  53  46     1.458625169158   124.98583889   173.65112851
 C     55  54  53     1.405498700569   119.61097244   220.14800405
 C     56  55  54     1.479724428466   120.20219461     3.32982556
 O     57  56  55     1.219214089609   123.11851636    42.38147185
 C     57  56  55     1.470936976148   116.31728948   223.73342312
 C     59  57  56     1.369229659517   126.92431794    15.84998083
 S     60  59  57     1.709200951615   112.43769699   175.20394954
 C     61  60  59     1.725311968833    91.18494563   359.15865542
 C     62  61  60     1.354996356194   112.31291313     0.58870042
 C     63  62  61     1.494431556546   124.42369183   181.63224150
 O     64  63  62     1.210185834696   120.97863890    66.87597270
 C     64  63  62     1.481533468336   115.92450399   250.57142993
 C     66  64  63     1.394625955624   117.87307660   175.06589704
 C     67  66  64     1.381219363027   120.47507711   182.11794028
 C     68  67  66     1.386428363133   119.85489311   359.09547875
 C     69  68  67     1.385965175356   120.05166233     0.66845846
 C     70  69  68     1.382116098958   120.26195380     0.31974005
 C     56  55  54     1.393931135960   119.27716500   179.24301119
 C     72  56  55     1.376627488248   120.83182642     2.04442087
 C     73  72  56     1.400146582219   120.59541687     0.63796561
 C     55  54  53     1.387416659191   121.08808172    41.79054687
 C     74  73  72     1.444054467740   120.36828887   178.15345822
 S     76  74  73     1.727120575582   119.88242505    34.24534526
 C     77  76  74     1.729160959136    93.45576032   179.72629851
 C     78  77  76     1.394530853764   110.39088004   359.49291431
 C     76  74  73     1.393292717845   129.69233481   214.37264041
 C     80  76  74     1.412911374255   128.10505415     4.49798156
 C     81  80  76     1.365242392618   120.94834671   180.76618671
 C     82  81  80     1.497329554173   120.22722536   180.37639423
 C     82  81  80     1.427437033603   120.02863894     1.02342199
 C     84  82  81     1.497403007911   119.63719475   176.86324822
 C     84  82  81     1.365618141868   120.08513825   356.12403145
 C     78  77  76     1.436836510394   117.50011621   178.70791914
 C     87  78  77     1.332111491505   126.90915366   205.03802016
 H      1   2   3     1.071717625263   119.71218593   180.45626218
 H      6   5   1     1.080644203288   118.63455968     0.03097266
 H      8   7   6     1.087185605267   110.56015947   359.81687535
 H      8   7   6     1.089504982320   110.73541186   239.51641517
 H      8   7   6     1.089613405846   110.70045556   120.08320656
 H     10   9   7     1.089622571077   110.76626839    59.61862499
 H     10   9   7     1.089619066830   110.71293788   300.17525311
 H     10   9   7     1.087120751435   110.60619855   179.92941766
 H     11   9   7     1.080084113067   119.80127139   180.26777750
 H     12   3   2     1.081720137235   114.37403103   167.81950596
 H     13  12   3     1.080299641303   119.54701459   176.12429204
 H     19  18  16     1.072253031751   127.70621654   355.46606731
 H     21  20  19     1.072363710594   119.73585673   177.70559854
 H     26  25  23     1.079889610840   118.50666595     0.25610086
 H     27  26  25     1.079975608104   120.03173737   180.61250127
 H     28  27  26     1.080164782012   120.01145454   179.84222022
 H     29  28  27     1.080151576678   119.94401869   178.98248802
 H     30  29  28     1.079673504121   120.02782303   178.65447528
 H     31  15  14     1.079850103579   119.38551797   183.14568138
 H     32  31  15     1.079824991793   120.10790856   179.08656025
 H     34  14  13     1.080813031842   118.74628272     0.34959253
 H     36  35  33     1.079605959830   120.63107753     3.12535384
 H     39  38  37     1.093792089064   108.07055081    10.06765298
 H     40  39  38     1.101082167824   110.30710971    91.27403824
 H     40  39  38     1.093899516683   109.38706374   332.78546793
 H     41  40  39     1.014561316481   109.59919994   298.67242336
 H     41  40  39     1.014507537380   110.12932466   180.51265193
 H     42  39  38     1.102530650095   109.21103387   303.25877842
 H     42  39  38     1.094033712506   109.60404310   185.36097933
 H     43  42  39     1.015551400767   109.60999670   301.43721973
 H     43  42  39     1.014214722187   110.40267756   182.60773736
 H     45  44  38     1.080171289981   122.58894560     2.48719173
 H     46  45  44     1.102034393746   106.90497615   118.79375977
 H     47  46  45     1.080149834467   115.96154134   182.23854757
 H     48  47  46     1.081032320377   120.56794320   178.75592786
 H     51  50  49     1.080662897346   119.61528765     1.32506136
 H     52  51  50     1.080414687099   120.33624407   178.51371573
 H     53  46  45     1.080164904309   116.11725776    96.33133372
 H     54  53  46     1.083040382857   119.15702310   357.24454722
 H     60  59  57     1.072210998358   127.84238547   356.79590558
 H     62  61  60     1.071588496999   119.72404368   179.89302085
 H     67  66  64     1.080196085625   118.18326287     1.56941374
 H     68  67  66     1.080148925519   120.28021373   178.97872730
 H     69  68  67     1.080033841136   119.98224960   180.50269323
 H     70  69  68     1.080148221033   119.92552084   179.87602094
 H     71  70  69     1.080042282922   119.55561723   178.94651723
 H     72  56  55     1.080443969672   119.54685140   183.61048378
 H     73  72  56     1.080137378716   120.11731596   179.76134336
 H     75  55  54     1.078545606175   118.78383832   357.21950295
 H     81  80  76     1.079389184169   119.15051210     2.12616822
 H     83  82  81     1.087064092039   110.64619552     1.79827315
 H     83  82  81     1.089511871849   110.68556307   241.47483945
 H     83  82  81     1.089237348331   110.66964192   122.15960972
 H     85  84  82     1.089378354567   110.65588301   301.35029389
 H     85  84  82     1.087026326498   110.67576175   181.01366669
 H     85  84  82     1.089642455166   110.68983844    60.67809952
 H     86  84  82     1.078156641031   119.77925469   179.76933215
 H     87  78  77     1.083876888719   114.15714321    22.03723944
 H     88  87  78     1.074950038420   122.75220310     1.22047756
 H     88  87  78     1.075962913162   120.79201934   179.60164118

---------------------------
INTERNAL COORDINATES (A.U.)
---------------------------
 C      0   0   0     0.000000000000     0.00000000     0.00000000
 S      1   0   0     3.230116894155     0.00000000     0.00000000
 C      2   1   0     3.277536960767    92.80615417     0.00000000
 C      3   2   1     2.635756274387   110.09038012   359.77889861
 C      1   2   3     2.600572337965   112.10970883   359.87481613
 C      5   1   2     2.672998062671   128.40916285   180.51080461
 C      6   5   1     2.576370743616   120.58029048   179.97306905
 C      7   6   5     2.831289719051   120.36851131   180.08664769
 C      7   6   5     2.703026892183   120.08014812     0.03822219
 C      9   7   6     2.831411579506   119.48003944   179.88753745
 C      9   7   6     2.580302383804   120.38506406   359.82591641
 C      3   2   1     2.702955327174   123.30225469   181.39572721
 C     12   3   2     2.531414106851   127.15361202   349.47284847
 C     13  12   3     2.772625924894   124.75660589   354.85466654
 C     14  13  12     2.652766123824   121.42624684   107.83456043
 C     15  14  13     2.779625093616   119.27416278   354.29481408
 O     16  15  14     2.293381936637   124.32182521    22.77540621
 C     16  15  14     2.814149402705   115.10905457   207.04717179
 C     18  16  15     2.570583571902   124.08737844    52.60889480
 S     19  18  16     3.250102982937   112.32538560   173.89322338
 C     20  19  18     3.243878872024    91.09622281   359.65227508
 C     21  20  19     2.577602712186   112.39301213   359.86374750
 C     22  21  20     2.799669346978   125.28130795   173.96762276
 O     23  22  21     2.291366243632   120.96860070   225.60050066
 C     23  22  21     2.801432781758   116.28157177    43.40447357
 C     25  23  22     2.634187020269   118.44390269   205.67509341
 C     26  25  23     2.609964346438   120.34243021   179.85519643
 C     27  26  25     2.619299531419   119.91087612     0.87939189
 C     28  27  26     2.618904303072   120.06315606     0.33867343
 C     29  28  27     2.612844618155   120.25138985   359.08369771
 C     15  14  13     2.638125999189   119.25011657   176.60504181
 C     31  15  14     2.600637915747   120.81288739     2.48695146
 C     32  31  15     2.639936486935   120.43554621     1.35132059
 C     14  13  12     2.623767102093   119.44270073   288.51511108
 C     33  32  31     2.770784843931   120.37779172   174.80135230
 C     35  33  32     2.582449600246   121.18695033    42.89507039
 C     36  35  33     2.673528943649   119.86342036   182.84640012
 C     37  36  35     2.612733026616   130.97059703   178.93894775
 C     38  37  36     2.820090754540   126.99687117     4.31491897
 C     39  38  37     2.910491731791   112.00639538   127.47895824
 N     40  39  38     2.749283615005   109.15359197   215.78946597
 C     39  38  37     2.906772078701   111.10486495   252.74298859
 N     42  39  38     2.747296851603   109.38131697    67.89904991
 C     38  37  36     2.731778492701   106.63353628   183.93538937
 C     44  38  37     2.539276727963   131.48343802   175.27293129
 C     45  44  38     2.823757510906   121.72478722   181.13730154
 C     46  45  44     2.821702138476   114.70800552   358.51417761
 C     47  46  45     2.543590641915   122.73478492     3.11760238
 C     48  47  46     2.674499501031   120.55452604   358.67745796
 C     49  48  47     2.607831474330   133.15553537   177.73391062
 C     50  49  48     2.673327041811   132.38714172   359.03848641
 C     51  50  49     2.563978039493   119.41848898   181.89115150
 C     46  45  44     2.855619071804   106.18784647   233.12547754
 C     53  46  45     2.509227721438   121.93188364   282.71125030
 C     54  53  46     2.756402101752   124.98583889   173.65112851
 C     55  54  53     2.656007625657   119.61097244   220.14800405
 C     56  55  54     2.796273923475   120.20219461     3.32982556
 O     57  56  55     2.303980727978   123.11851636    42.38147185
 C     57  56  55     2.779668045178   116.31728948   223.73342312
 C     59  57  56     2.587469070929   126.92431794    15.84998083
 S     60  59  57     3.229921706389   112.43769699   175.20394954
 C     61  60  59     3.260367116672    91.18494563   359.15865542
 C     62  61  60     2.560572025669   112.31291313     0.58870042
 C     63  62  61     2.824066367761   124.42369183   181.63224150
 O     64  63  62     2.286919798727   120.97863890    66.87597270
 C     64  63  62     2.799692513394   115.92450399   250.57142993
 C     66  64  63     2.635461115387   117.87307660   175.06589704
 C     67  66  64     2.610126326990   120.47507711   182.11794028
 C     68  67  66     2.619969910622   119.85489311   359.09547875
 C     69  68  67     2.619094612575   120.05166233     0.66845846
 C     70  69  68     2.611820912315   120.26195380     0.31974005
 C     56  55  54     2.634148096511   119.27716500   179.24301119
 C     72  56  55     2.601448941217   120.83182642     2.04442087
 C     73  72  56     2.645893587740   120.59541687     0.63796561
 C     55  54  53     2.621837519510   121.08808172    41.79054687
 C     74  73  72     2.728867466494   120.36828887   178.15345822
 S     76  74  73     3.263784888111   119.88242505    34.24534526
 C     77  76  74     3.267640654236    93.45576032   179.72629851
 C     78  77  76     2.635281398918   110.39088004   359.49291431
 C     76  74  73     2.632941661114   129.69233481   214.37264041
 C     80  76  74     2.670015548845   128.10505415     4.49798156
 C     81  80  76     2.579934228466   120.94834671   180.76618671
 C     82  81  80     2.829542789613   120.22722536   180.37639423
 C     82  81  80     2.697465066926   120.02863894     1.02342199
 C     84  82  81     2.829681597061   119.63719475   176.86324822
 C     84  82  81     2.580644291646   120.08513825   356.12403145
 C     78  77  76     2.715227503863   117.50011621   178.70791914
 C     87  78  77     2.517325898794   126.90915366   205.03802016
 H      1   2   3     2.025252804644   119.71218593   180.45626218
 H      6   5   1     2.042121592424   118.63455968     0.03097266
 H      8   7   6     2.054483050696   110.56015947   359.81687535
 H      8   7   6     2.058866038127   110.73541186   239.51641517
 H      8   7   6     2.059070928899   110.70045556   120.08320656
 H     10   9   7     2.059088248674   110.76626839    59.61862499
 H     10   9   7     2.059081626608   110.71293788   300.17525311
 H     10   9   7     2.054360494714   110.60619855   179.92941766
 H     11   9   7     2.041063175296   119.80127139   180.26777750
 H     12   3   2     2.044154812922   114.37403103   167.81950596
 H     13  12   3     2.041470464637   119.54701459   176.12429204
 H     19  18  16     2.026264576277   127.70621654   355.46606731
 H     21  20  19     2.026473728979   119.73585673   177.70559854
 H     26  25  23     2.040695619354   118.50666595     0.25610086
 H     27  26  25     2.040858130632   120.03173737   180.61250127
 H     28  27  26     2.041215617510   120.01145454   179.84222022
 H     29  28  27     2.041190663045   119.94401869   178.98248802
 H     30  29  28     2.040287236839   120.02782303   178.65447528
 H     31  15  14     2.040620961451   119.38551797   183.14568138
 H     32  31  15     2.040573507052   120.10790856   179.08656025
 H     34  14  13     2.042440632155   118.74628272     0.34959253
 H     36  35  33     2.040159596627   120.63107753     3.12535384
 H     39  38  37     2.066967495781   108.07055081    10.06765298
 H     40  39  38     2.080743748132   110.30710971    91.27403824
 H     40  39  38     2.067170504560   109.38706374   332.78546793
 H     41  40  39     1.917243034220   109.59919994   298.67242336
 H     41  40  39     1.917141406446   110.12932466   180.51265193
 H     42  39  38     2.083480982935   109.21103387   303.25877842
 H     42  39  38     2.067424097914   109.60404310   185.36097933
 H     43  42  39     1.919114022370   109.60999670   301.43721973
 H     43  42  39     1.916588065924   110.40267756   182.60773736
 H     45  44  38     2.041227915789   122.58894560     2.48719173
 H     46  45  44     2.082543194343   106.90497615   118.79375977
 H     47  46  45     2.041187370744   115.96154134   182.23854757
 H     48  47  46     2.042855027430   120.56794320   178.75592786
 H     51  50  49     2.042156919074   119.61528765     1.32506136
 H     52  51  50     2.041687869684   120.33624407   178.51371573
 H     53  46  45     2.041215848617   116.11725776    96.33133372
 H     54  53  46     2.046649715578   119.15702310   357.24454722
 H     60  59  57     2.026185144675   127.84238547   356.79590558
 H     62  61  60     2.025008787588   119.72404368   179.89302085
 H     67  66  64     2.041274772765   118.18326287     1.56941374
 H     68  67  66     2.041185653080   120.28021373   178.97872730
 H     69  68  67     2.040968175115   119.98224960   180.50269323
 H     70  69  68     2.041184321794   119.92552084   179.87602094
 H     71  70  69     2.040984127778   119.55561723   178.94651723
 H     72  56  55     2.041743205726   119.54685140   183.61048378
 H     73  72  56     2.041163832785   120.11731596   179.76134336
 H     75  55  54     2.038155818615   118.78383832   357.21950295
 H     81  80  76     2.039749949995   119.15051210     2.12616822
 H     83  82  81     2.054253423973   110.64619552     1.79827315
 H     83  82  81     2.058879057451   110.68556307   241.47483945
 H     83  82  81     2.058360283185   110.66964192   122.15960972
 H     85  84  82     2.058626746354   110.65588301   301.35029389
 H     85  84  82     2.054182057444   110.67576175   181.01366669
 H     85  84  82     2.059125824157   110.68983844    60.67809952
 H     86  84  82     2.037420781018   119.77925469   179.76933215
 H     87  78  77     2.048230482566   114.15714321    22.03723944
 H     88  87  78     2.031361180263   122.75220310     1.22047756
 H     88  87  78     2.033275236132   120.79201934   179.60164118

---------------------
BASIS SET INFORMATION
---------------------
There are 5 groups of distinct atoms

 Group   1 Type C   : 7s4p1d contracted to 3s2p1d pattern {511/31/1}
 Group   2 Type S   : 10s7p1d contracted to 4s3p1d pattern {5311/511/1}
 Group   3 Type O   : 7s4p1d contracted to 3s2p1d pattern {511/31/1}
 Group   4 Type N   : 7s4p1d contracted to 3s2p1d pattern {511/31/1}
 Group   5 Type H   : 4s1p contracted to 2s1p pattern {31/1}

Atom   0C    basis set group =>   1
Atom   1S    basis set group =>   2
Atom   2C    basis set group =>   1
Atom   3C    basis set group =>   1
Atom   4C    basis set group =>   1
Atom   5C    basis set group =>   1
Atom   6C    basis set group =>   1
Atom   7C    basis set group =>   1
Atom   8C    basis set group =>   1
Atom   9C    basis set group =>   1
Atom  10C    basis set group =>   1
Atom  11C    basis set group =>   1
Atom  12C    basis set group =>   1
Atom  13C    basis set group =>   1
Atom  14C    basis set group =>   1
Atom  15C    basis set group =>   1
Atom  16O    basis set group =>   3
Atom  17C    basis set group =>   1
Atom  18C    basis set group =>   1
Atom  19S    basis set group =>   2
Atom  20C    basis set group =>   1
Atom  21C    basis set group =>   1
Atom  22C    basis set group =>   1
Atom  23O    basis set group =>   3
Atom  24C    basis set group =>   1
Atom  25C    basis set group =>   1
Atom  26C    basis set group =>   1
Atom  27C    basis set group =>   1
Atom  28C    basis set group =>   1
Atom  29C    basis set group =>   1
Atom  30C    basis set group =>   1
Atom  31C    basis set group =>   1
Atom  32C    basis set group =>   1
Atom  33C    basis set group =>   1
Atom  34C    basis set group =>   1
Atom  35C    basis set group =>   1
Atom  36C    basis set group =>   1
Atom  37C    basis set group =>   1
Atom  38C    basis set group =>   1
Atom  39C    basis set group =>   1
Atom  40N    basis set group =>   4
Atom  41C    basis set group =>   1
Atom  42N    basis set group =>   4
Atom  43C    basis set group =>   1
Atom  44C    basis set group =>   1
Atom  45C    basis set group =>   1
Atom  46C    basis set group =>   1
Atom  47C    basis set group =>   1
Atom  48C    basis set group =>   1
Atom  49C    basis set group =>   1
Atom  50C    basis set group =>   1
Atom  51C    basis set group =>   1
Atom  52C    basis set group =>   1
Atom  53C    basis set group =>   1
Atom  54C    basis set group =>   1
Atom  55C    basis set group =>   1
Atom  56C    basis set group =>   1
Atom  57O    basis set group =>   3
Atom  58C    basis set group =>   1
Atom  59C    basis set group =>   1
Atom  60S    basis set group =>   2
Atom  61C    basis set group =>   1
Atom  62C    basis set group =>   1
Atom  63C    basis set group =>   1
Atom  64O    basis set group =>   3
Atom  65C    basis set group =>   1
Atom  66C    basis set group =>   1
Atom  67C    basis set group =>   1
Atom  68C    basis set group =>   1
Atom  69C    basis set group =>   1
Atom  70C    basis set group =>   1
Atom  71C    basis set group =>   1
Atom  72C    basis set group =>   1
Atom  73C    basis set group =>   1
Atom  74C    basis set group =>   1
Atom  75C    basis set group =>   1
Atom  76S    basis set group =>   2
Atom  77C    basis set group =>   1
Atom  78C    basis set group =>   1
Atom  79C    basis set group =>   1
Atom  80C    basis set group =>   1
Atom  81C    basis set group =>   1
Atom  82C    basis set group =>   1
Atom  83C    basis set group =>   1
Atom  84C    basis set group =>   1
Atom  85C    basis set group =>   1
Atom  86C    basis set group =>   1
Atom  87C    basis set group =>   1
Atom  88H    basis set group =>   5
Atom  89H    basis set group =>   5
Atom  90H    basis set group =>   5
Atom  91H    basis set group =>   5
Atom  92H    basis set group =>   5
Atom  93H    basis set group =>   5
Atom  94H    basis set group =>   5
Atom  95H    basis set group =>   5
Atom  96H    basis set group =>   5
Atom  97H    basis set group =>   5
Atom  98H    basis set group =>   5
Atom  99H    basis set group =>   5
Atom 100H    basis set group =>   5
Atom 101H    basis set group =>   5
Atom 102H    basis set group =>   5
Atom 103H    basis set group =>   5
Atom 104H    basis set group =>   5
Atom 105H    basis set group =>   5
Atom 106H    basis set group =>   5
Atom 107H    basis set group =>   5
Atom 108H    basis set group =>   5
Atom 109H    basis set group =>   5
Atom 110H    basis set group =>   5
Atom 111H    basis set group =>   5
Atom 112H    basis set group =>   5
Atom 113H    basis set group =>   5
Atom 114H    basis set group =>   5
Atom 115H    basis set group =>   5
Atom 116H    basis set group =>   5
Atom 117H    basis set group =>   5
Atom 118H    basis set group =>   5
Atom 119H    basis set group =>   5
Atom 120H    basis set group =>   5
Atom 121H    basis set group =>   5
Atom 122H    basis set group =>   5
Atom 123H    basis set group =>   5
Atom 124H    basis set group =>   5
Atom 125H    basis set group =>   5
Atom 126H    basis set group =>   5
Atom 127H    basis set group =>   5
Atom 128H    basis set group =>   5
Atom 129H    basis set group =>   5
Atom 130H    basis set group =>   5
Atom 131H    basis set group =>   5
Atom 132H    basis set group =>   5
Atom 133H    basis set group =>   5
Atom 134H    basis set group =>   5
Atom 135H    basis set group =>   5
Atom 136H    basis set group =>   5
Atom 137H    basis set group =>   5
Atom 138H    basis set group =>   5
Atom 139H    basis set group =>   5
Atom 140H    basis set group =>   5
Atom 141H    basis set group =>   5
Atom 142H    basis set group =>   5
Atom 143H    basis set group =>   5
Atom 144H    basis set group =>   5
Atom 145H    basis set group =>   5
Atom 146H    basis set group =>   5
Atom 147H    basis set group =>   5
---------------------------------
AUXILIARY/J BASIS SET INFORMATION
---------------------------------
There are 5 groups of distinct atoms

 Group   1 Type C   : 12s5p4d2f1g contracted to 6s4p3d1f1g pattern {711111/2111/211/2/1}
 Group   2 Type S   : 14s5p5d2f1g contracted to 8s4p3d1f1g pattern {71111111/2111/311/2/1}
 Group   3 Type O   : 12s5p4d2f1g contracted to 6s4p3d1f1g pattern {711111/2111/211/2/1}
 Group   4 Type N   : 12s5p4d2f1g contracted to 6s4p3d1f1g pattern {711111/2111/211/2/1}
 Group   5 Type H   : 5s2p1d contracted to 3s1p1d pattern {311/2/1}

Atom   0C    basis set group =>   1
Atom   1S    basis set group =>   2
Atom   2C    basis set group =>   1
Atom   3C    basis set group =>   1
Atom   4C    basis set group =>   1
Atom   5C    basis set group =>   1
Atom   6C    basis set group =>   1
Atom   7C    basis set group =>   1
Atom   8C    basis set group =>   1
Atom   9C    basis set group =>   1
Atom  10C    basis set group =>   1
Atom  11C    basis set group =>   1
Atom  12C    basis set group =>   1
Atom  13C    basis set group =>   1
Atom  14C    basis set group =>   1
Atom  15C    basis set group =>   1
Atom  16O    basis set group =>   3
Atom  17C    basis set group =>   1
Atom  18C    basis set group =>   1
Atom  19S    basis set group =>   2
Atom  20C    basis set group =>   1
Atom  21C    basis set group =>   1
Atom  22C    basis set group =>   1
Atom  23O    basis set group =>   3
Atom  24C    basis set group =>   1
Atom  25C    basis set group =>   1
Atom  26C    basis set group =>   1
Atom  27C    basis set group =>   1
Atom  28C    basis set group =>   1
Atom  29C    basis set group =>   1
Atom  30C    basis set group =>   1
Atom  31C    basis set group =>   1
Atom  32C    basis set group =>   1
Atom  33C    basis set group =>   1
Atom  34C    basis set group =>   1
Atom  35C    basis set group =>   1
Atom  36C    basis set group =>   1
Atom  37C    basis set group =>   1
Atom  38C    basis set group =>   1
Atom  39C    basis set group =>   1
Atom  40N    basis set group =>   4
Atom  41C    basis set group =>   1
Atom  42N    basis set group =>   4
Atom  43C    basis set group =>   1
Atom  44C    basis set group =>   1
Atom  45C    basis set group =>   1
Atom  46C    basis set group =>   1
Atom  47C    basis set group =>   1
Atom  48C    basis set group =>   1
Atom  49C    basis set group =>   1
Atom  50C    basis set group =>   1
Atom  51C    basis set group =>   1
Atom  52C    basis set group =>   1
Atom  53C    basis set group =>   1
Atom  54C    basis set group =>   1
Atom  55C    basis set group =>   1
Atom  56C    basis set group =>   1
Atom  57O    basis set group =>   3
Atom  58C    basis set group =>   1
Atom  59C    basis set group =>   1
Atom  60S    basis set group =>   2
Atom  61C    basis set group =>   1
Atom  62C    basis set group =>   1
Atom  63C    basis set group =>   1
Atom  64O    basis set group =>   3
Atom  65C    basis set group =>   1
Atom  66C    basis set group =>   1
Atom  67C    basis set group =>   1
Atom  68C    basis set group =>   1
Atom  69C    basis set group =>   1
Atom  70C    basis set group =>   1
Atom  71C    basis set group =>   1
Atom  72C    basis set group =>   1
Atom  73C    basis set group =>   1
Atom  74C    basis set group =>   1
Atom  75C    basis set group =>   1
Atom  76S    basis set group =>   2
Atom  77C    basis set group =>   1
Atom  78C    basis set group =>   1
Atom  79C    basis set group =>   1
Atom  80C    basis set group =>   1
Atom  81C    basis set group =>   1
Atom  82C    basis set group =>   1
Atom  83C    basis set group =>   1
Atom  84C    basis set group =>   1
Atom  85C    basis set group =>   1
Atom  86C    basis set group =>   1
Atom  87C    basis set group =>   1
Atom  88H    basis set group =>   5
Atom  89H    basis set group =>   5
Atom  90H    basis set group =>   5
Atom  91H    basis set group =>   5
Atom  92H    basis set group =>   5
Atom  93H    basis set group =>   5
Atom  94H    basis set group =>   5
Atom  95H    basis set group =>   5
Atom  96H    basis set group =>   5
Atom  97H    basis set group =>   5
Atom  98H    basis set group =>   5
Atom  99H    basis set group =>   5
Atom 100H    basis set group =>   5
Atom 101H    basis set group =>   5
Atom 102H    basis set group =>   5
Atom 103H    basis set group =>   5
Atom 104H    basis set group =>   5
Atom 105H    basis set group =>   5
Atom 106H    basis set group =>   5
Atom 107H    basis set group =>   5
Atom 108H    basis set group =>   5
Atom 109H    basis set group =>   5
Atom 110H    basis set group =>   5
Atom 111H    basis set group =>   5
Atom 112H    basis set group =>   5
Atom 113H    basis set group =>   5
Atom 114H    basis set group =>   5
Atom 115H    basis set group =>   5
Atom 116H    basis set group =>   5
Atom 117H    basis set group =>   5
Atom 118H    basis set group =>   5
Atom 119H    basis set group =>   5
Atom 120H    basis set group =>   5
Atom 121H    basis set group =>   5
Atom 122H    basis set group =>   5
Atom 123H    basis set group =>   5
Atom 124H    basis set group =>   5
Atom 125H    basis set group =>   5
Atom 126H    basis set group =>   5
Atom 127H    basis set group =>   5
Atom 128H    basis set group =>   5
Atom 129H    basis set group =>   5
Atom 130H    basis set group =>   5
Atom 131H    basis set group =>   5
Atom 132H    basis set group =>   5
Atom 133H    basis set group =>   5
Atom 134H    basis set group =>   5
Atom 135H    basis set group =>   5
Atom 136H    basis set group =>   5
Atom 137H    basis set group =>   5
Atom 138H    basis set group =>   5
Atom 139H    basis set group =>   5
Atom 140H    basis set group =>   5
Atom 141H    basis set group =>   5
Atom 142H    basis set group =>   5
Atom 143H    basis set group =>   5
Atom 144H    basis set group =>   5
Atom 145H    basis set group =>   5
Atom 146H    basis set group =>   5
Atom 147H    basis set group =>   5


           ************************************************************
           *        Program running with 6 parallel MPI-processes     *
           *              working on a common directory               *
           ************************************************************
------------------------------------------------------------------------------
                           ORCA GTO INTEGRAL CALCULATION
                           -- RI-GTO INTEGRALS CHOSEN --
------------------------------------------------------------------------------

                         BASIS SET STATISTICS AND STARTUP INFO

Gaussian basis set:
 # of primitive gaussian shells          ... 1380
 # of primitive gaussian functions       ... 2580
 # of contracted shells                  ...  716
 # of contracted basis functions         ... 1548
 Highest angular momentum                ...    2
 Maximum contraction depth               ...    5
Auxiliary gaussian basis set:
 # of primitive gaussian shells          ... 2604
 # of primitive gaussian functions       ... 7148
 # of contracted shells                  ... 1628
 # of contracted aux-basis functions     ... 4980
 Highest angular momentum                ...    4
 Maximum contraction depth               ...    7
Ratio of auxiliary to basis functions    ...  3.22
Integral package used                  ... LIBINT
 One Electron integrals                  ... done
 Ordering auxiliary basis shells         ... done
 Integral threshhold             Thresh  ...  2.500e-11
 Primitive cut-off               TCut    ...  2.500e-12
 Pre-screening matrix                    ... done
 Shell pair data                         ... 
 Ordering of the shell pairs             ... done (   0.015 sec) 72447 of 256686 pairs
 Determination of significant pairs      ... done (   0.000 sec)
 Creation of shell pair data             ... done (   0.009 sec)
 Storage of shell pair data              ... done (   0.014 sec)
 Shell pair data done in (   0.039 sec)
 Computing two index integrals           ... done
 Cholesky decomposition of the V-matrix  ... done


Timings:
 Total evaluation time                   ...   3.783 sec (  0.063 min)
 One electron matrix time                ...   1.184 sec (  0.020 min) = 31.3%
 Schwartz matrix evaluation time         ...   0.987 sec (  0.016 min) = 26.1%
 Two index repulsion integral time       ...   0.578 sec (  0.010 min) = 15.3%
 Cholesky decomposition of V             ...   0.977 sec (  0.016 min) = 25.8%
 Three index repulsion integral time     ...   0.000 sec (  0.000 min) =  0.0%



           ************************************************************
           *        Program running with 6 parallel MPI-processes     *
           *              working on a common directory               *
           ************************************************************
-------------------------------------------------------------------------------
                                 ORCA SCF
-------------------------------------------------------------------------------

------------
SCF SETTINGS
------------
Hamiltonian:
 Density Functional     Method          .... DFT(GTOs)
 Exchange Functional    Exchange        .... WB88
 Correlation Functional Correlation     .... LYP
 LDA part of GGA corr.  LDAOpt          .... VWN-5
 Gradients option       PostSCFGGA      .... off
 Hybrid DFT is turned on
   Fraction HF Exchange ScalHFX         ....  0.190000
   Scaling of DF-GGA-X  ScalDFX         ....  0.350000
   Scaling of DF-GGA-C  ScalDFC         ....  0.810000
   Scaling of DF-LDA-C  ScalLDAC        ....  1.000000
   Perturbative correction              ....  0.000000
   Density functional embedding theory  .... OFF
 Long-range corrected/Screened/Range-Separated Hybrid DFT is turned on
   Amount of maximum screened exact exchange              ....  0.460000
   Range separation parameter mu (erf(mu*r12)/r12)        ....  0.330000
 RI-approximation to the Coulomb term is turned on
   Number of auxiliary basis functions  .... 4980
   RIJ-COSX (HFX calculated with COS-X)).... on


General Settings:
 Integral files         IntName         .... xtbopt
 Hartree-Fock type      HFTyp           .... RHF
 Total Charge           Charge          ....    0
 Multiplicity           Mult            ....    1
 Number of Electrons    NEL             ....  638
 Basis Dimension        Dim             .... 1548
 Nuclear Repulsion      ENuc            ....  14371.7323004960 Eh

Convergence Acceleration:
 DIIS                   CNVDIIS         .... on
   Start iteration      DIISMaxIt       ....    12
   Startup error        DIISStart       ....  0.200000
   # of expansion vecs  DIISMaxEq       ....     5
   Bias factor          DIISBfac        ....   1.050
   Max. coefficient     DIISMaxC        ....  10.000
 Newton-Raphson         CNVNR           .... off
 SOSCF                  CNVSOSCF        .... on
   Start iteration      SOSCFMaxIt      ....   150
   Startup grad/error   SOSCFStart      ....  0.003300
 Level Shifting         CNVShift        .... on
   Level shift para.    LevelShift      ....    0.2500
   Turn off err/grad.   ShiftErr        ....    0.0010
 Zerner damping         CNVZerner       .... off
 Static damping         CNVDamp         .... on
   Fraction old density DampFac         ....    0.7000
   Max. Damping (<1)    DampMax         ....    0.9800
   Min. Damping (>=0)   DampMin         ....    0.0000
   Turn off err/grad.   DampErr         ....    0.1000
 Fernandez-Rico         CNVRico         .... off

SCF Procedure:
 Maximum # iterations   MaxIter         ....   125
 SCF integral mode      SCFMode         .... Direct
   Integral package                     .... LIBINT
 Reset frequency        DirectResetFreq ....    20
 Integral Threshold     Thresh          ....  2.500e-11 Eh
 Primitive CutOff       TCut            ....  2.500e-12 Eh

Convergence Tolerance:
 Convergence Check Mode ConvCheckMode   .... Total+1el-Energy
 Convergence forced     ConvForced      .... 1
 Energy Change          TolE            ....  1.000e-08 Eh
 1-El. energy change                    ....  1.000e-05 Eh
 Orbital Gradient       TolG            ....  1.000e-05
 Orbital Rotation angle TolX            ....  1.000e-05
 DIIS Error             TolErr          ....  5.000e-07


Diagonalization of the overlap matrix:
Smallest eigenvalue                        ... 2.179e-04
Time for diagonalization                   ...    0.336 sec
Threshold for overlap eigenvalues          ... 1.000e-08
Number of eigenvalues below threshold      ... 0
Time for construction of square roots      ...    0.266 sec
Total time needed                          ...    0.607 sec

-------------------
DFT GRID GENERATION
-------------------

General Integration Accuracy     IntAcc      ...  4.670
Radial Grid Type                 RadialGrid  ... Gauss-Chebyshev
Angular Grid (max. acc.)         AngularGrid ... Lebedev-302
Angular grid pruning method      GridPruning ... 3 (G Style)
Weight generation scheme         WeightScheme... Becke
Basis function cutoff            BFCut       ...    1.0000e-11
Integration weight cutoff        WCut        ...    1.0000e-14
Grids for H and He will be reduced by one unit

# of grid points (after initial pruning)     ... 752832 (   0.1 sec)
# of grid points (after weights+screening)   ... 633611 (  15.4 sec)
nearest neighbour list constructed           ...    0.0 sec
Grid point re-assignment to atoms done       ...    0.1 sec
Grid point division into batches done        ...    2.0 sec
Reduced shell lists constructed in    3.4 sec

Total number of grid points                  ...   633611
Total number of batches                      ...     9973
Average number of points per batch           ...       63
Average number of grid points per atom       ...     4281
Average number of shells per batch           ...   111.78 (15.61%)
Average number of basis functions per batch  ...   228.86 (14.78%)
Average number of large shells per batch     ...    68.43 (61.22%)
Average number of large basis fcns per batch ...   142.84 (62.41%)
Maximum spatial batch extension              ...  20.45, 17.26, 17.60 au
Average spatial batch extension              ...   0.26,  0.27,  0.28 au

Time for grid setup =   19.566 sec

------------------------------
INITIAL GUESS: MODEL POTENTIAL
------------------------------
Loading Hartree-Fock densities                     ... done
Calculating cut-offs                               ... done
Setting up the integral package                    ... done
Initializing the effective Hamiltonian             ... done
Starting the Coulomb interaction                   ... done (   2.7 sec)
Reading the grid                                   ... done
Mapping shells                                     ... done
Starting the XC term evaluation                    ... done (   2.0 sec)
  promolecular density results
     # of electrons  =    637.969474497
     EX              =   -562.385912033
     EC              =    -21.861499922
     EX+EC           =   -584.247411955
Transforming the Hamiltonian                       ... done (   0.2 sec)
Diagonalizing the Hamiltonian                      ... done (   0.4 sec)
Back transforming the eigenvectors                 ... done (   0.1 sec)
Now organizing SCF variables                       ... done
                      ------------------
                      INITIAL GUESS DONE (  25.1 sec)
                      ------------------
--------------------
COSX GRID GENERATION
--------------------

General Integration Accuracy     IntAcc      ...  3.340
Radial Grid Type                 RadialGrid  ... Gauss-Chebyshev
Angular Grid (max. acc.)         AngularGrid ... Lebedev-50
Angular grid pruning method      GridPruning ... 3 (G Style)
Weight generation scheme         WeightScheme... Becke
Basis function cutoff            BFCut       ...    1.0000e-11
Integration weight cutoff        WCut        ...    1.0000e-14
Grids for H and He will be reduced by one unit

# of grid points (after initial pruning)     ...  70716 (   0.0 sec)
# of grid points (after weights+screening)   ...  62324 (   1.4 sec)
nearest neighbour list constructed           ...    0.0 sec
Grid point re-assignment to atoms done       ...    0.0 sec
Grid point division into batches done        ...    0.0 sec
Reduced shell lists constructed in    0.2 sec

Total number of grid points                  ...    62324
Total number of batches                      ...     1054
Average number of points per batch           ...       59
Average number of grid points per atom       ...      421
Average number of shells per batch           ...   130.69 (18.25%)
Average number of basis functions per batch  ...   269.34 (17.40%)
Average number of large shells per batch     ...    78.51 (60.07%)
Average number of large basis fcns per batch ...   165.63 (61.50%)
Maximum spatial batch extension              ...  16.13, 13.31, 17.81 au
Average spatial batch extension              ...   0.52,  0.52,  0.59 au

Overlap Fitting                  UseSFitting ... on
Constructing numerical overlap ... done (      0.1 sec)
Inverting numerical overlap    ... done (      0.1 sec)
Obtaining analytic overlap     ... done (      0.0 sec)
Final contraction and storage  ... done (      0.1 sec)


General Integration Accuracy     IntAcc      ...  3.670
Radial Grid Type                 RadialGrid  ... Gauss-Chebyshev
Angular Grid (max. acc.)         AngularGrid ... Lebedev-50
Angular grid pruning method      GridPruning ... 3 (G Style)
Weight generation scheme         WeightScheme... Becke
Basis function cutoff            BFCut       ...    1.0000e-11
Integration weight cutoff        WCut        ...    1.0000e-14
Grids for H and He will be reduced by one unit

# of grid points (after initial pruning)     ...  89040 (   0.0 sec)
# of grid points (after weights+screening)   ...  78134 (   1.8 sec)
nearest neighbour list constructed           ...    0.0 sec
Grid point re-assignment to atoms done       ...    0.0 sec
Grid point division into batches done        ...    0.0 sec
Reduced shell lists constructed in    0.2 sec

Total number of grid points                  ...    78134
Total number of batches                      ...     1287
Average number of points per batch           ...       60
Average number of grid points per atom       ...      528
Average number of shells per batch           ...   128.62 (17.96%)
Average number of basis functions per batch  ...   264.81 (17.11%)
Average number of large shells per batch     ...    77.37 (60.15%)
Average number of large basis fcns per batch ...   163.19 (61.62%)
Maximum spatial batch extension              ...  19.47, 14.12, 17.22 au
Average spatial batch extension              ...   0.49,  0.49,  0.54 au

Overlap Fitting                  UseSFitting ... on
Constructing numerical overlap ... done (      0.2 sec)
Inverting numerical overlap    ... done (      0.1 sec)
Obtaining analytic overlap     ... done (      0.0 sec)
Final contraction and storage  ... done (      0.1 sec)


General Integration Accuracy     IntAcc      ...  4.010
Radial Grid Type                 RadialGrid  ... Gauss-Chebyshev
Angular Grid (max. acc.)         AngularGrid ... Lebedev-110
Angular grid pruning method      GridPruning ... 3 (G Style)
Weight generation scheme         WeightScheme... Becke
Basis function cutoff            BFCut       ...    1.0000e-11
Integration weight cutoff        WCut        ...    1.0000e-14
Grids for H and He will be reduced by one unit

# of grid points (after initial pruning)     ... 169736 (   0.0 sec)
# of grid points (after weights+screening)   ... 147637 (   3.6 sec)
nearest neighbour list constructed           ...    0.0 sec
Grid point re-assignment to atoms done       ...    0.0 sec
Grid point division into batches done        ...    0.1 sec
Reduced shell lists constructed in    0.5 sec

Total number of grid points                  ...   147637
Total number of batches                      ...     2378
Average number of points per batch           ...       62
Average number of grid points per atom       ...      998
Average number of shells per batch           ...   123.64 (17.27%)
Average number of basis functions per batch  ...   254.37 (16.43%)
Average number of large shells per batch     ...    75.37 (60.96%)
Average number of large basis fcns per batch ...   158.61 (62.35%)
Maximum spatial batch extension              ...  18.42, 14.80, 17.71 au
Average spatial batch extension              ...   0.42,  0.44,  0.46 au

Overlap Fitting                  UseSFitting ... on
Constructing numerical overlap ... done (      0.3 sec)
Inverting numerical overlap    ... done (      0.1 sec)
Obtaining analytic overlap     ... done (      0.0 sec)
Final contraction and storage  ... done (      0.1 sec)

Time for X-Grid setup             =    9.558 sec
--------------
SCF ITERATIONS
--------------
ITER       Energy         Delta-E        Max-DP      RMS-DP      [F,P]     Damp
               ***  Starting incremental Fock matrix formation  ***
  0  -5004.8390476199   0.000000000000 0.07969630  0.00079620  0.2296684 0.7000
  1  -5005.6098286906  -0.770781070749 0.04638980  0.00057790  0.1171868 0.7000
                               ***Turning on DIIS***
  2  -5005.9713408438  -0.361512153140 0.09087323  0.00106925  0.0454016 0.0000
[...]
 
sTD-DFT procedure...
setting up A+B and A-B matrices...  done
estimated time (min):    0.001
calculating (A-B)^0.5 ... done
calculating (A+B)*(A-B)^0.5 ... done
calculating (A-B)^0.5 *(A+B)*(A-B)^0.5 ... done
diagonalizing ...using LAPACKE_ssyevr ...done

   44 roots found, lowest/highest eigenvalue :     1.924     4.994

excitation energies, transition moments and amplitudes

molecular weight: 1217.588
state   eV        nm        fL         fV        Rl        RV
   0   1.924     644.5   0.062137   0.057772  -19.542382  -19.114186     0.78 ( 114-> 115)    0.19 ( 114-> 116)    0.01 ( 114-> 130)
   1   2.681     462.5   0.011430   0.011218   2.131030   2.716213     0.74 ( 114-> 116)    0.18 ( 114-> 115)    0.06 ( 114-> 117)
   2   3.002     413.0   0.054628   0.055135  -32.193572  -31.178499     0.52 ( 113-> 115)    0.18 ( 113-> 116)    0.13 ( 113-> 121)
   3   3.180     389.9   0.784043   0.773147  -9.654832  -29.583162     0.72 ( 112-> 116)    0.26 ( 112-> 115)    0.00 ( 112-> 123)
   4   3.391     365.6   0.120204   0.120811  -165.711078  -126.070615     0.40 ( 113-> 119)    0.18 ( 114-> 119)    0.15 ( 113-> 115)
   5   3.435     360.9   0.003094   0.002820   6.195975   5.909771     0.88 ( 114-> 117)    0.05 ( 114-> 116)    0.03 ( 114-> 118)
   6   3.451     359.2   0.130319   0.122271  136.401375  130.520631     0.36 ( 114-> 119)    0.23 ( 114-> 121)    0.19 ( 113-> 119)
   7   3.542     350.1   0.000176   0.000128   0.311415  -0.032181     0.93 ( 114-> 118)    0.03 ( 114-> 117)    0.01 ( 114-> 119)
   8   3.588     345.6   0.059392   0.055269  10.466064  12.947498     0.29 ( 111-> 115)    0.21 ( 114-> 119)    0.09 ( 110-> 115)
   9   3.666     338.2   0.107971   0.096258  11.785387  10.469506     0.36 ( 114-> 121)    0.18 ( 114-> 119)    0.12 ( 110-> 115)
  10   3.711     334.1   0.011364   0.011009  -13.376133  -13.987397     0.68 ( 112-> 115)    0.25 ( 112-> 116)    0.02 ( 112-> 117)
  11   3.738     331.6   0.171695   0.158184  -165.391388  -131.661811     0.57 ( 113-> 121)    0.19 ( 113-> 119)    0.15 ( 113-> 120)
  12   3.791     327.1   0.015417   0.013997  33.124730  32.414743     0.60 ( 114-> 122)    0.10 ( 110-> 115)    0.07 ( 108-> 115)
  13   3.855     321.6   0.113814   0.101872  -142.486951  -145.963025     0.87 ( 112-> 117)    0.03 ( 112-> 115)    0.01 ( 110-> 115)
  14   3.880     319.5   0.000084   0.000071   0.047483   0.030088     0.74 ( 113-> 116)    0.25 ( 113-> 115)    0.00 ( 113-> 117)
  15   3.882     319.4   0.009885   0.009226  -8.867190  -7.852432     0.42 ( 108-> 115)    0.22 ( 110-> 115)    0.14 ( 108-> 116)
  16   3.969     312.4   0.735694   0.647156  190.538353  171.374034     0.21 ( 111-> 115)    0.17 ( 114-> 122)    0.12 ( 110-> 115)
  17   4.062     305.2   0.007669   0.006404  -4.064304  -2.088488     0.79 ( 113-> 120)    0.12 ( 113-> 121)    0.03 ( 114-> 120)
  18   4.108     301.8   0.033963   0.030240   7.482977   5.283811     0.76 ( 114-> 120)    0.13 ( 114-> 121)    0.04 ( 114-> 119)
  19   4.156     298.4   0.027259   0.022568  -19.268563  -16.413584     0.25 ( 106-> 116)    0.24 ( 112-> 122)    0.19 ( 106-> 115)
  20   4.333     286.1   0.044160   0.037524  22.031899  17.637803     0.48 ( 114-> 123)    0.30 ( 106-> 115)    0.06 ( 106-> 116)
  21   4.343     285.5   0.067810   0.055739  17.543090  15.059532     0.39 ( 114-> 123)    0.29 ( 106-> 115)    0.13 ( 106-> 116)
  22   4.354     284.8   0.001422   0.001199  -1.077444   0.797182     0.40 ( 110-> 116)    0.15 ( 110-> 117)    0.12 ( 111-> 116)
  23   4.408     281.3   0.021802   0.016202  11.537092  11.409051     0.39 ( 112-> 123)    0.22 ( 106-> 116)    0.08 ( 112-> 122)
  24   4.505     275.2   0.018445   0.014434  48.426721  46.435502     0.33 ( 112-> 122)    0.21 ( 104-> 116)    0.08 ( 104-> 115)
  25   4.522     274.2   0.000060   0.000053   0.133312   0.124250     0.99 ( 113-> 117)    0.00 ( 113-> 116)    0.00 ( 113-> 118)
  26   4.568     271.4   0.010629   0.006594  -5.571012   1.626798     0.69 ( 110-> 118)    0.10 ( 111-> 118)    0.07 ( 108-> 118)
  27   4.588     270.2   0.013187   0.011994  10.299749   6.400655     0.18 ( 109-> 115)    0.08 ( 107-> 119)    0.07 ( 105-> 121)
  28   4.599     269.6   0.005084   0.004554   3.405671   2.891289     0.15 ( 114-> 124)    0.13 ( 109-> 115)    0.09 ( 107-> 115)
  29   4.631     267.7   0.065070   0.053990  -36.124572  -36.838559     0.29 ( 114-> 124)    0.12 ( 114-> 128)    0.11 ( 109-> 115)
  30   4.640     267.2   0.026317   0.020126  35.080157  31.555345     0.66 ( 113-> 124)    0.11 ( 113-> 128)    0.06 ( 113-> 129)
  31   4.659     266.1   0.040630   0.034951   5.486012  -3.224335     0.39 ( 112-> 118)    0.10 ( 112-> 126)    0.09 ( 112-> 122)
  32   4.664     265.8   0.019361   0.016094  -28.919553  -26.620982     0.39 ( 111-> 116)    0.13 ( 111-> 115)    0.08 ( 109-> 116)
  33   4.680     264.9   0.033109   0.026623   9.682658   9.125348     0.13 ( 114-> 131)    0.10 ( 114-> 135)    0.09 ( 101-> 115)
  34   4.697     263.9   0.021609   0.018187   3.726544  -1.873133     0.47 ( 112-> 118)    0.16 ( 112-> 123)    0.07 ( 112-> 126)
  35   4.724     262.4   0.000082   0.000033  -0.092464  -0.018927     0.98 ( 113-> 118)    0.02 ( 113-> 119)    0.00 ( 113-> 117)
  36   4.794     258.6   0.042190   0.034561  -16.423325  -5.124179     0.15 (  90-> 116)    0.11 ( 112-> 122)    0.08 (  90-> 117)
  37   4.801     258.2   0.036873   0.027274  92.818182  70.482188     0.24 ( 113-> 129)    0.09 ( 113-> 128)    0.08 ( 111-> 119)
  38   4.827     256.8   0.040983   0.033161  11.471494  11.914959     0.90 ( 114-> 125)    0.02 ( 114-> 130)    0.01 ( 113-> 129)
  39   4.849     255.7   0.507171   0.412324  143.574965  140.736592     0.30 ( 114-> 130)    0.08 ( 113-> 129)    0.06 ( 114-> 125)
  40   4.882     254.0   0.005252   0.003949  -6.094887  -5.428104     0.52 ( 108-> 116)    0.17 ( 108-> 115)    0.12 ( 108-> 117)
  41   4.892     253.4   0.193604   0.147301  -173.799987  -141.539326     0.19 ( 111-> 119)    0.10 ( 113-> 129)    0.10 ( 114-> 124)
  42   4.916     252.2   0.013930   0.008019  -4.499696  -1.709124     0.31 ( 114-> 124)    0.23 ( 114-> 129)    0.08 ( 114-> 128)
  43   4.994     248.3   0.353342   0.297944  87.678437  76.136791     0.19 ( 112-> 126)    0.18 ( 104-> 116)    0.12 (  95-> 116)

-----------------------------------------------------------------------------
         ABSORPTION SPECTRUM VIA TRANSITION ELECTRIC DIPOLE MOMENTS
-----------------------------------------------------------------------------
State   Energy  Wavelength   fosc         T2         TX        TY        TZ  
        (cm-1)    (nm)                  (au**2)     (au)      (au)      (au) 
-----------------------------------------------------------------------------
   0   15516.9    644.5   0.062136609   1.31831  -0.35743  -0.94393   0.54732
   1   21619.8    462.5   0.011429541   0.17404  -0.05026   0.30314   0.28217
   2   24214.8    413.0   0.054627509   0.74269   0.40085   0.34322  -0.68133
   3   25649.6    389.9   0.784042817  10.06316   1.89395   2.34634   0.98529
   4   27349.3    365.6   0.120204284   1.44694   0.23207   0.23397  -1.15687
   5   27706.3    360.9   0.003093554   0.03676   0.00086  -0.18308  -0.05690
   6   27836.7    359.2   0.130318775   1.54122   0.04834   1.21643  -0.24325
   7   28566.6    350.1   0.000176247   0.00203   0.04425   0.00844  -0.00146
   8   28936.9    345.6   0.059391657   0.67569   0.47283  -0.14828  -0.65585
   9   29566.4    338.2   0.107970547   1.20222   0.58177  -0.47857  -0.79670
  10   29933.8    334.1   0.011364243   0.12498   0.03493   0.12176   0.33006
  11   30152.3    331.6   0.171695030   1.87462   0.48057  -0.76437   1.02927
  12   30572.8    327.1   0.015417023   0.16601  -0.15565  -0.34561  -0.14946
  13   31094.3    321.6   0.113813558   1.20500   0.29043   0.37351   0.99053
  14   31294.8    319.5   0.000083871   0.00088  -0.02430   0.01127   0.01282
  15   31307.9    319.4   0.009885321   0.10395  -0.25115   0.13005  -0.15478
  16   32009.4    312.4   0.735693785   7.56649   1.14683  -1.80461  -1.73050
  17   32763.8    305.2   0.007668558   0.07705   0.11709   0.18662  -0.16887
  18   33136.6    301.8   0.033962598   0.33742  -0.24739   0.38404   0.35878
  19   33517.1    298.4   0.027258971   0.26774   0.27538   0.15750  -0.40878
  20   34950.2    286.1   0.044160012   0.41596   0.17625  -0.30160  -0.54216
  21   35026.5    285.5   0.067810239   0.63734   0.25744  -0.41301  -0.63285
  22   35115.6    284.8   0.001421826   0.01333   0.05773  -0.09680  -0.02502
  23   35551.1    281.3   0.021802164   0.20189   0.11082   0.08843  -0.42637
  24   36334.7    275.2   0.018444936   0.16712  -0.14711   0.36152   0.12157
  25   36471.0    274.2   0.000059646   0.00054  -0.00959   0.01503   0.01485
  26   36842.0    271.4   0.010629278   0.09498  -0.08506   0.12272   0.26960
  27   37005.3    270.2   0.013186741   0.11731  -0.22102   0.23331   0.11844
  28   37096.4    269.6   0.005083915   0.04512  -0.10174   0.03656   0.18284
  29   37354.1    267.7   0.065069601   0.57348  -0.35890   0.43746   0.50329
  30   37427.7    267.2   0.026316977   0.23148  -0.12697   0.46359  -0.02118
  31   37579.3    266.1   0.040629505   0.35593   0.02759  -0.42914   0.41353
  32   37619.5    265.8   0.019361482   0.16943   0.18302   0.13792  -0.34193
  33   37744.3    264.9   0.033109095   0.28878   0.12080   0.52357   0.00811
  34   37886.4    263.9   0.021608631   0.18777  -0.03689   0.35266  -0.24907
  35   38104.6    262.4   0.000081563   0.00070   0.00087  -0.01176   0.02378
  36   38664.1    258.6   0.042189694   0.35923   0.10596  -0.33844   0.48318
  37   38724.4    258.2   0.036873126   0.31347   0.44953  -0.26763  -0.19942
  38   38935.0    256.8   0.040983199   0.34653  -0.07823   0.54300   0.21346
  39   39106.0    255.7   0.507170980   4.26959   0.60673  -1.62653  -1.12066
  40   39372.3    254.0   0.005251831   0.04391  -0.06610   0.03902   0.19499
  41   39459.2    253.4   0.193604207   1.61526  -0.55647  -1.11928  -0.22981
  42   39647.1    252.2   0.013929719   0.11567  -0.29277  -0.15436   0.07825
  43   40278.6    248.3   0.353341976   2.88799   0.07729   1.45137  -0.88065

-----------------------------------------------------------------------------
         ABSORPTION SPECTRUM VIA TRANSITION VELOCITY DIPOLE MOMENTS
-----------------------------------------------------------------------------
State   Energy  Wavelength   fosc         P2         PX        PY        PZ  
        (cm-1)    (nm)                  (au**2)     (au)      (au)      (au) 
-----------------------------------------------------------------------------
   0   15516.9    644.5   0.057771612   0.00613  -0.02154  -0.06678   0.03469
   1   21619.8    462.5   0.011217788   0.00166  -0.00567   0.02761   0.02938
   2   24214.8    413.0   0.055134570   0.00912   0.04403   0.03931  -0.07510
   3   25649.6    389.9   0.773146837   0.13553   0.22118   0.27179   0.11289
   4   27349.3    365.6   0.120810882   0.02258   0.03237   0.03449  -0.14263
   5   27706.3    360.9   0.002820055   0.00053   0.00019  -0.02213  -0.00666
   6   27836.7    359.2   0.122270915   0.02326   0.00389   0.14960  -0.02945
   7   28566.6    350.1   0.000128151   0.00003   0.00489  -0.00023  -0.00102
   8   28936.9    345.6   0.055269119   0.01093   0.06151  -0.01976  -0.08220
   9   29566.4    338.2   0.096257769   0.01945   0.07379  -0.06267  -0.10040
  10   29933.8    334.1   0.011008911   0.00225   0.00575   0.01627   0.04421
  11   30152.3    331.6   0.158184052   0.03260   0.06035  -0.10371   0.13491
  12   30572.8    327.1   0.013996663   0.00292  -0.02070  -0.04488  -0.02196
  13   31094.3    321.6   0.101871727   0.02165   0.03847   0.04418   0.13497
  14   31294.8    319.5   0.000070888   0.00002  -0.00317   0.00166   0.00154
  15   31307.9    319.4   0.009226108   0.00197  -0.03385   0.01800  -0.02246
  16   32009.4    312.4   0.647156285   0.14158   0.15585  -0.24820  -0.23598
  17   32763.8    305.2   0.006403771   0.00143   0.01778   0.02467  -0.02257
  18   33136.6    301.8   0.030240164   0.00685  -0.03413   0.05532   0.05121
  19   33517.1    298.4   0.022568457   0.00517   0.03601   0.02151  -0.05840
  20   34950.2    286.1   0.037524390   0.00896   0.02440  -0.04597  -0.07909
  21   35026.5    285.5   0.055738897   0.01334   0.03682  -0.06069  -0.09113
  22   35115.6    284.8   0.001199413   0.00029   0.01029  -0.01339  -0.00165
  23   35551.1    281.3   0.016201640   0.00394   0.01792   0.00777  -0.05962
  24   36334.7    275.2   0.014434180   0.00358  -0.02277   0.05031   0.02313
  25   36471.0    274.2   0.000053487   0.00001  -0.00148   0.00212   0.00258
  26   36842.0    271.4   0.006594484   0.00166  -0.01548   0.01393   0.03503
  27   37005.3    270.2   0.011993680   0.00303  -0.03536   0.03567   0.02259
  28   37096.4    269.6   0.004553930   0.00115  -0.01598   0.00515   0.02954
  29   37354.1    267.7   0.053990387   0.01378  -0.05338   0.07196   0.07587
  30   37427.7    267.2   0.020125648   0.00515  -0.01654   0.06975  -0.00302
  31   37579.3    266.1   0.034951345   0.00898   0.00122  -0.06873   0.06520
  32   37619.5    265.8   0.016094006   0.00414   0.02922   0.02132  -0.05319
  33   37744.3    264.9   0.026622609   0.00687   0.01887   0.08067   0.00214
  34   37886.4    263.9   0.018187281   0.00471  -0.00353   0.05485  -0.04110
  35   38104.6    262.4   0.000032889   0.00001  -0.00041  -0.00092   0.00275
  36   38664.1    258.6   0.034560921   0.00913   0.02133  -0.05847   0.07252
  37   38724.4    258.2   0.027274288   0.00722   0.06188  -0.05084  -0.02837
  38   38935.0    256.8   0.033161070   0.00882  -0.01408   0.08648   0.03388
  39   39106.0    255.7   0.412324411   0.11020   0.09899  -0.26288  -0.17691
  40   39372.3    254.0   0.003948760   0.00106  -0.00952   0.00670   0.03045
  41   39459.2    253.4   0.147300872   0.03972  -0.07979  -0.17860  -0.03820
  42   39647.1    252.2   0.008019454   0.00217  -0.04003  -0.02223   0.00873
  43   40278.6    248.3   0.297943900   0.08202   0.01380   0.24512  -0.14747

-------------------------------------------------------------------
                             CD SPECTRUM
-------------------------------------------------------------------
State   Energy Wavelength       R         MX        MY        MZ   
        (cm-1)   (nm)       (1e40*cgs)   (au)      (au)      (au)  
-------------------------------------------------------------------
   0   15516.9    644.5    -19.54238   0.81773   0.06317   0.79444
   1   21619.8    462.5      2.13103   0.27635   0.01856  -0.00276
   2   24214.8    413.0    -32.19357  -1.71618  -0.48917  -1.45656
   3   25649.6    389.9     -9.65483   5.57102  -4.51248   0.07870
   4   27349.3    365.6    -165.71108  -3.26672  -1.37393  -1.54084
   5   27706.3    360.9      6.19598  -0.04294   0.12132   0.07095
   6   27836.7    359.2    136.40138  -0.67165  -0.63882  -0.94922
   7   28566.6    350.1      0.31142  -0.01107  -0.10661  -0.04643
   8   28936.9    345.6     10.46606  -1.10178  -0.68321  -0.57215
   9   29566.4    338.2     11.78539  -1.70822  -0.47726  -0.89794
  10   29933.8    334.1    -13.37613   0.45305  -0.19816   0.19707
  11   30152.3    331.6    -165.39139   3.36747   1.80175   0.44742
  12   30572.8    327.1     33.12473   0.01636   0.24655   0.35304
  13   31094.3    321.6    -142.48695   0.57228  -0.89253   0.77901
  14   31294.8    319.5      0.04748   0.04882   0.05856   0.02534
  15   31307.9    319.4     -8.86719  -0.12159   0.44827   0.33089
  16   32009.4    312.4    190.53835  -4.48695  -0.83524  -1.63546
  17   32763.8    305.2     -4.06430  -0.48504  -0.19425  -0.65308
  18   33136.6    301.8      7.48298   0.89530   0.17674   0.33967
  19   33517.1    298.4    -19.26856   0.52660  -0.71444  -0.12048
  20   34950.2    286.1     22.03190  -1.41879   0.06721  -0.32622
  21   35026.5    285.5     17.54309  -1.60702  -0.10342  -0.46864
  22   35115.6    284.8     -1.07744  -0.32296  -0.17820  -0.23848
  23   35551.1    281.3     11.53709  -0.27973   0.06904   0.05640
  24   36334.7    275.2     48.42672   1.41255   0.04845  -0.12468
  25   36471.0    274.2      0.13331   0.06916   0.00504   0.00147
  26   36842.0    271.4     -5.57101   0.95287   0.00533   0.38586
  27   37005.3    270.2     10.29975   0.70904   0.11990   0.71800
  28   37096.4    269.6      3.40567   0.60124   0.01587   0.25235
  29   37354.1    267.7    -36.12457   1.58493   0.39164   1.09431
  30   37427.7    267.2     35.08016  -0.16536  -0.36955  -0.07088
  31   37579.3    266.1      5.48601  -2.00033   0.23919   0.32542
  32   37619.5    265.8    -28.91955   0.30792  -0.30551  -0.31721
  33   37744.3    264.9      9.68266   0.48300  -0.18203  -0.50790
  34   37886.4    263.9      3.72654   1.42637  -0.10113  -0.29097
  35   38104.6    262.4     -0.09246   0.09677   0.04164   0.03354
  36   38664.1    258.6    -16.42332  -1.55603  -0.23714   0.31931
  37   38724.4    258.2     92.81818  -1.31483  -0.04261  -0.93216
  38   38935.0    256.8     11.47149   0.75363   0.03188  -0.03290
  39   39106.0    255.7    143.57496  -3.93426  -0.39430  -1.01424
  40   39372.3    254.0     -6.09489   0.16483  -0.06474   0.20143
  41   39459.2    253.4    -173.79999  -0.75723  -0.66976   1.88725
  42   39647.1    252.2     -4.49970   0.33767  -0.33348   0.84945
  43   40278.6    248.3     87.67844   5.36499  -0.76286  -0.36403

sTD-DFT done

Total run time:        6.476 sec

           *** ORCA-CIS/TD-DFT FINISHED WITHOUT ERROR ***

-------------------------   --------------------
FINAL SINGLE POINT ENERGY     -5006.644791887128
-------------------------   --------------------


                            ***************************************
                            *     ORCA property calculations      *
                            ***************************************

                                    ---------------------
                                    Active property flags
                                    ---------------------
   (+) Dipole Moment


------------------------------------------------------------------------------
                       ORCA ELECTRIC PROPERTIES CALCULATION
------------------------------------------------------------------------------

Dipole Moment Calculation                       ... on
Quadrupole Moment Calculation                   ... off
Polarizability Calculation                      ... off
GBWName                                         ... xtbopt.gbw
Electron density file                           ... xtbopt.scfp
The origin for moment calculation is the CENTER OF MASS  = ( 0.263682, -13.645207  8.249376)

-------------
DIPOLE MOMENT
-------------
                                X             Y             Z
Electronic contribution:    -29.49497     -40.27058       9.91031
Nuclear contribution   :     28.13233      43.35682      -8.24232
                        -----------------------------------------
Total Dipole Moment    :     -1.36264       3.08624       1.66800
                        -----------------------------------------
Magnitude (a.u.)       :      3.76350
Magnitude (Debye)      :      9.56605



--------------------
Rotational spectrum 
--------------------
 
Rotational constants in cm-1:     0.000795     0.000211     0.000178 
Rotational constants in MHz :    23.841814     6.313222     5.327434 

 Dipole components along the rotational axes: 
x,y,z [a.u.] :     3.500768     0.531234     1.275273 
x,y,z [Debye]:     8.898245     1.350289     3.241486 

 

Timings for individual modules:

Sum of individual times         ...      998.014 sec (=  16.634 min)
GTO integral calculation        ...        4.644 sec (=   0.077 min)   0.5 %
SCF iterations                  ...      985.846 sec (=  16.431 min)  98.8 %
CIS module                      ...        7.524 sec (=   0.125 min)   0.8 %
                             ****ORCA TERMINATED NORMALLY****
TOTAL RUN TIME: 0 days 0 hours 16 minutes 39 seconds 364 msec
