,SMILES,new name,old name,homo,lumo
14,C1=C(OC(=O)C2=CC=CC=C12)C,14dtr,26utr,-6.26278190341265,-1.5658519413172
17,C=C1SC(=S)C(C1=O)C,17dtr,36atr,-6.33989896864435,-2.40600345473595
18,C=c1c2=CC=CC3=CC=Cc(c23)n1C,18dtr,12utr,-5.0303510631131,-1.5678655838109001
25,C=C1SC2=CC=CC=C2S1,25dtr,14utr,-5.4173241699091506,-0.66099175424955
27,C1=CC=C2C(=C1)C(/C(=C/C=C/3\C(=C(C#N)C#N)C4=C(C3=O)C=CC=C4)/N2C)(C)C,27dtr,13utr,-5.729221065352251,-2.88149519709965
30,C1=Nc2c(S1)nc(s2)C,30dtr,9atr,-6.519276418893949,-1.4486252945217999
40,C(=O)C1=COC(=N1)C2=CC3=C(C=CS3)S2,40dtr,35utr,-6.1143982207350005,-2.0444457815766
42,C1=NC2=C(SC=C2)S1,42dtr,23utr,-6.4459417361842,-0.9261394901767501
44,C1=NC2=C(C=CS2)S1,44dtr,29utr,-6.444200207541,-1.2904999359962501
50,C=C1C(=O)C2=C(SC=C2C1=C(C#N)C#N)Cl,50dtr,34atr,-6.4536153467682995,-2.5455162258873
51,C#Cc1c(c(c(s1)C#N)F)F,51dtr,28utr,-6.09352708840165,-1.29338434281155
52,C=C1N(C2=CC=CC=C2O1)C,52dtr,11utr,-4.99788788074845,-0.28961077108715
53,N1C2=CC=CC=C2O/C/1=C\C=C\3/C(=C(C#N)C#N)C4=C(C3=O)C=CC=C4,53dtr,10utr,-5.760867906165401,-2.8726514969584
55,C=C1C(=O)N(C(=S)N(C1=O)C1=CC=CC=C1)C1=CC=CC=C1,55dtr,18atr,-5.877169365869101,-2.8574131213304
60,C1=C2C(=NC3=C1C=C(S3)F)SC(=C2)F,60dtr,32utr,-6.3180482264492,-1.5724643078843499
62,C=C1C(C2=CC=CC=C2N1C)(C3=CC=CC=C3)C4=CC=CC=C4,62dtr,18utr,-5.156856792210551,-0.6317395153208
63,C1=CC2=CC=CC=C2O1,63dtr,2dtr,-6.21957022395325,-0.7667624079389
66,C=C1SC(=S)N(C1=S)C,66dtr,37atr,-6.365640938901651,-3.0497976136339
68,C1=C(N2C=CC=NC2=N1)C,68dtr,24utr,-6.06011150756025,-1.58830133398345
70,C1=CC=C2C(=C1)S/C(=C\C=C\3/C(=C(C#N)C#N)C4=C(C3=O)C=CC=C4)/N2C,70dtr,16utr,-5.6943904924882505,-2.91365905422875
72,C=c1c(=O)n(/c(=C/2\C(=O)N(C(=S)S2)C)/s1)C,72dtr,26atr,-6.096438706602,-2.71653978092655
76,CC1=CC=C(C=C1)N(C2=CC=CC=C2)C3=CC=CC=C3,76dtr,1dtr,-5.10292382704145,-0.6188413188070999
79,C1=CC=C(C=C1)N,79dtr,15utr,-5.55261917637775,-0.0467491595159
81,C1=NC=CN1C(=O)N2C=NC=C2,81dtr,37utr,-6.29461922392115,-0.6474132731096001
87,C=C1C(=O)N(C(=S)N(C1=O)C)C,87dtr,17atr,-6.2726596361858,-2.95997283158385