
                                 *****************
                                 * O   R   C   A *
                                 *****************

           --- An Ab Initio, DFT and Semiempirical electronic structure package ---

                  #######################################################
                  #                        -***-                        #
                  #          Department of theory and spectroscopy      #
                  #               Directorship: Frank Neese             #
                  #        Max Planck Institute fuer Kohlenforschung    #
                  #                Kaiser Wilhelm Platz 1               #
                  #                 D-45470 Muelheim/Ruhr               #
                  #                      Germany                        #
                  #                                                     #
                  #                  All rights reserved                #
                  #                        -***-                        #
                  #######################################################


                         Program Version 4.2.0 -  RELEASE  -


 With contributions from (in alphabetic order):
   Daniel Aravena         : Magnetic Suceptibility
   Michael Atanasov       : Ab Initio Ligand Field Theory (pilot matlab implementation)
   Alexander A. Auer      : GIAO ZORA, VPT2
   Ute Becker             : Parallelization
   Giovanni Bistoni       : ED, misc. LED, open-shell LED, HFLED
   Martin Brehm           : Molecular dynamics
   Dmytro Bykov           : SCF Hessian
   Vijay G. Chilkuri      : MRCI spin determinant printing, contributions to CSF-ICE
   Dipayan Datta          : RHF DLPNO-CCSD density
   Achintya Kumar Dutta   : EOM-CC, STEOM-CC
   Dmitry Ganyushin       : Spin-Orbit,Spin-Spin,Magnetic field MRCI
   Miquel Garcia          : C-PCM Hessian, Gaussian charge scheme
   Yang Guo               : DLPNO-NEVPT2, CIM, IAO-localization
   Andreas Hansen         : Spin unrestricted coupled pair/coupled cluster methods
   Benjamin Helmich-Paris : CASSCF linear response (MC-RPA)
   Lee Huntington         : MR-EOM, pCC
   Robert Izsak           : Overlap fitted RIJCOSX, COSX-SCS-MP3, EOM
   Christian Kollmar      : KDIIS, OOCD, Brueckner-CCSD(T), CCSD density
   Simone Kossmann        : Meta GGA functionals, TD-DFT gradient, OOMP2, MP2 Hessian
   Martin Krupicka        : AUTO-CI
   Lucas Lang             : DCDCAS
   Dagmar Lenk            : GEPOL surface, SMD
   Dimitrios Liakos       : Extrapolation schemes; Compound Job, initial MDCI parallelization
   Dimitrios Manganas     : Further ROCIS development; embedding schemes
   Dimitrios Pantazis     : SARC Basis sets
   Taras Petrenko         : DFT Hessian,TD-DFT gradient, ASA, ECA, R-Raman, ABS, FL, XAS/XES, NRVS
   Peter Pinski           : DLPNO-MP2, DLPNO-MP2 Gradient
   Christoph Reimann      : Effective Core Potentials
   Marius Retegan         : Local ZFS, SOC
   Christoph Riplinger    : Optimizer, TS searches, QM/MM, DLPNO-CCSD(T), (RO)-DLPNO pert. Triples
   Tobias Risthaus        : Range-separated hybrids, TD-DFT gradient, RPA, STAB
   Michael Roemelt        : Original ROCIS implementation
   Masaaki Saitow         : Open-shell DLPNO-CCSD energy and density
   Barbara Sandhoefer     : DKH picture change effects
   Avijit Sen             : IP-ROCIS
   Kantharuban Sivalingam : CASSCF convergence, NEVPT2, FIC-MRCI
   Bernardo de Souza      : ESD, SOC TD-DFT
   Georgi Stoychev        : AutoAux, RI-MP2 NMR
   Willem Van den Heuvel  : Paramagnetic NMR
   Boris Wezisla          : Elementary symmetry handling
   Frank Wennmohs         : Technical directorship


 We gratefully acknowledge several colleagues who have allowed us to
 interface, adapt or use parts of their codes:
   Stefan Grimme, W. Hujo, H. Kruse,             : VdW corrections, initial TS optimization,
                  C. Bannwarth                     DFT functionals, gCP, sTDA/sTD-DF
   Ed Valeev, F. Pavosevic, A. Kumar             : LibInt (2-el integral package), F12 methods
   Garnet Chan, S. Sharma, J. Yang, R. Olivares  : DMRG
   Ulf Ekstrom                                   : XCFun DFT Library
   Mihaly Kallay                                 : mrcc  (arbitrary order and MRCC methods)
   Andreas Klamt, Michael Diedenhofen            : otool_cosmo (COSMO solvation model)
   Jiri Pittner, Ondrej Demel                    : Mk-CCSD
   Frank Weinhold                                : gennbo (NPA and NBO analysis)
   Christopher J. Cramer and Donald G. Truhlar   : smd solvation model
   Lars Goerigk                                  : TD-DFT with DH, B97 family of functionals
   V. Asgeirsson, H. Jonsson                     : NEB implementation
   FAccTs GmbH                                   : IRC, NEB, NEB-TS, Multilevel, MM, QM/MM, CI optimization
   S Lehtola, MJT Oliveira, MAL Marques          : LibXC Library


 Your calculation uses the libint2 library for the computation of 2-el integrals
 For citations please refer to: http://libint.valeyev.net

 Your ORCA version has been built with support for libXC version: 4.2.3
 For citations please refer to: https://tddft.org/programs/libxc/

 This ORCA versions uses:
   CBLAS   interface :  Fast vector & matrix operations
   LAPACKE interface :  Fast linear algebra routines
   SCALAPACK package :  Parallel linear algebra routines


Your calculation utilizes the atom-pairwise dispersion correction
with the Becke-Johnson damping scheme (D3BJ)
Cite in your paper:
S.Grimme, S.Ehrlich, L.Goerigk, J Comput Chem, (2011), 32, 1456–1465 
S.Grimme, J.Antony, S.Ehrlich and H.Krieg, J.Chem.Phys., 132, (2010), 154104 
   

----- Orbital basis set information -----
Your calculation utilizes the basis: def2-SVP
   F. Weigend and R. Ahlrichs, Phys. Chem. Chem. Phys. 7, 3297 (2005).

----- AuxJ basis set information -----
Your calculation utilizes the auxiliary basis: def2/J
   F. Weigend, Phys. Chem. Chem. Phys. 8, 1057 (2006).

================================================================================
                                        WARNINGS
                       Please study these warnings very carefully!
================================================================================


WARNING: Geometry Optimization
  ===> : Switching off AutoStart
         For restart on a previous wavefunction, please use MOREAD

INFO   : the flag for use of LIBINT has been found!

================================================================================
                                       INPUT FILE
================================================================================
NAME = 35u.inp
|  1> # ORCA input file
|  2> # SCF done        -26.449323643250          0.000750014391
|  3> ! B3LYP/G D3BJ Opt RIJCOSX def2-SVP def2/J
|  4> * xyz 0 1
|  5>    C        1.64908        -1.15461         0.22661
|  6>    C        0.35645        -0.73262         0.18072
|  7>    C        0.24571         0.65462        -0.13827
|  8>    O       -0.91160         1.36302        -0.26647
|  9>    C       -2.05962         0.75588         0.28469
| 10>    C       -2.28465        -0.65490        -0.23584
| 11>    S       -1.02831        -1.78103         0.46301
| 12>    C        1.46507         1.23030        -0.33322
| 13>    S        2.75287         0.11195        -0.12611
| 14>    H        2.00366        -2.14033         0.44650
| 15>    H       -2.88787         1.40608        -0.00913
| 16>    H       -1.99117         0.73776         1.38192
| 17>    H       -2.21114        -0.68238        -1.32335
| 18>    H       -3.25079        -1.03951         0.08240
| 19>    H        1.66291         2.24902        -0.59448
| 20> *
| 21> 
| 22>                          ****END OF INPUT****
================================================================================

                       *****************************
                       * Geometry Optimization Run *
                       *****************************

Geometry optimization settings:
Update method            Update   .... BFGS
Choice of coordinates    CoordSys .... Z-matrix Internals
Initial Hessian          InHess   .... Almoef's Model

Convergence Tolerances:
Energy Change            TolE     ....  5.0000e-06 Eh
Max. Gradient            TolMAXG  ....  3.0000e-04 Eh/bohr
RMS Gradient             TolRMSG  ....  1.0000e-04 Eh/bohr
Max. Displacement        TolMAXD  ....  4.0000e-03 bohr
RMS Displacement         TolRMSD  ....  2.0000e-03 bohr
Strict Convergence                ....  False
------------------------------------------------------------------------------
                        ORCA OPTIMIZATION COORDINATE SETUP
------------------------------------------------------------------------------

The optimization will be done in new redundant internal coordinates
Making redundant internal coordinates   ...  (new redundants) done
Evaluating the initial hessian          ...  (Almloef) done
Evaluating the coordinates              ...  done
Calculating the B-matrix                .... done
Calculating the G-matrix                .... done
Diagonalizing the G-matrix              .... done
The first mode is                       ....   39
The number of degrees of freedom        ....   39

    -----------------------------------------------------------------
                    Redundant Internal Coordinates


    -----------------------------------------------------------------
         Definition                    Initial Value    Approx d2E/dq
    -----------------------------------------------------------------
      1. B(C   1,C   0)                  1.3605         0.696205   
      2. B(C   2,C   1)                  1.4277         0.543902   
      3. B(O   3,C   2)                  1.3629         0.618062   
      4. B(C   4,O   3)                  1.4108         0.518437   
      5. B(C   5,C   4)                  1.5205         0.386856   
      6. B(S   6,C   5)                  1.8262         0.339314   
      7. B(S   6,C   1)                  1.7597         0.433245   
      8. B(C   7,C   2)                  1.3624         0.691359   
      9. B(S   8,C   7)                  1.7181         0.504624   
     10. B(S   8,C   0)                  1.7167         0.507380   
     11. B(H   9,C   0)                  1.0704         0.387007   
     12. B(H  10,C   4)                  1.0932         0.355890   
     13. B(H  11,C   4)                  1.0995         0.347734   
     14. B(H  12,C   5)                  1.0903         0.359653   
     15. B(H  13,C   5)                  1.0875         0.363440   
     16. B(H  14,C   7)                  1.0701         0.387362   
     17. A(S   8,C   0,H   9)          120.5744         0.363346   
     18. A(C   1,C   0,H   9)          127.3937         0.364380   
     19. A(C   1,C   0,S   8)          112.0318         0.451292   
     20. A(C   0,C   1,S   6)          123.8803         0.438569   
     21. A(C   0,C   1,C   2)          112.4943         0.432894   
     22. A(C   2,C   1,S   6)          123.6215         0.419571   
     23. A(C   1,C   2,C   7)          111.9069         0.432351   
     24. A(O   3,C   2,C   7)          121.7944         0.439521   
     25. A(C   1,C   2,O   3)          126.2909         0.420997   
     26. A(C   2,O   3,C   4)          115.5017         0.414711   
     27. A(C   5,C   4,H  11)          109.6063         0.324318   
     28. A(H  10,C   4,H  11)          108.9765         0.288717   
     29. A(O   3,C   4,H  11)          110.2609         0.338371   
     30. A(C   5,C   4,H  10)          110.3474         0.325556   
     31. A(O   3,C   4,H  10)          104.8067         0.339683   
     32. A(O   3,C   4,C   5)          112.7051         0.384369   
     33. A(C   4,C   5,S   6)          109.8365         0.378569   
     34. A(H  12,C   5,H  13)          110.0513         0.291205   
     35. A(S   6,C   5,H  13)          106.3267         0.335931   
     36. A(C   4,C   5,H  13)          111.0665         0.326683   
     37. A(S   6,C   5,H  12)          108.6488         0.335346   
     38. A(C   4,C   5,H  12)          110.7850         0.326120   
     39. A(C   1,S   6,C   5)           96.4647         0.406944   
     40. A(S   8,C   7,H  14)          120.6967         0.363065   
     41. A(C   2,C   7,H  14)          127.0582         0.364002   
     42. A(C   2,C   7,S   8)          112.2430         0.450274   
     43. A(C   0,S   8,C   7)           91.3220         0.449488   
     44. D(S   6,C   1,C   0,S   8)    178.8570         0.034106   
     45. D(S   6,C   1,C   0,H   9)     -0.9948         0.034106   
     46. D(C   2,C   1,C   0,H   9)    179.7092         0.034106   
     47. D(C   2,C   1,C   0,S   8)     -0.4390         0.034106   
     48. D(O   3,C   2,C   1,S   6)      0.1930         0.020223   
     49. D(C   7,C   2,C   1,C   0)      0.4927         0.020223   
     50. D(O   3,C   2,C   1,C   0)    179.4912         0.020223   
     51. D(C   7,C   2,C   1,S   6)   -178.8055         0.020223   
     52. D(C   4,O   3,C   2,C   7)   -164.4849         0.028014   
     53. D(C   4,O   3,C   2,C   1)     16.6084         0.028014   
     54. D(H  11,C   4,O   3,C   2)     68.9314         0.021304   
     55. D(H  10,C   4,O   3,C   2)   -173.9323         0.021304   
     56. D(C   5,C   4,O   3,C   2)    -53.9013         0.021304   
     57. D(S   6,C   5,C   4,H  10)   -171.7553         0.011907   
     58. D(S   6,C   5,C   4,O   3)     71.4604         0.011907   
     59. D(H  13,C   5,C   4,H  11)     65.5983         0.011907   
     60. D(H  13,C   5,C   4,H  10)    -54.4194         0.011907   
     61. D(H  13,C   5,C   4,O   3)   -171.2037         0.011907   
     62. D(H  12,C   5,C   4,H  11)   -171.7723         0.011907   
     63. D(H  12,C   5,C   4,H  10)     68.2099         0.011907   
     64. D(H  12,C   5,C   4,O   3)    -48.5744         0.011907   
     65. D(S   6,C   5,C   4,H  11)    -51.7375         0.011907   
     66. D(C   1,S   6,C   5,H  12)     75.6054         0.003335   
     67. D(C   1,S   6,C   5,C   4)    -45.7199         0.003335   
     68. D(C   5,S   6,C   1,C   2)     14.6921         0.004246   
     69. D(C   1,S   6,C   5,H  13)   -165.9750         0.003335   
     70. D(C   5,S   6,C   1,C   0)   -164.5269         0.004246   
     71. D(H  14,C   7,C   2,O   3)      0.0882         0.033594   
     72. D(H  14,C   7,C   2,C   1)    179.1384         0.033594   
     73. D(S   8,C   7,C   2,O   3)   -179.3734         0.033594   
     74. D(S   8,C   7,C   2,C   1)     -0.3231         0.033594   
     75. D(C   0,S   8,C   7,H  14)   -179.4325         0.005278   
     76. D(C   0,S   8,C   7,C   2)      0.0678         0.005278   
     77. D(C   7,S   8,C   0,H   9)   -179.9185         0.005321   
     78. D(C   7,S   8,C   0,C   1)      0.2182         0.005321   
    -----------------------------------------------------------------

Number of atoms                         .... 15
Number of degrees of freedom            .... 78

         *************************************************************
         *                GEOMETRY OPTIMIZATION CYCLE   1            *
         *************************************************************
---------------------------------
CARTESIAN COORDINATES (ANGSTROEM)
---------------------------------
  C      1.649080   -1.154610    0.226610
  C      0.356450   -0.732620    0.180720
  C      0.245710    0.654620   -0.138270
  O     -0.911600    1.363020   -0.266470
  C     -2.059620    0.755880    0.284690
  C     -2.284650   -0.654900   -0.235840
  S     -1.028310   -1.781030    0.463010
  C      1.465070    1.230300   -0.333220
  S      2.752870    0.111950   -0.126110
  H      2.003660   -2.140330    0.446500
  H     -2.887870    1.406080   -0.009130
  H     -1.991170    0.737760    1.381920
  H     -2.211140   -0.682380   -1.323350
  H     -3.250790   -1.039510    0.082400
  H      1.662910    2.249020   -0.594480

----------------------------
CARTESIAN COORDINATES (A.U.)
----------------------------
  NO LB      ZA    FRAG     MASS         X           Y           Z
   0 C     6.0000    0    12.011    3.116310   -2.181897    0.428231
   1 C     6.0000    0    12.011    0.673593   -1.384451    0.341511
   2 C     6.0000    0    12.011    0.464325    1.237053   -0.261292
   3 O     8.0000    0    15.999   -1.722674    2.575735   -0.503555
   4 C     6.0000    0    12.011   -3.892118    1.428406    0.537986
   5 C     6.0000    0    12.011   -4.317363   -1.237582   -0.445673
   6 S    16.0000    0    32.060   -1.943224   -3.365659    0.874962
   7 C     6.0000    0    12.011    2.768581    2.324930   -0.629695
   8 S    16.0000    0    32.060    5.202170    0.211555   -0.238313
   9 H     1.0000    0     1.008    3.786369   -4.044638    0.843763
  10 H     1.0000    0     1.008   -5.457283    2.657106   -0.017253
  11 H     1.0000    0     1.008   -3.762766    1.394164    2.611450
  12 H     1.0000    0     1.008   -4.178449   -1.289511   -2.500769
  13 H     1.0000    0     1.008   -6.143103   -1.964389    0.155713
  14 H     1.0000    0     1.008    3.142444    4.250032   -1.123404

--------------------------------
INTERNAL COORDINATES (ANGSTROEM)
--------------------------------
 C      0   0   0     0.000000000000     0.00000000     0.00000000
 C      1   0   0     1.360541718985     0.00000000     0.00000000
 C      2   1   0     1.427743949488   112.49428998     0.00000000
 O      3   2   1     1.362949828901   126.29092997   179.49119882
 C      4   3   2     1.410796316128   115.50172996    16.60842432
 C      5   4   3     1.520490115127   112.70511977   306.09874519
 S      2   1   3     1.759662305614   123.88025966   179.29607302
 C      3   2   1     1.362443310564   111.90692485     0.49274138
 S      1   2   3     1.716664788507   112.03178396   359.56095301
 H      1   2   3     1.070384280013   127.39368810   179.70915851
 H      5   4   3     1.093200939855   104.80666436   186.06770509
 H      5   4   3     1.099512350908   110.26086961    68.93136420
 H      6   5   4     1.090337961643   110.78500797   311.42562114
 H      6   5   4     1.087487034084   111.06648793   188.79626717
 H      8   3   2     1.070134520329   127.05821706   179.13837032

---------------------------
INTERNAL COORDINATES (A.U.)
---------------------------
 C      0   0   0     0.000000000000     0.00000000     0.00000000
 C      1   0   0     2.571051242657     0.00000000     0.00000000
 C      2   1   0     2.698045053896   112.49428998     0.00000000
 O      3   2   1     2.575601910897   126.29092997   179.49119882
 C      4   3   2     2.666018668227   115.50172996    16.60842432
 C      5   4   3     2.873309906925   112.70511977   306.09874519
 S      2   1   3     3.325279845796   123.88025966   179.29607302
 C      3   2   1     2.574644729959   111.90692485     0.49274138
 S      1   2   3     3.244026314024   112.03178396   359.56095301
 H      1   2   3     2.022733147280   127.39368810   179.70915851
 H      5   4   3     2.065850385671   104.80666436   186.06770509
 H      5   4   3     2.077777224081   110.26086961    68.93136420
 H      6   5   4     2.060440140923   110.78500797   311.42562114
 H      6   5   4     2.055052668608   111.06648793   188.79626717
 H      8   3   2     2.022261169877   127.05821706   179.13837032

---------------------
BASIS SET INFORMATION
---------------------
There are 4 groups of distinct atoms

 Group   1 Type C   : 7s4p1d contracted to 3s2p1d pattern {511/31/1}
 Group   2 Type O   : 7s4p1d contracted to 3s2p1d pattern {511/31/1}
 Group   3 Type S   : 10s7p1d contracted to 4s3p1d pattern {5311/511/1}
 Group   4 Type H   : 4s1p contracted to 2s1p pattern {31/1}

Atom   0C    basis set group =>   1
Atom   1C    basis set group =>   1
Atom   2C    basis set group =>   1
Atom   3O    basis set group =>   2
Atom   4C    basis set group =>   1
Atom   5C    basis set group =>   1
Atom   6S    basis set group =>   3
Atom   7C    basis set group =>   1
Atom   8S    basis set group =>   3
Atom   9H    basis set group =>   4
Atom  10H    basis set group =>   4
Atom  11H    basis set group =>   4
Atom  12H    basis set group =>   4
Atom  13H    basis set group =>   4
Atom  14H    basis set group =>   4
---------------------------------
AUXILIARY/J BASIS SET INFORMATION
---------------------------------
There are 4 groups of distinct atoms

 Group   1 Type C   : 12s5p4d2f1g contracted to 6s4p3d1f1g pattern {711111/2111/211/2/1}
 Group   2 Type O   : 12s5p4d2f1g contracted to 6s4p3d1f1g pattern {711111/2111/211/2/1}
 Group   3 Type S   : 14s5p5d2f1g contracted to 8s4p3d1f1g pattern {71111111/2111/311/2/1}
 Group   4 Type H   : 5s2p1d contracted to 3s1p1d pattern {311/2/1}

Atom   0C    basis set group =>   1
Atom   1C    basis set group =>   1
Atom   2C    basis set group =>   1
Atom   3O    basis set group =>   2
Atom   4C    basis set group =>   1
Atom   5C    basis set group =>   1
Atom   6S    basis set group =>   3
Atom   7C    basis set group =>   1
Atom   8S    basis set group =>   3
Atom   9H    basis set group =>   4
Atom  10H    basis set group =>   4
Atom  11H    basis set group =>   4
Atom  12H    basis set group =>   4
Atom  13H    basis set group =>   4
Atom  14H    basis set group =>   4
------------------------------------------------------------------------------
                           ORCA GTO INTEGRAL CALCULATION
                           -- RI-GTO INTEGRALS CHOSEN --
------------------------------------------------------------------------------

                         BASIS SET STATISTICS AND STARTUP INFO

Gaussian basis set:
 # of primitive gaussian shells          ...  150
 # of primitive gaussian functions       ...  282
 # of contracted shells                  ...   76
 # of contracted basis functions         ...  164
 Highest angular momentum                ...    2
 Maximum contraction depth               ...    5
Auxiliary gaussian basis set:
 # of primitive gaussian shells          ...  270
 # of primitive gaussian functions       ...  740
 # of contracted shells                  ...  169
 # of contracted aux-basis functions     ...  511
 Highest angular momentum                ...    4
 Maximum contraction depth               ...    7
Ratio of auxiliary to basis functions    ...  3.12
Integral package used                  ... LIBINT
 One Electron integrals                  ... done
 Ordering auxiliary basis shells         ... done
 Integral threshhold             Thresh  ...  2.500e-11
 Primitive cut-off               TCut    ...  2.500e-12
 Pre-screening matrix                    ... done
 Shell pair data                         ... 
 Ordering of the shell pairs             ... done (   0.000 sec) 2714 of 2926 pairs
 Determination of significant pairs      ... done (   0.000 sec)
 Creation of shell pair data             ... done (   0.000 sec)
 Storage of shell pair data              ... done (   0.000 sec)
 Shell pair data done in (   0.001 sec)
 Computing two index integrals           ... done
 Cholesky decomposition of the V-matrix  ... done


Timings:
 Total evaluation time                   ...   0.250 sec (  0.004 min)
 One electron matrix time                ...   0.010 sec (  0.000 min) =  4.1%
 Schwartz matrix evaluation time         ...   0.059 sec (  0.001 min) = 23.6%
 Two index repulsion integral time       ...   0.004 sec (  0.000 min) =  1.7%
 Cholesky decomposition of V             ...   0.160 sec (  0.003 min) = 63.9%
 Three index repulsion integral time     ...   0.000 sec (  0.000 min) =  0.0%

-------------------------------------------------------------------------------
                                 ORCA SCF
-------------------------------------------------------------------------------

------------
SCF SETTINGS
------------
Hamiltonian:
 Density Functional     Method          .... DFT(GTOs)
 Exchange Functional    Exchange        .... B88
   X-Alpha parameter    XAlpha          ....  0.666667
   Becke's b parameter  XBeta           ....  0.004200
 Correlation Functional Correlation     .... LYP
 LDA part of GGA corr.  LDAOpt          .... VWN-3
 Gradients option       PostSCFGGA      .... off
 Hybrid DFT is turned on
   Fraction HF Exchange ScalHFX         ....  0.200000
   Scaling of DF-GGA-X  ScalDFX         ....  0.720000
   Scaling of DF-GGA-C  ScalDFC         ....  0.810000
   Scaling of DF-LDA-C  ScalLDAC        ....  1.000000
   Perturbative correction              ....  0.000000
   Density functional embedding theory  .... OFF
   NL short-range parameter             ....  4.800000
 RI-approximation to the Coulomb term is turned on
   Number of auxiliary basis functions  .... 511
   RIJ-COSX (HFX calculated with COS-X)).... on


General Settings:
 Integral files         IntName         .... 35u
 Hartree-Fock type      HFTyp           .... RHF
 Total Charge           Charge          ....    0
 Multiplicity           Mult            ....    1
 Number of Electrons    NEL             ....   82
 Basis Dimension        Dim             ....  164
 Nuclear Repulsion      ENuc            ....    602.5945410049 Eh

Convergence Acceleration:
 DIIS                   CNVDIIS         .... on
   Start iteration      DIISMaxIt       ....    12
   Startup error        DIISStart       ....  0.200000
   # of expansion vecs  DIISMaxEq       ....     5
   Bias factor          DIISBfac        ....   1.050
   Max. coefficient     DIISMaxC        ....  10.000
 Newton-Raphson         CNVNR           .... off
 SOSCF                  CNVSOSCF        .... on
   Start iteration      SOSCFMaxIt      ....   150
   Startup grad/error   SOSCFStart      ....  0.003300
 Level Shifting         CNVShift        .... on
   Level shift para.    LevelShift      ....    0.2500
   Turn off err/grad.   ShiftErr        ....    0.0010
 Zerner damping         CNVZerner       .... off
 Static damping         CNVDamp         .... on
   Fraction old density DampFac         ....    0.7000
   Max. Damping (<1)    DampMax         ....    0.9800
   Min. Damping (>=0)   DampMin         ....    0.0000
   Turn off err/grad.   DampErr         ....    0.1000
 Fernandez-Rico         CNVRico         .... off

SCF Procedure:
 Maximum # iterations   MaxIter         ....   125
 SCF integral mode      SCFMode         .... Direct
   Integral package                     .... LIBINT
 Reset frequency        DirectResetFreq ....    20
 Integral Threshold     Thresh          ....  2.500e-11 Eh
 Primitive CutOff       TCut            ....  2.500e-12 Eh

Convergence Tolerance:
 Convergence Check Mode ConvCheckMode   .... Total+1el-Energy
 Convergence forced     ConvForced      .... 0
 Energy Change          TolE            ....  1.000e-08 Eh
 1-El. energy change                    ....  1.000e-05 Eh
 Orbital Gradient       TolG            ....  1.000e-05
 Orbital Rotation angle TolX            ....  1.000e-05
 DIIS Error             TolErr          ....  5.000e-07


Diagonalization of the overlap matrix:
Smallest eigenvalue                        ... 7.128e-04
Time for diagonalization                   ...    0.116 sec
Threshold for overlap eigenvalues          ... 1.000e-08
Number of eigenvalues below threshold      ... 0
Time for construction of square roots      ...    0.002 sec
Total time needed                          ...    0.118 sec

-------------------
DFT GRID GENERATION
-------------------

General Integration Accuracy     IntAcc      ...  4.340
Radial Grid Type                 RadialGrid  ... Gauss-Chebyshev
Angular Grid (max. acc.)         AngularGrid ... Lebedev-110
Angular grid pruning method      GridPruning ... 3 (G Style)
Weight generation scheme         WeightScheme... Becke
Basis function cutoff            BFCut       ...    1.0000e-11
Integration weight cutoff        WCut        ...    1.0000e-14
Grids for H and He will be reduced by one unit

# of grid points (after initial pruning)     ...  20028 (   0.0 sec)
# of grid points (after weights+screening)   ...  18567 (   0.0 sec)
nearest neighbour list constructed           ...    0.0 sec
Grid point re-assignment to atoms done       ...    0.0 sec
Grid point division into batches done        ...    0.0 sec
Reduced shell lists constructed in    0.1 sec

Total number of grid points                  ...    18567
Total number of batches                      ...      298
Average number of points per batch           ...       62
Average number of grid points per atom       ...     1238
Average number of shells per batch           ...    52.76 (69.42%)
Average number of basis functions per batch  ...   114.30 (69.70%)
Average number of large shells per batch     ...    41.74 (79.12%)
Average number of large basis fcns per batch ...    88.91 (77.78%)
Maximum spatial batch extension              ...  19.77, 18.83, 24.59 au
Average spatial batch extension              ...   3.81,  3.81,  4.25 au

Time for grid setup =    0.138 sec

------------------------------
INITIAL GUESS: MODEL POTENTIAL
------------------------------
Loading Hartree-Fock densities                     ... done
Calculating cut-offs                               ... done
Setting up the integral package                    ... done
Initializing the effective Hamiltonian             ... done
Starting the Coulomb interaction                   ... done (   0.1 sec)
Reading the grid                                   ... done
Mapping shells                                     ... done
Starting the XC term evaluation                    ... done (   0.1 sec)
  promolecular density results
     # of electrons  =     81.997671294
     EX              =    -90.949208453
     EC              =     -3.030396169
     EX+EC           =    -93.979604623
Transforming the Hamiltonian                       ... done (   0.0 sec)
Diagonalizing the Hamiltonian                      ... done (   0.0 sec)
Back transforming the eigenvectors                 ... done (   0.0 sec)
Now organizing SCF variables                       ... done
                      ------------------
                      INITIAL GUESS DONE (   0.4 sec)
                      ------------------
--------------------
COSX GRID GENERATION
--------------------

General Integration Accuracy     IntAcc      ...  3.340
Radial Grid Type                 RadialGrid  ... Gauss-Chebyshev
Angular Grid (max. acc.)         AngularGrid ... Lebedev-50
Angular grid pruning method      GridPruning ... 3 (G Style)
Weight generation scheme         WeightScheme... Becke
Basis function cutoff            BFCut       ...    1.0000e-11
Integration weight cutoff        WCut        ...    1.0000e-14
Grids for H and He will be reduced by one unit

# of grid points (after initial pruning)     ...   7392 (   0.0 sec)
# of grid points (after weights+screening)   ...   6928 (   0.0 sec)
nearest neighbour list constructed           ...    0.0 sec
Grid point re-assignment to atoms done       ...    0.0 sec
Grid point division into batches done        ...    0.0 sec
Reduced shell lists constructed in    0.0 sec

Total number of grid points                  ...     6928
Total number of batches                      ...      117
Average number of points per batch           ...       59
Average number of grid points per atom       ...      462
Average number of shells per batch           ...    56.60 (74.48%)
Average number of basis functions per batch  ...   123.38 (75.23%)
Average number of large shells per batch     ...    45.27 (79.98%)
Average number of large basis fcns per batch ...    97.19 (78.77%)
Maximum spatial batch extension              ...  15.38, 18.30, 21.68 au
Average spatial batch extension              ...   4.72,  4.84,  5.62 au

Overlap Fitting                  UseSFitting ... on
Constructing numerical overlap ... done (      0.0 sec)
Inverting numerical overlap    ... done (      0.0 sec)
Obtaining analytic overlap     ... done (      0.0 sec)
Final contraction and storage  ... done (      0.0 sec)


General Integration Accuracy     IntAcc      ...  3.670
Radial Grid Type                 RadialGrid  ... Gauss-Chebyshev
Angular Grid (max. acc.)         AngularGrid ... Lebedev-50
Angular grid pruning method      GridPruning ... 3 (G Style)
Weight generation scheme         WeightScheme... Becke
Basis function cutoff            BFCut       ...    1.0000e-11
Integration weight cutoff        WCut        ...    1.0000e-14
Grids for H and He will be reduced by one unit

# of grid points (after initial pruning)     ...   9322 (   0.0 sec)
# of grid points (after weights+screening)   ...   8713 (   0.0 sec)
nearest neighbour list constructed           ...    0.0 sec
Grid point re-assignment to atoms done       ...    0.0 sec
Grid point division into batches done        ...    0.0 sec
Reduced shell lists constructed in    0.0 sec

Total number of grid points                  ...     8713
Total number of batches                      ...      145
Average number of points per batch           ...       60
Average number of grid points per atom       ...      581
Average number of shells per batch           ...    55.67 (73.25%)
Average number of basis functions per batch  ...   121.30 (73.96%)
Average number of large shells per batch     ...    44.29 (79.56%)
Average number of large basis fcns per batch ...    94.80 (78.15%)
Maximum spatial batch extension              ...  16.30, 19.08, 23.46 au
Average spatial batch extension              ...   4.45,  4.43,  5.32 au

Overlap Fitting                  UseSFitting ... on
Constructing numerical overlap ... done (      0.0 sec)
Inverting numerical overlap    ... done (      0.0 sec)
Obtaining analytic overlap     ... done (      0.0 sec)
Final contraction and storage  ... done (      0.0 sec)


General Integration Accuracy     IntAcc      ...  4.010
Radial Grid Type                 RadialGrid  ... Gauss-Chebyshev
Angular Grid (max. acc.)         AngularGrid ... Lebedev-110
Angular grid pruning method      GridPruning ... 3 (G Style)
Weight generation scheme         WeightScheme... Becke
Basis function cutoff            BFCut       ...    1.0000e-11
Integration weight cutoff        WCut        ...    1.0000e-14
Grids for H and He will be reduced by one unit

# of grid points (after initial pruning)     ...  17502 (   0.0 sec)
# of grid points (after weights+screening)   ...  16257 (   0.0 sec)
nearest neighbour list constructed           ...    0.0 sec
Grid point re-assignment to atoms done       ...    0.0 sec
Grid point division into batches done        ...    0.0 sec
Reduced shell lists constructed in    0.1 sec

Total number of grid points                  ...    16257
Total number of batches                      ...      263
Average number of points per batch           ...       61
Average number of grid points per atom       ...     1084
Average number of shells per batch           ...    53.38 (70.24%)
Average number of basis functions per batch  ...   115.64 (70.51%)
Average number of large shells per batch     ...    42.08 (78.83%)
Average number of large basis fcns per batch ...    89.75 (77.61%)
Maximum spatial batch extension              ...  18.83, 18.22, 23.27 au
Average spatial batch extension              ...   3.82,  3.93,  4.25 au

Overlap Fitting                  UseSFitting ... on
Constructing numerical overlap ... done (      0.1 sec)
Inverting numerical overlap    ... done (      0.0 sec)
Obtaining analytic overlap     ... done (      0.0 sec)
Final contraction and storage  ... done (      0.0 sec)

Time for X-Grid setup             =    0.477 sec
--------------
SCF ITERATIONS
--------------
ITER       Energy         Delta-E        Max-DP      RMS-DP      [F,P]     Damp
               ***  Starting incremental Fock matrix formation  ***
  0  -1103.1987088314   0.000000000000 0.06594511  0.00224699  0.1572350 0.7000
  1  -1103.2860103249  -0.087301493501 0.04082920  0.00154149  0.0713461 0.7000
                               ***Turning on DIIS***
  2  -1103.3187759890  -0.032765664108 0.08140554  0.00252037  0.0274359 0.0000
  3  -1103.3668186211  -0.048042632126 0.02848952  0.00122736  0.0353226 0.0000
  4  -1103.3812346736  -0.014416052528 0.01318698  0.00031081  0.0065541 0.0000
                      *** Initiating the SOSCF procedure ***
                           *** Shutting down DIIS ***
                      *** Re-Reading the Fockian *** 
                      *** Removing any level shift *** 
ITER      Energy       Delta-E        Grad      Rot      Max-DP    RMS-DP
  5  -1103.38171852  -0.0004838508  0.000610  0.000610  0.002805  0.000103
               *** Restarting incremental Fock matrix formation ***
  6  -1103.38176482  -0.0000463001  0.000351  0.000901  0.001968  0.000067
  7  -1103.38176078   0.0000040487  0.000550  0.000456  0.001414  0.000031
  8  -1103.38177101  -0.0000102366  0.000083  0.000373  0.000319  0.000012
  9  -1103.38177075   0.0000002598  0.000147  0.000243  0.000176  0.000007
 10  -1103.38177112  -0.0000003707  0.000005  0.000019  0.000031  0.000001
 11  -1103.38177113  -0.0000000039  0.000008  0.000012  0.000022  0.000001
                  ***Gradient check signals convergence***
              ***Rediagonalizing the Fockian in SOSCF/NRSCF***

               *****************************************************
               *                     SUCCESS                       *
               *           SCF CONVERGED AFTER  12 CYCLES          *
               *****************************************************

Setting up the final grid:

General Integration Accuracy     IntAcc      ...  4.670
Radial Grid Type                 RadialGrid  ... Gauss-Chebyshev
Angular Grid (max. acc.)         AngularGrid ... Lebedev-302
Angular grid pruning method      GridPruning ... 3 (G Style)
Weight generation scheme         WeightScheme... Becke
Basis function cutoff            BFCut       ...    1.0000e-11
Integration weight cutoff        WCut        ...    1.0000e-14
Grids for H and He will be reduced by one unit

# of grid points (after initial pruning)     ...  77540 (   0.0 sec)
# of grid points (after weights+screening)   ...  71021 (   0.1 sec)
nearest neighbour list constructed           ...    0.0 sec
Grid point re-assignment to atoms done       ...    0.0 sec
Grid point division into batches done        ...    0.3 sec
Reduced shell lists constructed in    0.6 sec

Total number of grid points                  ...    71021
Total number of batches                      ...     1117
Average number of points per batch           ...       63
Average number of grid points per atom       ...     4735
Average number of shells per batch           ...    48.06 (63.24%)
Average number of basis functions per batch  ...   103.36 (63.03%)
Average number of large shells per batch     ...    37.35 (77.71%)
Average number of large basis fcns per batch ...    78.97 (76.40%)
Maximum spatial batch extension              ...  19.55, 18.90, 19.90 au
Average spatial batch extension              ...   2.57,  2.58,  2.66 au

Final grid set up in    0.7 sec
Final integration                            ... done (   0.7 sec)
Change in XC energy                          ...    -0.000201790
Integrated number of electrons               ...    82.000021785
Previous integrated no of electrons          ...    81.997659737
Old exchange energy                            =    -18.308965883 Eh
New exchange energy                            =    -18.307979445 Eh
Exchange energy change after final integration =      0.000986438 Eh
Total energy after final integration           =  -1103.380986482 Eh
Final COS-X integration done in                =     4.085 sec

----------------
TOTAL SCF ENERGY
----------------

Total Energy       :        -1103.38098648 Eh          -30024.52306 eV

Components:
Nuclear Repulsion  :          602.59454100 Eh           16397.43109 eV
Electronic Energy  :        -1705.97552749 Eh          -46421.95415 eV
One Electron Energy:        -2713.22610113 Eh          -73830.63569 eV
Two Electron Energy:         1007.25057364 Eh           27408.68154 eV

Virial components:
Potential Energy   :        -2202.12741907 Eh          -59922.93350 eV
Kinetic Energy     :         1098.74643259 Eh           29898.41044 eV
Virial Ratio       :            2.00421804


DFT components:
N(Alpha)           :       41.000010892498 electrons
N(Beta)            :       41.000010892498 electrons
N(Total)           :       82.000021784995 electrons
E(X)               :      -72.700013878314 Eh       
E(C)               :       -3.862085479706 Eh       
E(XC)              :      -76.562099358021 Eh       
DFET-embed. en.    :        0.000000000000 Eh       

---------------
SCF CONVERGENCE
---------------

  Last Energy change         ...   -2.9652e-09  Tolerance :   1.0000e-08
  Last MAX-Density change    ...    6.2172e-15  Tolerance :   1.0000e-07
  Last RMS-Density change    ...    9.0869e-17  Tolerance :   5.0000e-09
  Last Orbital Gradient      ...    1.1161e-06  Tolerance :   1.0000e-05
  Last Orbital Rotation      ...    3.5861e-06  Tolerance :   1.0000e-05

             **** THE GBW FILE WAS UPDATED (35u.gbw) ****
             **** DENSITY FILE WAS UPDATED (35u.scfp) ****
             **** ENERGY FILE WAS UPDATED (35u.en.tmp) ****
             **** THE GBW FILE WAS UPDATED (35u.gbw) ****
             **** DENSITY FILE WAS UPDATED (35u.scfp) ****
----------------
ORBITAL ENERGIES
----------------

  NO   OCC          E(Eh)            E(eV) 
   0   2.0000     -88.871876     -2418.3267 
   1   2.0000     -88.849466     -2417.7169 
   2   2.0000     -19.167557      -521.5757 
   3   2.0000     -10.255341      -279.0620 
   4   2.0000     -10.248260      -278.8693 
   5   2.0000     -10.227035      -278.2918 
   6   2.0000     -10.215116      -277.9674 
   7   2.0000     -10.206501      -277.7330 
   8   2.0000     -10.199252      -277.5357 
   9   2.0000      -7.967285      -216.8008 
  10   2.0000      -7.944975      -216.1938 
  11   2.0000      -5.935430      -161.5113 
  12   2.0000      -5.931451      -161.4030 
  13   2.0000      -5.928392      -161.3198 
  14   2.0000      -5.914199      -160.9335 
  15   2.0000      -5.910564      -160.8346 
  16   2.0000      -5.903363      -160.6387 
  17   2.0000      -1.067260       -29.0416 
  18   2.0000      -0.886664       -24.1274 
  19   2.0000      -0.823153       -22.3991 
  20   2.0000      -0.762109       -20.7380 
  21   2.0000      -0.723310       -19.6823 
  22   2.0000      -0.675477       -18.3807 
  23   2.0000      -0.631109       -17.1734 
  24   2.0000      -0.582589       -15.8531 
  25   2.0000      -0.547392       -14.8953 
  26   2.0000      -0.511708       -13.9243 
  27   2.0000      -0.485150       -13.2016 
  28   2.0000      -0.481258       -13.0957 
  29   2.0000      -0.441805       -12.0221 
  30   2.0000      -0.428311       -11.6549 
  31   2.0000      -0.411883       -11.2079 
  32   2.0000      -0.403260       -10.9733 
  33   2.0000      -0.384033       -10.4501 
  34   2.0000      -0.372238       -10.1291 
  35   2.0000      -0.350384        -9.5344 
  36   2.0000      -0.332301        -9.0424 
  37   2.0000      -0.315977        -8.5982 
  38   2.0000      -0.288080        -7.8391 
  39   2.0000      -0.221934        -6.0391 
  40   2.0000      -0.209384        -5.6976 
  41   0.0000      -0.013862        -0.3772 
  42   0.0000       0.025688         0.6990 
  43   0.0000       0.047930         1.3042 
  44   0.0000       0.059202         1.6110 
  45   0.0000       0.071275         1.9395 
  46   0.0000       0.082817         2.2536 
  47   0.0000       0.100187         2.7262 
  48   0.0000       0.102546         2.7904 
  49   0.0000       0.113788         3.0963 
  50   0.0000       0.119070         3.2401 
  51   0.0000       0.126729         3.4485 
  52   0.0000       0.158207         4.3050 
  53   0.0000       0.163755         4.4560 
  54   0.0000       0.202409         5.5078 
  55   0.0000       0.262335         7.1385 
  56   0.0000       0.274071         7.4579 
  57   0.0000       0.308638         8.3985 
  58   0.0000       0.345539         9.4026 
  59   0.0000       0.350725         9.5437 
  60   0.0000       0.389882        10.6092 
  61   0.0000       0.403007        10.9664 
  62   0.0000       0.426541        11.6068 
  63   0.0000       0.433525        11.7968 
  64   0.0000       0.444184        12.0869 
  65   0.0000       0.453792        12.3483 
  66   0.0000       0.466112        12.6835 
  67   0.0000       0.473107        12.8739 
  68   0.0000       0.504391        13.7252 
  69   0.0000       0.513253        13.9663 
  70   0.0000       0.522722        14.2240 
  71   0.0000       0.554972        15.1015 
  72   0.0000       0.563837        15.3428 
  73   0.0000       0.574222        15.6254 
  74   0.0000       0.604715        16.4551 
  75   0.0000       0.613338        16.6898 
  76   0.0000       0.623059        16.9543 
  77   0.0000       0.627286        17.0693 
  78   0.0000       0.629818        17.1382 
  79   0.0000       0.645886        17.5754 
  80   0.0000       0.649585        17.6761 
  81   0.0000       0.656423        17.8622 
  82   0.0000       0.664924        18.0935 
  83   0.0000       0.667891        18.1742 
  84   0.0000       0.690739        18.7960 
  85   0.0000       0.705172        19.1887 
  86   0.0000       0.711545        19.3621 
  87   0.0000       0.731812        19.9136 
  88   0.0000       0.734969        19.9995 
  89   0.0000       0.749915        20.4062 
  90   0.0000       0.774897        21.0860 
  91   0.0000       0.782858        21.3026 
  92   0.0000       0.796477        21.6732 
  93   0.0000       0.816129        22.2080 
  94   0.0000       0.826509        22.4904 
  95   0.0000       0.853225        23.2174 
  96   0.0000       0.878374        23.9018 
  97   0.0000       0.927331        25.2340 
  98   0.0000       0.971169        26.4269 
  99   0.0000       1.020412        27.7668 
 100   0.0000       1.059411        28.8280 
 101   0.0000       1.082982        29.4694 
 102   0.0000       1.109107        30.1803 
 103   0.0000       1.130896        30.7732 
 104   0.0000       1.142747        31.0957 
 105   0.0000       1.170039        31.8384 
 106   0.0000       1.199453        32.6388 
 107   0.0000       1.206484        32.8301 
 108   0.0000       1.228189        33.4207 
 109   0.0000       1.276002        34.7218 
 110   0.0000       1.294685        35.2302 
 111   0.0000       1.312431        35.7131 
 112   0.0000       1.376427        37.4545 
 113   0.0000       1.429330        38.8941 
 114   0.0000       1.480238        40.2793 
 115   0.0000       1.559296        42.4306 
 116   0.0000       1.569471        42.7075 
 117   0.0000       1.621996        44.1368 
 118   0.0000       1.651785        44.9473 
 119   0.0000       1.679433        45.6997 
 120   0.0000       1.711446        46.5708 
 121   0.0000       1.733881        47.1813 
 122   0.0000       1.751813        47.6693 
 123   0.0000       1.758404        47.8486 
 124   0.0000       1.779123        48.4124 
 125   0.0000       1.796763        48.8924 
 126   0.0000       1.823247        49.6131 
 127   0.0000       1.841070        50.0981 
 128   0.0000       1.851941        50.3939 
 129   0.0000       1.875105        51.0242 
 130   0.0000       1.894156        51.5426 
 131   0.0000       1.921840        52.2959 
 132   0.0000       1.954675        53.1894 
 133   0.0000       1.960442        53.3463 
 134   0.0000       2.025678        55.1215 
 135   0.0000       2.056501        55.9602 
 136   0.0000       2.079607        56.5890 
 137   0.0000       2.137432        58.1625 
 138   0.0000       2.180205        59.3264 
 139   0.0000       2.184492        59.4430 
 140   0.0000       2.248204        61.1767 
 141   0.0000       2.265611        61.6504 
 142   0.0000       2.285944        62.2037 
 143   0.0000       2.317405        63.0598 
 144   0.0000       2.330987        63.4294 
 145   0.0000       2.348191        63.8975 
 146   0.0000       2.399755        65.3006 
 147   0.0000       2.441224        66.4291 
 148   0.0000       2.475766        67.3690 
 149   0.0000       2.529371        68.8277 
 150   0.0000       2.631293        71.6011 
 151   0.0000       2.695685        73.3533 
 152   0.0000       2.744799        74.6898 
 153   0.0000       2.769616        75.3651 
 154   0.0000       2.786069        75.8128 
 155   0.0000       2.864906        77.9581 
 156   0.0000       2.940219        80.0074 
 157   0.0000       2.958893        80.5156 
 158   0.0000       2.994796        81.4926 
 159   0.0000       3.052893        83.0734 
 160   0.0000       3.072693        83.6122 
 161   0.0000       3.167756        86.1990 
 162   0.0000       3.414713        92.9191 
 163   0.0000       3.595470        97.8377 

                    ********************************
                    * MULLIKEN POPULATION ANALYSIS *
                    ********************************

-----------------------
MULLIKEN ATOMIC CHARGES
-----------------------
   0 C :   -0.127209
   1 C :   -0.048491
   2 C :    0.221451
   3 O :   -0.309951
   4 C :    0.239555
   5 C :   -0.093677
   6 S :   -0.000415
   7 C :   -0.154491
   8 S :    0.104519
   9 H :    0.009639
  10 H :    0.018865
  11 H :    0.021702
  12 H :    0.067717
  13 H :    0.045396
  14 H :    0.005389
Sum of atomic charges:   -0.0000000

--------------------------------
MULLIKEN REDUCED ORBITAL CHARGES
--------------------------------
  0 C s       :     3.201035  s :     3.201035
      pz      :     1.116025  p :     2.889925
      px      :     0.922653
      py      :     0.851247
      dz2     :     0.003175  d :     0.036249
      dxz     :     0.008113
      dyz     :     0.003379
      dx2y2   :     0.008769
      dxy     :     0.012812
  1 C s       :     2.984077  s :     2.984077
      pz      :     1.089842  p :     3.018143
      px      :     0.923307
      py      :     1.004994
      dz2     :     0.004167  d :     0.046272
      dxz     :     0.009421
      dyz     :     0.006681
      dx2y2   :     0.013278
      dxy     :     0.012724
  2 C s       :     2.961459  s :     2.961459
      pz      :     1.024237  p :     2.741274
      px      :     0.773899
      py      :     0.943139
      dz2     :     0.006269  d :     0.075816
      dxz     :     0.016222
      dyz     :     0.008527
      dx2y2   :     0.022199
      dxy     :     0.022598
  3 O s       :     3.733611  s :     3.733611
      pz      :     1.733317  p :     4.559056
      px      :     1.193917
      py      :     1.631822
      dz2     :     0.002394  d :     0.017285
      dxz     :     0.003473
      dyz     :     0.002461
      dx2y2   :     0.002637
      dxy     :     0.006319
  4 C s       :     2.977992  s :     2.977992
      pz      :     0.972311  p :     2.719065
      px      :     0.823160
      py      :     0.923593
      dz2     :     0.015610  d :     0.063388
      dxz     :     0.010898
      dyz     :     0.007315
      dx2y2   :     0.012314
      dxy     :     0.017251
  5 C s       :     3.087821  s :     3.087821
      pz      :     1.035007  p :     2.969525
      px      :     0.975887
      py      :     0.958631
      dz2     :     0.010673  d :     0.036332
      dxz     :     0.004413
      dyz     :     0.006351
      dx2y2   :     0.006565
      dxy     :     0.008330
  6 S s       :     5.883433  s :     5.883433
      pz      :     3.730151  p :    10.024745
      px      :     2.939483
      py      :     3.355111
      dz2     :     0.011467  d :     0.092237
      dxz     :     0.017646
      dyz     :     0.011520
      dx2y2   :     0.013445
      dxy     :     0.038159
  7 C s       :     3.206343  s :     3.206343
      pz      :     1.153014  p :     2.913620
      px      :     0.912167
      py      :     0.848440
      dz2     :     0.003196  d :     0.034528
      dxz     :     0.007614
      dyz     :     0.003371
      dx2y2   :     0.008449
      dxy     :     0.011898
  8 S s       :     5.838735  s :     5.838735
      pz      :     3.618169  p :     9.936867
      px      :     3.316685
      py      :     3.002012
      dz2     :     0.014917  d :     0.119878
      dxz     :     0.014676
      dyz     :     0.024668
      dx2y2   :     0.018230
      dxy     :     0.047387
  9 H s       :     0.965816  s :     0.965816
      pz      :     0.006328  p :     0.024545
      px      :     0.004562
      py      :     0.013654
 10 H s       :     0.960228  s :     0.960228
      pz      :     0.004906  p :     0.020907
      px      :     0.008397
      py      :     0.007604
 11 H s       :     0.957102  s :     0.957102
      pz      :     0.014545  p :     0.021195
      px      :     0.002784
      py      :     0.003865
 12 H s       :     0.910199  s :     0.910199
      pz      :     0.014487  p :     0.022084
      px      :     0.003985
      py      :     0.003612
 13 H s       :     0.931829  s :     0.931829
      pz      :     0.005242  p :     0.022775
      px      :     0.012334
      py      :     0.005199
 14 H s       :     0.970160  s :     0.970160
      pz      :     0.006563  p :     0.024451
      px      :     0.003449
      py      :     0.014439


                     *******************************
                     * LOEWDIN POPULATION ANALYSIS *
                     *******************************

----------------------
LOEWDIN ATOMIC CHARGES
----------------------
   0 C :   -0.218582
   1 C :   -0.228418
   2 C :   -0.011822
   3 O :   -0.105699
   4 C :    0.072003
   5 C :   -0.138268
   6 S :    0.278536
   7 C :   -0.224999
   8 S :    0.438210
   9 H :    0.019158
  10 H :    0.025793
  11 H :    0.014141
  12 H :    0.027499
  13 H :    0.030940
  14 H :    0.021506

-------------------------------
LOEWDIN REDUCED ORBITAL CHARGES
-------------------------------
  0 C s       :     2.915799  s :     2.915799
      pz      :     1.125304  p :     3.214317
      px      :     1.054409
      py      :     1.034603
      dz2     :     0.006721  d :     0.088466
      dxz     :     0.017765
      dyz     :     0.005892
      dx2y2   :     0.024347
      dxy     :     0.033740
  1 C s       :     2.902280  s :     2.902280
      pz      :     1.084505  p :     3.212659
      px      :     1.070387
      py      :     1.057768
      dz2     :     0.009307  d :     0.113479
      dxz     :     0.019508
      dyz     :     0.013968
      dx2y2   :     0.038350
      dxy     :     0.032346
  2 C s       :     2.835249  s :     2.835249
      pz      :     1.027426  p :     2.997627
      px      :     0.947227
      py      :     1.022974
      dz2     :     0.013733  d :     0.178946
      dxz     :     0.033016
      dyz     :     0.018072
      dx2y2   :     0.058115
      dxy     :     0.056011
  3 O s       :     3.437499  s :     3.437499
      pz      :     1.735232  p :     4.636171
      px      :     1.250813
      py      :     1.650126
      dz2     :     0.003921  d :     0.032029
      dxz     :     0.006849
      dyz     :     0.003053
      dx2y2   :     0.005678
      dxy     :     0.012528
  4 C s       :     2.843509  s :     2.843509
      pz      :     1.035051  p :     2.939571
      px      :     0.889740
      py      :     1.014780
      dz2     :     0.038630  d :     0.144917
      dxz     :     0.022817
      dyz     :     0.016158
      dx2y2   :     0.028134
      dxy     :     0.039179
  5 C s       :     2.899217  s :     2.899217
      pz      :     1.082156  p :     3.152936
      px      :     1.034328
      py      :     1.036452
      dz2     :     0.026374  d :     0.086115
      dxz     :     0.009523
      dyz     :     0.014219
      dx2y2   :     0.016983
      dxy     :     0.019017
  6 S s       :     5.542656  s :     5.542656
      pz      :     3.715431  p :    10.063952
      px      :     2.949494
      py      :     3.399028
      dz2     :     0.014295  d :     0.114856
      dxz     :     0.021803
      dyz     :     0.012870
      dx2y2   :     0.016495
      dxy     :     0.049393
  7 C s       :     2.915931  s :     2.915931
      pz      :     1.150742  p :     3.225124
      px      :     1.033100
      py      :     1.041281
      dz2     :     0.006627  d :     0.083944
      dxz     :     0.016514
      dyz     :     0.005916
      dx2y2   :     0.023021
      dxy     :     0.031866
  8 S s       :     5.493943  s :     5.493943
      pz      :     3.572206  p :     9.921212
      px      :     3.345293
      py      :     3.003713
      dz2     :     0.018507  d :     0.146635
      dxz     :     0.015280
      dyz     :     0.030882
      dx2y2   :     0.019592
      dxy     :     0.062374
  9 H s       :     0.903764  s :     0.903764
      pz      :     0.020881  p :     0.077078
      px      :     0.014197
      py      :     0.042001
 10 H s       :     0.910298  s :     0.910298
      pz      :     0.013854  p :     0.063909
      px      :     0.026665
      py      :     0.023390
 11 H s       :     0.919892  s :     0.919892
      pz      :     0.045045  p :     0.065968
      px      :     0.009454
      py      :     0.011468
 12 H s       :     0.901133  s :     0.901133
      pz      :     0.045315  p :     0.071368
      px      :     0.012854
      py      :     0.013199
 13 H s       :     0.898772  s :     0.898772
      pz      :     0.015318  p :     0.070288
      px      :     0.037807
      py      :     0.017163
 14 H s       :     0.900523  s :     0.900523
      pz      :     0.022020  p :     0.077971
      px      :     0.011991
      py      :     0.043961


                      *****************************
                      * MAYER POPULATION ANALYSIS *
                      *****************************

  NA   - Mulliken gross atomic population
  ZA   - Total nuclear charge
  QA   - Mulliken gross atomic charge
  VA   - Mayer's total valence
  BVA  - Mayer's bonded valence
  FA   - Mayer's free valence

  ATOM       NA         ZA         QA         VA         BVA        FA
  0 C      6.1272     6.0000    -0.1272     3.8828     3.8828    -0.0000
  1 C      6.0485     6.0000    -0.0485     3.8881     3.8881    -0.0000
  2 C      5.7785     6.0000     0.2215     4.0855     4.0855    -0.0000
  3 O      8.3100     8.0000    -0.3100     2.2011     2.2011    -0.0000
  4 C      5.7604     6.0000     0.2396     3.9606     3.9606    -0.0000
  5 C      6.0937     6.0000    -0.0937     3.9823     3.9823    -0.0000
  6 S     16.0004    16.0000    -0.0004     2.1589     2.1589     0.0000
  7 C      6.1545     6.0000    -0.1545     3.8141     3.8141    -0.0000
  8 S     15.8955    16.0000     0.1045     2.5206     2.5206    -0.0000
  9 H      0.9904     1.0000     0.0096     1.0045     1.0045    -0.0000
 10 H      0.9811     1.0000     0.0189     0.9835     0.9835    -0.0000
 11 H      0.9783     1.0000     0.0217     0.9908     0.9908    -0.0000
 12 H      0.9323     1.0000     0.0677     0.9763     0.9763    -0.0000
 13 H      0.9546     1.0000     0.0454     0.9835     0.9835     0.0000
 14 H      0.9946     1.0000     0.0054     1.0057     1.0057    -0.0000

  Mayer bond orders larger than 0.100000
B(  0-C ,  1-C ) :   1.5420 B(  0-C ,  8-S ) :   1.1752 B(  0-C ,  9-H ) :   0.9702 
B(  1-C ,  2-C ) :   1.2199 B(  1-C ,  6-S ) :   0.9874 B(  2-C ,  3-O ) :   1.1155 
B(  2-C ,  7-C ) :   1.5539 B(  3-O ,  4-C ) :   0.9772 B(  4-C ,  5-C ) :   1.0420 
B(  4-C , 10-H ) :   0.9454 B(  4-C , 11-H ) :   0.9442 B(  5-C ,  6-S ) :   1.0138 
B(  5-C , 12-H ) :   0.9399 B(  5-C , 13-H ) :   0.9443 B(  7-C ,  8-S ) :   1.1474 
B(  7-C , 14-H ) :   0.9643 

-------
TIMINGS
-------

Total SCF time: 0 days 0 hours 0 min 36 sec 

Total time                  ....      36.230 sec
Sum of individual times     ....      36.027 sec  ( 99.4%)

Fock matrix formation       ....      34.275 sec  ( 94.6%)
  Split-RI-J                ....       3.514 sec  ( 10.3% of F)
  Chain of spheres X        ....      27.810 sec  ( 81.1% of F)
  COS-X 1 center corr.      ....       0.000 sec  (  0.0% of F)
  XC integration            ....       2.931 sec  (  8.6% of F)
    Basis function eval.    ....       0.849 sec  ( 29.0% of XC)
    Density eval.           ....       0.989 sec  ( 33.8% of XC)
    XC-Functional eval.     ....       0.180 sec  (  6.2% of XC)
    XC-Potential eval.      ....       0.851 sec  ( 29.0% of XC)
Diagonalization             ....       0.039 sec  (  0.1%)
Density matrix formation    ....       0.004 sec  (  0.0%)
Population analysis         ....       0.005 sec  (  0.0%)
Initial guess               ....       0.294 sec  (  0.8%)
Orbital Transformation      ....       0.000 sec  (  0.0%)
Orbital Orthonormalization  ....       0.000 sec  (  0.0%)
DIIS solution               ....       0.013 sec  (  0.0%)
SOSCF solution              ....       0.058 sec  (  0.2%)
Grid generation             ....       1.337 sec  (  3.7%)


-------------------------------------------------------------------------------
                          DFT DISPERSION CORRECTION                            
                                                                               
                              DFTD3 V3.1  Rev 1                                
                          USING Becke-Johnson damping                          
-------------------------------------------------------------------------------
Gaussians B3LYP functional is recognized, using regular B3LYP params
Active option DFTDOPT                   ...         4   

molecular C6(AA) [au] = 4102.180209 


            DFT-D V3
 parameters
 s6 scaling factor         :     1.0000 
 a1 scaling factor         :     0.3981 
 s8 scaling factor         :     1.9889 
 a2 scaling factor         :     4.4211 
 ad hoc parameters k1-k3   :    16.0000     1.3333    -4.0000 

 Edisp/kcal,au: -21.200419693888  -0.033785015699 
 E6   /kcal   :  -9.183188384 
 E8   /kcal   : -12.017231310 
 % E8         :  56.683931185 

-------------------------   ----------------
Dispersion correction           -0.033785016
-------------------------   ----------------


-------------------------   --------------------
FINAL SINGLE POINT ENERGY     -1103.414771497417
-------------------------   --------------------

------------------------------------------------------------------------------
                         ORCA SCF GRADIENT CALCULATION
------------------------------------------------------------------------------

Gradient of the Kohn-Sham DFT energy:
Kohn-Sham wavefunction type      ... RKS
Hartree-Fock exchange scaling    ...    0.200
Number of operators              ...    1
Number of atoms                  ...   15
Basis set dimensions             ...  164
Integral neglect threshold       ... 2.5e-11
Integral primitive cutoff        ... 2.5e-12

Nuclear repulsion gradient       ... done
One Electron Gradient            ... done
Pre-screening matrix             ... done
RI-J gradient                    ... done
COSX-gradient                    ... done
Exchange-correlation gradient    ... done
Dispersion correction            ... done

------------------
CARTESIAN GRADIENT
------------------

   1   C   :   -0.007453552   -0.001995722    0.000873516
   2   C   :    0.013130230    0.006481906   -0.001104424
   3   C   :    0.006183761   -0.009565013    0.001227363
   4   O   :   -0.006138314    0.004201372    0.001771783
   5   C   :    0.005240579   -0.001182737    0.002808510
   6   C   :   -0.008821680   -0.001042798   -0.006013854
   7   S   :    0.003672306    0.005718379   -0.001983946
   8   C   :   -0.007897891   -0.001302854   -0.000075097
   9   S   :   -0.006460731   -0.001556734   -0.000488486
  10   H   :   -0.003981517    0.012313253   -0.002163132
  11   H   :    0.004551790   -0.002592569    0.000982269
  12   H   :    0.001316519   -0.000329438   -0.003994275
  13   H   :    0.002707219   -0.001083886    0.007150681
  14   H   :    0.007006283    0.002600498   -0.002151570
  15   H   :   -0.001292611   -0.012752418    0.003068720

Difference to translation invariance:
           :    0.0017623887   -0.0020887614   -0.0000919413

Norm of the cartesian gradient     ...    0.0358922162
RMS gradient                       ...    0.0053504957
MAX gradient                       ...    0.0131302302

-------
TIMINGS
-------

Total SCF gradient time            ...       10.249 sec

One electron gradient       ....       0.084 sec  (  0.8%)
Prescreening matrices       ....       0.075 sec  (  0.7%)
RI-J Coulomb gradient       ....       0.964 sec  (  9.4%)
COSX gradient               ....       4.284 sec  ( 41.8%)
XC gradient                 ....       4.402 sec  ( 43.0%)
------------------------------------------------------------------------------
                         ORCA GEOMETRY RELAXATION STEP
------------------------------------------------------------------------------

Reading the OPT-File                    .... done
Getting information on internals        .... done
Copying old internal coords+grads       .... done
Making the new internal coordinates     .... (new redundants).... done
Validating the new internal coordinates .... (new redundants).... done
Calculating the B-matrix                .... done
Calculating the G,G- and P matrices     .... done
Transforming gradient to internals      .... done
Projecting the internal gradient        .... done
Number of atoms                         ....  15
Number of internal coordinates          ....  78
Current Energy                          .... -1103.414771497 Eh
Current gradient norm                   ....     0.035892216 Eh/bohr
Maximum allowed component of the step   ....  0.300
Current trust radius                    ....  0.300
Evaluating the initial hessian          ....  (Almloef) done
Projecting the Hessian                  .... done
Forming the augmented Hessian           .... done
Diagonalizing the augmented Hessian     .... done
Last element of RFO vector              ....  0.982093933
Lowest eigenvalues of augmented Hessian:
 -0.003857836  0.014018427  0.015768752  0.020613523  0.023222623
Length of the computed step             ....  0.191826758
The final length of the internal step   ....  0.191826758
Converting the step to cartesian space:
 Initial RMS(Int)=    0.0217201033
Transforming coordinates:
 Iter   0:  RMS(Cart)=    0.0437693298 RMS(Int)=    1.4181668847
 Iter   1:  RMS(Cart)=    0.0007285702 RMS(Int)=    0.0004448528
 Iter   2:  RMS(Cart)=    0.0000197628 RMS(Int)=    0.0000140746
 Iter   3:  RMS(Cart)=    0.0000007467 RMS(Int)=    0.0000005908
 Iter   4:  RMS(Cart)=    0.0000000235 RMS(Int)=    0.0000000207
done
Storing new coordinates                 .... done

                                .--------------------.
          ----------------------|Geometry convergence|-------------------------
          Item                value                   Tolerance       Converged
          ---------------------------------------------------------------------
          RMS gradient        0.0044002919            0.0001000000      NO
          MAX gradient        0.0157831774            0.0003000000      NO
          RMS step            0.0217201033            0.0020000000      NO
          MAX step            0.0569276361            0.0040000000      NO
          ........................................................
          Max(Bonds)      0.0180      Max(Angles)    1.09
          Max(Dihed)        3.26      Max(Improp)    0.00
          ---------------------------------------------------------------------

The optimization has not yet converged - more geometry cycles are needed


    ---------------------------------------------------------------------------
                         Redundant Internal Coordinates
                            (Angstroem and degrees)

        Definition                    Value    dE/dq     Step     New-Value
    ----------------------------------------------------------------------------
     1. B(C   1,C   0)                1.3605 -0.015783  0.0121    1.3727   
     2. B(C   2,C   1)                1.4277 -0.013072  0.0124    1.4401   
     3. B(O   3,C   2)                1.3629 -0.000341 -0.0001    1.3628   
     4. B(C   4,O   3)                1.4108 -0.007638  0.0082    1.4189   
     5. B(C   5,C   4)                1.5205 -0.002405  0.0038    1.5243   
     6. B(S   6,C   5)                1.8262 -0.002990  0.0056    1.8318   
     7. B(S   6,C   1)                1.7597 -0.007016  0.0080    1.7677   
     8. B(C   7,C   2)                1.3624 -0.014090  0.0108    1.3733   
     9. B(S   8,C   7)                1.7181 -0.006245  0.0061    1.7242   
    10. B(S   8,C   0)                1.7167 -0.008518  0.0085    1.7252   
    11. B(H   9,C   0)                1.0704 -0.013274  0.0180    1.0884   
    12. B(H  10,C   4)                1.0932 -0.005044  0.0074    1.1006   
    13. B(H  11,C   4)                1.0995 -0.004010  0.0060    1.1055   
    14. B(H  12,C   5)                1.0903 -0.006889  0.0100    1.1004   
    15. B(H  13,C   5)                1.0875 -0.007735  0.0111    1.0986   
    16. B(H  14,C   7)                1.0701 -0.013014  0.0176    1.0877   
    17. A(S   8,C   0,H   9)          120.57 -0.000695    0.09    120.66   
    18. A(C   1,C   0,H   9)          127.39 -0.000105   -0.01    127.39   
    19. A(C   1,C   0,S   8)          112.03  0.000799   -0.08    111.95   
    20. A(C   0,C   1,S   6)          123.88 -0.002885    0.27    124.15   
    21. A(C   0,C   1,C   2)          112.49  0.003617   -0.40    112.10   
    22. A(C   2,C   1,S   6)          123.62 -0.000733    0.13    123.75   
    23. A(C   1,C   2,C   7)          111.91 -0.002489    0.39    112.30   
    24. A(O   3,C   2,C   7)          121.79 -0.002203    0.20    121.99   
    25. A(C   1,C   2,O   3)          126.29  0.004695   -0.60    125.69   
    26. A(C   2,O   3,C   4)          115.50 -0.004531    0.97    116.47   
    27. A(C   5,C   4,H  11)          109.61 -0.000073   -0.15    109.46   
    28. A(H  10,C   4,H  11)          108.98  0.000582   -0.27    108.70   
    29. A(O   3,C   4,H  11)          110.26  0.000192   -0.08    110.18   
    30. A(C   5,C   4,H  10)          110.35  0.000059   -0.05    110.29   
    31. A(O   3,C   4,H  10)          104.81 -0.002158    0.44    105.24   
    32. A(O   3,C   4,C   5)          112.71  0.001326    0.12    112.83   
    33. A(C   4,C   5,S   6)          109.84 -0.002642    1.09    110.93   
    34. A(H  12,C   5,H  13)          110.05  0.000347   -0.56    109.49   
    35. A(S   6,C   5,H  13)          106.33  0.000194   -0.11    106.21   
    36. A(C   4,C   5,H  13)          111.07  0.000686   -0.30    110.76   
    37. A(S   6,C   5,H  12)          108.65 -0.000117    0.31    108.95   
    38. A(C   4,C   5,H  12)          110.79  0.001434   -0.38    110.41   
    39. A(C   1,S   6,C   5)           96.46  0.000067    0.48     96.94   
    40. A(S   8,C   7,H  14)          120.70 -0.002511    0.36    121.06   
    41. A(C   2,C   7,H  14)          127.06 -0.000465    0.04    127.10   
    42. A(C   2,C   7,S   8)          112.24  0.002976   -0.41    111.84   
    43. A(C   0,S   8,C   7)           91.32 -0.004909    0.50     91.82   
    44. D(S   6,C   1,C   0,S   8)    178.86 -0.000954    2.14    181.00   
    45. D(S   6,C   1,C   0,H   9)     -0.99 -0.000581    1.19      0.19   
    46. D(C   2,C   1,C   0,H   9)    179.71 -0.000484    0.73    180.43   
    47. D(C   2,C   1,C   0,S   8)     -0.44 -0.000858    1.68      1.24   
    48. D(O   3,C   2,C   1,S   6)      0.19  0.000897   -2.00     -1.80   
    49. D(C   7,C   2,C   1,C   0)      0.49  0.000630   -1.07     -0.58   
    50. D(O   3,C   2,C   1,C   0)    179.49  0.000783   -1.54    177.96   
    51. D(C   7,C   2,C   1,S   6)   -178.81  0.000744   -1.53   -180.34   
    52. D(C   4,O   3,C   2,C   7)   -164.48 -0.001220    1.90   -162.58   
    53. D(C   4,O   3,C   2,C   1)     16.61 -0.001394    2.41     19.02   
    54. D(H  11,C   4,O   3,C   2)     68.93  0.000489   -0.25     68.68   
    55. D(H  10,C   4,O   3,C   2)   -173.93  0.000076   -0.37   -174.30   
    56. D(C   5,C   4,O   3,C   2)    -53.90 -0.000499   -0.09    -53.99   
    57. D(S   6,C   5,C   4,H  10)   -171.76  0.000201   -1.83   -173.58   
    58. D(S   6,C   5,C   4,O   3)     71.46  0.002033   -2.42     69.04   
    59. D(H  13,C   5,C   4,H  11)     65.60 -0.000073   -1.94     63.66   
    60. D(H  13,C   5,C   4,H  10)    -54.42 -0.000783   -1.47    -55.89   
    61. D(H  13,C   5,C   4,O   3)   -171.20  0.001049   -2.06   -173.27   
    62. D(H  12,C   5,C   4,H  11)   -171.77  0.001853   -3.14   -174.91   
    63. D(H  12,C   5,C   4,H  10)     68.21  0.001143   -2.67     65.54   
    64. D(H  12,C   5,C   4,O   3)    -48.57  0.002975   -3.26    -51.84   
    65. D(S   6,C   5,C   4,H  11)    -51.74  0.000911   -2.29    -54.03   
    66. D(C   1,S   6,C   5,H  12)     75.61 -0.000037    2.20     77.80   
    67. D(C   1,S   6,C   5,C   4)    -45.72 -0.000100    1.80    -43.92   
    68. D(C   5,S   6,C   1,C   2)     14.69  0.000599   -0.34     14.35   
    69. D(C   1,S   6,C   5,H  13)   -165.98  0.000416    1.63   -164.34   
    70. D(C   5,S   6,C   1,C   0)   -164.53  0.000679   -0.85   -165.38   
    71. D(H  14,C   7,C   2,O   3)      0.09 -0.000343    0.46      0.54   
    72. D(H  14,C   7,C   2,C   1)    179.14 -0.000118    0.01    179.15   
    73. D(S   8,C   7,C   2,O   3)   -179.37 -0.000342    0.42   -178.95   
    74. D(S   8,C   7,C   2,C   1)     -0.32 -0.000117   -0.02     -0.35   
    75. D(C   0,S   8,C   7,H  14)   -179.43 -0.000297    0.79   -178.64   
    76. D(C   0,S   8,C   7,C   2)      0.07 -0.000288    0.82      0.88   
    77. D(C   7,S   8,C   0,H   9)   -179.92  0.000307   -0.55   -180.47   
    78. D(C   7,S   8,C   0,C   1)      0.22  0.000651   -1.44     -1.22   
    ----------------------------------------------------------------------------

         *************************************************************
         *                GEOMETRY OPTIMIZATION CYCLE   2            *
         *************************************************************
---------------------------------
CARTESIAN COORDINATES (ANGSTROEM)
---------------------------------
  C      1.669603   -1.167283    0.209689
  C      0.364013   -0.745592    0.167555
  C      0.257416    0.656598   -0.142861
  O     -0.905353    1.351551   -0.292441
  C     -2.069528    0.763485    0.266414
  C     -2.301546   -0.663192   -0.217604
  S     -1.028309   -1.796551    0.453147
  C      1.485396    1.247672   -0.311753
  S      2.774053    0.123924   -0.089043
  H      2.033148   -2.172565    0.414038
  H     -2.900951    1.412976   -0.047054
  H     -2.009265    0.772736    1.370279
  H     -2.273523   -0.704564   -1.316836
  H     -3.268862   -1.042988    0.138831
  H      1.684309    2.287042   -0.563383

----------------------------
CARTESIAN COORDINATES (A.U.)
----------------------------
  NO LB      ZA    FRAG     MASS         X           Y           Z
   0 C     6.0000    0    12.011    3.155092   -2.205844    0.396255
   1 C     6.0000    0    12.011    0.687885   -1.408965    0.316633
   2 C     6.0000    0    12.011    0.486445    1.240790   -0.269968
   3 O     8.0000    0    15.999   -1.710869    2.554062   -0.552633
   4 C     6.0000    0    12.011   -3.910841    1.442777    0.503450
   5 C     6.0000    0    12.011   -4.349291   -1.253251   -0.411212
   6 S    16.0000    0    32.060   -1.943223   -3.394989    0.856324
   7 C     6.0000    0    12.011    2.806991    2.357759   -0.589127
   8 S    16.0000    0    32.060    5.242201    0.234183   -0.168267
   9 H     1.0000    0     1.008    3.842092   -4.105553    0.782418
  10 H     1.0000    0     1.008   -5.482004    2.670138   -0.088919
  11 H     1.0000    0     1.008   -3.796960    1.460259    2.589452
  12 H     1.0000    0     1.008   -4.296335   -1.331434   -2.488459
  13 H     1.0000    0     1.008   -6.177253   -1.970962    0.262353
  14 H     1.0000    0     1.008    3.182883    4.321884   -1.064639

--------------------------------
INTERNAL COORDINATES (ANGSTROEM)
--------------------------------
 C      0   0   0     0.000000000000     0.00000000     0.00000000
 C      1   0   0     1.372647767164     0.00000000     0.00000000
 C      2   1   0     1.440089524625   112.09518813     0.00000000
 O      3   2   1     1.362851802980   125.68425945   177.96227959
 C      4   3   2     1.418958897205   116.45112350    19.01721397
 C      5   4   3     1.524307051991   112.81222267   306.01375572
 S      2   1   3     1.767664960865   124.16461528   179.76015506
 C      3   2   1     1.373254638646   112.29716715   359.42161194
 S      8   3   2     1.724252825285   111.83320561   359.65458828
 H      1   2   3     1.088354781552   127.39000367   180.42980439
 H      5   4   3     1.100620802255   105.25037400   185.69926688
 H      5   4   3     1.105547547135   110.18538548    68.67951820
 H      6   5   4     1.100366983538   110.39679790   308.16483509
 H      6   5   4     1.098631755452   110.76630802   186.72816368
 H      8   3   2     1.087738125400   127.10327923   179.14767362

---------------------------
INTERNAL COORDINATES (A.U.)
---------------------------
 C      0   0   0     0.000000000000     0.00000000     0.00000000
 C      1   0   0     2.593928358279     0.00000000     0.00000000
 C      2   1   0     2.721374809869   112.09518813     0.00000000
 O      3   2   1     2.575416668752   125.68425945   177.96227959
 C      4   3   2     2.681443711009   116.45112350    19.01721397
 C      5   4   3     2.880522872268   112.81222267   306.01375572
 S      2   1   3     3.340402672563   124.16461528   179.76015506
 C      3   2   1     2.595075179178   112.29716715   359.42161194
 S      8   3   2     3.258365625428   111.83320561   359.65458828
 H      1   2   3     2.056692473678   127.39000367   180.42980439
 H      5   4   3     2.079871893559   105.25037400   185.69926688
 H      5   4   3     2.089182092114   110.18538548    68.67951820
 H      6   5   4     2.079392245696   110.39679790   308.16483509
 H      6   5   4     2.076113139834   110.76630802   186.72816368
 H      8   3   2     2.055527162431   127.10327923   179.14767362

 One Electron integrals                  ... done
 Pre-screening matrix                    ... done

Diagonalization of the overlap matrix:
Smallest eigenvalue                        ... 7.682e-04
Time for diagonalization                   ...    0.004 sec
Threshold for overlap eigenvalues          ... 1.000e-08
Number of eigenvalues below threshold      ... 0
Time for construction of square roots      ...    0.002 sec
Total time needed                          ...    0.007 sec

-------------------
DFT GRID GENERATION
-------------------

General Integration Accuracy     IntAcc      ...  4.340
Radial Grid Type                 RadialGrid  ... Gauss-Chebyshev
Angular Grid (max. acc.)         AngularGrid ... Lebedev-110
Angular grid pruning method      GridPruning ... 3 (G Style)
Weight generation scheme         WeightScheme... Becke
Basis function cutoff            BFCut       ...    1.0000e-11
Integration weight cutoff        WCut        ...    1.0000e-14
Grids for H and He will be reduced by one unit

# of grid points (after initial pruning)     ...  20028 (   0.0 sec)
# of grid points (after weights+screening)   ...  18577 (   0.0 sec)
nearest neighbour list constructed           ...    0.0 sec
Grid point re-assignment to atoms done       ...    0.0 sec
Grid point division into batches done        ...    0.0 sec
Reduced shell lists constructed in    0.1 sec

Total number of grid points                  ...    18577
Total number of batches                      ...      298
Average number of points per batch           ...       62
[...]
  75   0.0000       0.605187        16.4680 
  76   0.0000       0.621010        16.8985 
  77   0.0000       0.624578        16.9956 
  78   0.0000       0.626979        17.0610 
  79   0.0000       0.640498        17.4288 
  80   0.0000       0.644992        17.5511 
  81   0.0000       0.651776        17.7357 
  82   0.0000       0.658928        17.9304 
  83   0.0000       0.663185        18.0462 
  84   0.0000       0.682285        18.5659 
  85   0.0000       0.700872        19.0717 
  86   0.0000       0.708037        19.2667 
  87   0.0000       0.725348        19.7377 
  88   0.0000       0.730901        19.8888 
  89   0.0000       0.751957        20.4618 
  90   0.0000       0.771858        21.0033 
  91   0.0000       0.775632        21.1060 
  92   0.0000       0.789429        21.4815 
  93   0.0000       0.804669        21.8962 
  94   0.0000       0.819282        22.2938 
  95   0.0000       0.848947        23.1010 
  96   0.0000       0.870089        23.6763 
  97   0.0000       0.921391        25.0723 
  98   0.0000       0.966490        26.2995 
  99   0.0000       1.020968        27.7819 
 100   0.0000       1.039827        28.2951 
 101   0.0000       1.072890        29.1948 
 102   0.0000       1.107115        30.1261 
 103   0.0000       1.132191        30.8085 
 104   0.0000       1.146321        31.1930 
 105   0.0000       1.160776        31.5863 
 106   0.0000       1.182437        32.1758 
 107   0.0000       1.205118        32.7929 
 108   0.0000       1.224036        33.3077 
 109   0.0000       1.265471        34.4352 
 110   0.0000       1.294584        35.2274 
 111   0.0000       1.304019        35.4842 
 112   0.0000       1.372658        37.3519 
 113   0.0000       1.436544        39.0904 
 114   0.0000       1.475684        40.1554 
 115   0.0000       1.551048        42.2062 
 116   0.0000       1.570156        42.7261 
 117   0.0000       1.623924        44.1892 
 118   0.0000       1.645631        44.7799 
 119   0.0000       1.670345        45.4524 
 120   0.0000       1.706724        46.4423 
 121   0.0000       1.726122        46.9702 
 122   0.0000       1.746474        47.5240 
 123   0.0000       1.757727        47.8302 
 124   0.0000       1.769782        48.1582 
 125   0.0000       1.785934        48.5977 
 126   0.0000       1.810080        49.2548 
 127   0.0000       1.832396        49.8620 
 128   0.0000       1.839385        50.0522 
 129   0.0000       1.860643        50.6307 
 130   0.0000       1.883740        51.2592 
 131   0.0000       1.906919        51.8899 
 132   0.0000       1.945270        52.9335 
 133   0.0000       1.949157        53.0393 
 134   0.0000       2.014878        54.8276 
 135   0.0000       2.044316        55.6287 
 136   0.0000       2.069035        56.3013 
 137   0.0000       2.118864        57.6572 
 138   0.0000       2.155083        58.6428 
 139   0.0000       2.168757        59.0149 
 140   0.0000       2.237434        60.8837 
 141   0.0000       2.249275        61.2059 
 142   0.0000       2.278954        62.0135 
 143   0.0000       2.309346        62.8405 
 144   0.0000       2.317802        63.0706 
 145   0.0000       2.336374        63.5760 
 146   0.0000       2.383671        64.8630 
 147   0.0000       2.422251        65.9128 
 148   0.0000       2.451635        66.7124 
 149   0.0000       2.511107        68.3307 
 150   0.0000       2.611577        71.0646 
 151   0.0000       2.664874        72.5149 
 152   0.0000       2.722975        74.0959 
 153   0.0000       2.744549        74.6830 
 154   0.0000       2.758874        75.0728 
 155   0.0000       2.859720        77.8169 
 156   0.0000       2.928900        79.6994 
 157   0.0000       2.947208        80.1976 
 158   0.0000       2.960294        80.5537 
 159   0.0000       3.039806        82.7173 
 160   0.0000       3.049509        82.9814 
 161   0.0000       3.154416        85.8360 
 162   0.0000       3.405611        92.6714 
 163   0.0000       3.577284        97.3428 

                    ********************************
                    * MULLIKEN POPULATION ANALYSIS *
                    ********************************

-----------------------
MULLIKEN ATOMIC CHARGES
-----------------------
   0 C :   -0.137754
   1 C :   -0.047385
   2 C :    0.213767
   3 O :   -0.315813
   4 C :    0.232322
   5 C :   -0.093056
   6 S :    0.003254
   7 C :   -0.156758
   8 S :    0.099448
   9 H :    0.022379
  10 H :    0.023404
  11 H :    0.022814
  12 H :    0.067086
  13 H :    0.048461
  14 H :    0.017830
Sum of atomic charges:   -0.0000000

--------------------------------
MULLIKEN REDUCED ORBITAL CHARGES
--------------------------------
  0 C s       :     3.209643  s :     3.209643
      pz      :     1.124385  p :     2.893148
      px      :     0.918806
      py      :     0.849957
      dz2     :     0.003070  d :     0.034962
      dxz     :     0.007676
      dyz     :     0.003145
      dx2y2   :     0.008458
      dxy     :     0.012612
  1 C s       :     2.999378  s :     2.999378
      pz      :     1.086763  p :     3.003561
      px      :     0.917371
      py      :     0.999427
      dz2     :     0.003966  d :     0.044446
      dxz     :     0.009189
      dyz     :     0.006413
      dx2y2   :     0.012729
      dxy     :     0.012149
  2 C s       :     2.978215  s :     2.978215
      pz      :     1.023218  p :     2.732865
      px      :     0.770813
      py      :     0.938834
      dz2     :     0.006073  d :     0.075153
      dxz     :     0.016248
      dyz     :     0.008086
      dx2y2   :     0.022389
      dxy     :     0.022357
  3 O s       :     3.734181  s :     3.734181
      pz      :     1.713932  p :     4.564712
      px      :     1.188783
      py      :     1.661997
      dz2     :     0.002331  d :     0.016920
      dxz     :     0.003906
      dyz     :     0.002410
      dx2y2   :     0.002508
      dxy     :     0.005764
  4 C s       :     2.988803  s :     2.988803
      pz      :     0.964938  p :     2.716811
      px      :     0.818488
      py      :     0.933385
      dz2     :     0.015242  d :     0.062063
      dxz     :     0.011424
      dyz     :     0.006684
      dx2y2   :     0.012391
      dxy     :     0.016322
  5 C s       :     3.088279  s :     3.088279
      pz      :     1.045378  p :     2.968813
      px      :     0.967727
      py      :     0.955709
      dz2     :     0.010046  d :     0.035964
      dxz     :     0.005315
      dyz     :     0.005892
      dx2y2   :     0.006334
      dxy     :     0.008377
  6 S s       :     5.879169  s :     5.879169
      pz      :     3.767479  p :    10.026970
      px      :     2.927697
      py      :     3.331794
      dz2     :     0.011459  d :     0.090606
      dxz     :     0.016071
      dyz     :     0.010195
      dx2y2   :     0.013507
      dxy     :     0.039375
  7 C s       :     3.212518  s :     3.212518
      pz      :     1.157688  p :     2.910787
      px      :     0.907224
      py      :     0.845875
      dz2     :     0.003087  d :     0.033453
      dxz     :     0.007318
      dyz     :     0.003216
      dx2y2   :     0.008066
      dxy     :     0.011766
  8 S s       :     5.842354  s :     5.842354
      pz      :     3.638752  p :     9.941551
      px      :     3.315292
      py      :     2.987506
      dz2     :     0.014101  d :     0.116647
      dxz     :     0.013673
      dyz     :     0.024424
      dx2y2   :     0.017382
      dxy     :     0.047067
  9 H s       :     0.953876  s :     0.953876
      pz      :     0.006031  p :     0.023745
      px      :     0.004387
      py      :     0.013327
 10 H s       :     0.955872  s :     0.955872
      pz      :     0.004916  p :     0.020725
      px      :     0.008287
      py      :     0.007522
 11 H s       :     0.956303  s :     0.956303
      pz      :     0.014335  p :     0.020882
      px      :     0.002729
      py      :     0.003818
 12 H s       :     0.911312  s :     0.911312
      pz      :     0.014302  p :     0.021602
      px      :     0.003792
      py      :     0.003508
 13 H s       :     0.929286  s :     0.929286
      pz      :     0.006070  p :     0.022253
      px      :     0.011266
      py      :     0.004917
 14 H s       :     0.958450  s :     0.958450
      pz      :     0.006135  p :     0.023720
      px      :     0.003206
      py      :     0.014379


                     *******************************
                     * LOEWDIN POPULATION ANALYSIS *
                     *******************************

----------------------
LOEWDIN ATOMIC CHARGES
----------------------
   0 C :   -0.220458
   1 C :   -0.226071
   2 C :   -0.011265
   3 O :   -0.110947
   4 C :    0.076466
   5 C :   -0.143576
   6 S :    0.278094
   7 C :   -0.229056
   8 S :    0.428451
   9 H :    0.024387
  10 H :    0.028844
  11 H :    0.016184
  12 H :    0.027736
  13 H :    0.033596
  14 H :    0.027614

-------------------------------
LOEWDIN REDUCED ORBITAL CHARGES
-------------------------------
  0 C s       :     2.927681  s :     2.927681
      pz      :     1.129979  p :     3.208258
      px      :     1.049722
      py      :     1.028557
      dz2     :     0.006312  d :     0.084518
      dxz     :     0.016501
      dyz     :     0.005392
      dx2y2   :     0.023555
      dxy     :     0.032758
  1 C s       :     2.912292  s :     2.912292
      pz      :     1.083998  p :     3.205467
      px      :     1.066049
      py      :     1.055421
      dz2     :     0.008847  d :     0.108312
      dxz     :     0.018891
      dyz     :     0.013136
      dx2y2   :     0.036919
      dxy     :     0.030519
  2 C s       :     2.842304  s :     2.842304
      pz      :     1.025621  p :     2.991896
      px      :     0.944694
      py      :     1.021581
      dz2     :     0.013185  d :     0.177064
      dxz     :     0.032921
      dyz     :     0.016970
      dx2y2   :     0.058696
      dxy     :     0.055293
  3 O s       :     3.438017  s :     3.438017
      pz      :     1.719618  p :     4.641471
      px      :     1.247605
      py      :     1.674248
      dz2     :     0.003794  d :     0.031459
      dxz     :     0.007695
      dyz     :     0.002948
      dx2y2   :     0.005544
      dxy     :     0.011478
  4 C s       :     2.848417  s :     2.848417
      pz      :     1.028940  p :     2.933618
      px      :     0.885533
      py      :     1.019145
      dz2     :     0.037851  d :     0.141498
      dxz     :     0.024110
      dyz     :     0.014122
      dx2y2   :     0.028504
      dxy     :     0.036911
  5 C s       :     2.905683  s :     2.905683
      pz      :     1.088536  p :     3.152914
      px      :     1.027792
      py      :     1.036586
      dz2     :     0.024887  d :     0.084979
      dxz     :     0.012076
      dyz     :     0.012656
      dx2y2   :     0.016243
      dxy     :     0.019117
  6 S s       :     5.546332  s :     5.546332
      pz      :     3.747806  p :    10.062944
      px      :     2.937034
      py      :     3.378104
      dz2     :     0.014468  d :     0.112629
      dxz     :     0.019579
      dyz     :     0.011125
      dx2y2   :     0.016706
      dxy     :     0.050752
  7 C s       :     2.927278  s :     2.927278
      pz      :     1.153451  p :     3.221073
      px      :     1.029350
      py      :     1.038272
      dz2     :     0.006437  d :     0.080705
      dxz     :     0.015523
      dyz     :     0.005386
      dx2y2   :     0.022043
      dxy     :     0.031316
  8 S s       :     5.503905  s :     5.503905
      pz      :     3.592553  p :     9.925354
      px      :     3.342452
      py      :     2.990350
      dz2     :     0.017459  d :     0.142290
      dxz     :     0.014072
      dyz     :     0.030345
      dx2y2   :     0.018695
      dxy     :     0.061719
  9 H s       :     0.901653  s :     0.901653
      pz      :     0.019488  p :     0.073960
      px      :     0.013386
      py      :     0.041086
 10 H s       :     0.908220  s :     0.908220
      pz      :     0.013788  p :     0.062936
      px      :     0.026210
      py      :     0.022938
 11 H s       :     0.918949  s :     0.918949
      pz      :     0.044415  p :     0.064867
      px      :     0.009134
      py      :     0.011318
 12 H s       :     0.902924  s :     0.902924
      pz      :     0.044196  p :     0.069340
      px      :     0.012516
      py      :     0.012628
 13 H s       :     0.898050  s :     0.898050
      pz      :     0.017210  p :     0.068354
      px      :     0.035051
      py      :     0.016093
 14 H s       :     0.897438  s :     0.897438
      pz      :     0.020322  p :     0.074948
      px      :     0.010937
      py      :     0.043689


                      *****************************
                      * MAYER POPULATION ANALYSIS *
                      *****************************

  NA   - Mulliken gross atomic population
  ZA   - Total nuclear charge
  QA   - Mulliken gross atomic charge
  VA   - Mayer's total valence
  BVA  - Mayer's bonded valence
  FA   - Mayer's free valence

  ATOM       NA         ZA         QA         VA         BVA        FA
  0 C      6.1378     6.0000    -0.1378     3.8800     3.8800    -0.0000
  1 C      6.0474     6.0000    -0.0474     3.8867     3.8867    -0.0000
  2 C      5.7862     6.0000     0.2138     4.0779     4.0779    -0.0000
  3 O      8.3158     8.0000    -0.3158     2.1916     2.1916     0.0000
  4 C      5.7677     6.0000     0.2323     3.9747     3.9747     0.0000
  5 C      6.0931     6.0000    -0.0931     3.9808     3.9808    -0.0000
  6 S     15.9967    16.0000     0.0033     2.1633     2.1633    -0.0000
  7 C      6.1568     6.0000    -0.1568     3.8095     3.8095     0.0000
  8 S     15.9006    16.0000     0.0994     2.5110     2.5110    -0.0000
  9 H      0.9776     1.0000     0.0224     1.0021     1.0021    -0.0000
 10 H      0.9766     1.0000     0.0234     0.9828     0.9828    -0.0000
 11 H      0.9772     1.0000     0.0228     0.9877     0.9877    -0.0000
 12 H      0.9329     1.0000     0.0671     0.9748     0.9748    -0.0000
 13 H      0.9515     1.0000     0.0485     0.9810     0.9810     0.0000
 14 H      0.9822     1.0000     0.0178     1.0046     1.0046    -0.0000

  Mayer bond orders larger than 0.100000
B(  0-C ,  1-C ) :   1.5432 B(  0-C ,  8-S ) :   1.1698 B(  0-C ,  9-H ) :   0.9672 
B(  1-C ,  2-C ) :   1.2138 B(  1-C ,  6-S ) :   0.9939 B(  2-C ,  3-O ) :   1.1089 
B(  2-C ,  7-C ) :   1.5575 B(  3-O ,  4-C ) :   0.9687 B(  4-C ,  5-C ) :   1.0531 
B(  4-C , 10-H ) :   0.9462 B(  4-C , 11-H ) :   0.9431 B(  5-C ,  6-S ) :   1.0095 
B(  5-C , 12-H ) :   0.9382 B(  5-C , 13-H ) :   0.9416 B(  7-C ,  8-S ) :   1.1387 
B(  7-C , 14-H ) :   0.9623 

-------
TIMINGS
-------

Total SCF time: 0 days 0 hours 0 min 18 sec 

Total time                  ....      18.226 sec
Sum of individual times     ....      18.132 sec  ( 99.5%)

Fock matrix formation       ....      16.726 sec  ( 91.8%)
  Split-RI-J                ....       1.513 sec  (  9.0% of F)
  Chain of spheres X        ....      13.717 sec  ( 82.0% of F)
  COS-X 1 center corr.      ....       0.000 sec  (  0.0% of F)
  XC integration            ....       1.475 sec  (  8.8% of F)
    Basis function eval.    ....       0.434 sec  ( 29.4% of XC)
    Density eval.           ....       0.499 sec  ( 33.8% of XC)
    XC-Functional eval.     ....       0.095 sec  (  6.5% of XC)
    XC-Potential eval.      ....       0.413 sec  ( 28.0% of XC)
Diagonalization             ....       0.007 sec  (  0.0%)
Density matrix formation    ....       0.002 sec  (  0.0%)
Population analysis         ....       0.005 sec  (  0.0%)
Initial guess               ....       0.005 sec  (  0.0%)
Orbital Transformation      ....       0.000 sec  (  0.0%)
Orbital Orthonormalization  ....       0.004 sec  (  0.0%)
DIIS solution               ....       0.002 sec  (  0.0%)
SOSCF solution              ....       0.036 sec  (  0.2%)
Grid generation             ....       1.349 sec  (  7.4%)


-------------------------------------------------------------------------------
                          DFT DISPERSION CORRECTION                            
                                                                               
                              DFTD3 V3.1  Rev 1                                
                          USING Becke-Johnson damping                          
-------------------------------------------------------------------------------
Gaussians B3LYP functional is recognized, using regular B3LYP params
Active option DFTDOPT                   ...         4   

molecular C6(AA) [au] = 4120.567296 


            DFT-D V3
 parameters
 s6 scaling factor         :     1.0000 
 a1 scaling factor         :     0.3981 
 s8 scaling factor         :     1.9889 
 a2 scaling factor         :     4.4211 
 ad hoc parameters k1-k3   :    16.0000     1.3333    -4.0000 

 Edisp/kcal,au: -21.044431111241  -0.033536432096 
 E6   /kcal   :  -9.111922139 
 E8   /kcal   : -11.932508972 
 % E8         :  56.701504113 

-------------------------   ----------------
Dispersion correction           -0.033536432
-------------------------   ----------------


-------------------------   --------------------
FINAL SINGLE POINT ENERGY     -1103.416928213217
-------------------------   --------------------

                                *** OPTIMIZATION RUN DONE ***

                            ***************************************
                            *     ORCA property calculations      *
                            ***************************************

                                    ---------------------
                                    Active property flags
                                    ---------------------
   (+) Dipole Moment


------------------------------------------------------------------------------
                       ORCA ELECTRIC PROPERTIES CALCULATION
------------------------------------------------------------------------------

Dipole Moment Calculation                       ... on
Quadrupole Moment Calculation                   ... off
Polarizability Calculation                      ... off
GBWName                                         ... 35u.gbw
Electron density file                           ... 35u.scfp
The origin for moment calculation is the CENTER OF MASS  = ( 0.344548, -0.371981  0.051339)

-------------
DIPOLE MOMENT
-------------
                                X             Y             Z
Electronic contribution:      6.78963      -1.67248       0.11544
Nuclear contribution   :     -7.46799       1.73438      -0.04402
                        -----------------------------------------
Total Dipole Moment    :     -0.67836       0.06190       0.07142
                        -----------------------------------------
Magnitude (a.u.)       :      0.68492
Magnitude (Debye)      :      1.74092



--------------------
Rotational spectrum 
--------------------
 
Rotational constants in cm-1:     0.081917     0.032181     0.023582 
Rotational constants in MHz :  2455.820795   964.758528   706.955630 

 Dipole components along the rotational axes: 
x,y,z [a.u.] :    -0.658907     0.170020     0.077744 
x,y,z [Debye]:    -1.674809     0.432156     0.197610 

 

Timings for individual modules:

Sum of individual times         ...      338.504 sec (=   5.642 min)
GTO integral calculation        ...        3.757 sec (=   0.063 min)   1.1 %
SCF iterations                  ...      250.107 sec (=   4.168 min)  73.9 %
SCF Gradient evaluation         ...       81.391 sec (=   1.357 min)  24.0 %
Geometry relaxation             ...        3.249 sec (=   0.054 min)   1.0 %
                             ****ORCA TERMINATED NORMALLY****
TOTAL RUN TIME: 0 days 0 hours 5 minutes 39 seconds 746 msec
