
                                 *****************
                                 * O   R   C   A *
                                 *****************

           --- An Ab Initio, DFT and Semiempirical electronic structure package ---

                  #######################################################
                  #                        -***-                        #
                  #          Department of theory and spectroscopy      #
                  #               Directorship: Frank Neese             #
                  #        Max Planck Institute fuer Kohlenforschung    #
                  #                Kaiser Wilhelm Platz 1               #
                  #                 D-45470 Muelheim/Ruhr               #
                  #                      Germany                        #
                  #                                                     #
                  #                  All rights reserved                #
                  #                        -***-                        #
                  #######################################################


                         Program Version 4.2.0 -  RELEASE  -


 With contributions from (in alphabetic order):
   Daniel Aravena         : Magnetic Suceptibility
   Michael Atanasov       : Ab Initio Ligand Field Theory (pilot matlab implementation)
   Alexander A. Auer      : GIAO ZORA, VPT2
   Ute Becker             : Parallelization
   Giovanni Bistoni       : ED, misc. LED, open-shell LED, HFLED
   Martin Brehm           : Molecular dynamics
   Dmytro Bykov           : SCF Hessian
   Vijay G. Chilkuri      : MRCI spin determinant printing, contributions to CSF-ICE
   Dipayan Datta          : RHF DLPNO-CCSD density
   Achintya Kumar Dutta   : EOM-CC, STEOM-CC
   Dmitry Ganyushin       : Spin-Orbit,Spin-Spin,Magnetic field MRCI
   Miquel Garcia          : C-PCM Hessian, Gaussian charge scheme
   Yang Guo               : DLPNO-NEVPT2, CIM, IAO-localization
   Andreas Hansen         : Spin unrestricted coupled pair/coupled cluster methods
   Benjamin Helmich-Paris : CASSCF linear response (MC-RPA)
   Lee Huntington         : MR-EOM, pCC
   Robert Izsak           : Overlap fitted RIJCOSX, COSX-SCS-MP3, EOM
   Christian Kollmar      : KDIIS, OOCD, Brueckner-CCSD(T), CCSD density
   Simone Kossmann        : Meta GGA functionals, TD-DFT gradient, OOMP2, MP2 Hessian
   Martin Krupicka        : AUTO-CI
   Lucas Lang             : DCDCAS
   Dagmar Lenk            : GEPOL surface, SMD
   Dimitrios Liakos       : Extrapolation schemes; Compound Job, initial MDCI parallelization
   Dimitrios Manganas     : Further ROCIS development; embedding schemes
   Dimitrios Pantazis     : SARC Basis sets
   Taras Petrenko         : DFT Hessian,TD-DFT gradient, ASA, ECA, R-Raman, ABS, FL, XAS/XES, NRVS
   Peter Pinski           : DLPNO-MP2, DLPNO-MP2 Gradient
   Christoph Reimann      : Effective Core Potentials
   Marius Retegan         : Local ZFS, SOC
   Christoph Riplinger    : Optimizer, TS searches, QM/MM, DLPNO-CCSD(T), (RO)-DLPNO pert. Triples
   Tobias Risthaus        : Range-separated hybrids, TD-DFT gradient, RPA, STAB
   Michael Roemelt        : Original ROCIS implementation
   Masaaki Saitow         : Open-shell DLPNO-CCSD energy and density
   Barbara Sandhoefer     : DKH picture change effects
   Avijit Sen             : IP-ROCIS
   Kantharuban Sivalingam : CASSCF convergence, NEVPT2, FIC-MRCI
   Bernardo de Souza      : ESD, SOC TD-DFT
   Georgi Stoychev        : AutoAux, RI-MP2 NMR
   Willem Van den Heuvel  : Paramagnetic NMR
   Boris Wezisla          : Elementary symmetry handling
   Frank Wennmohs         : Technical directorship


 We gratefully acknowledge several colleagues who have allowed us to
 interface, adapt or use parts of their codes:
   Stefan Grimme, W. Hujo, H. Kruse,             : VdW corrections, initial TS optimization,
                  C. Bannwarth                     DFT functionals, gCP, sTDA/sTD-DF
   Ed Valeev, F. Pavosevic, A. Kumar             : LibInt (2-el integral package), F12 methods
   Garnet Chan, S. Sharma, J. Yang, R. Olivares  : DMRG
   Ulf Ekstrom                                   : XCFun DFT Library
   Mihaly Kallay                                 : mrcc  (arbitrary order and MRCC methods)
   Andreas Klamt, Michael Diedenhofen            : otool_cosmo (COSMO solvation model)
   Jiri Pittner, Ondrej Demel                    : Mk-CCSD
   Frank Weinhold                                : gennbo (NPA and NBO analysis)
   Christopher J. Cramer and Donald G. Truhlar   : smd solvation model
   Lars Goerigk                                  : TD-DFT with DH, B97 family of functionals
   V. Asgeirsson, H. Jonsson                     : NEB implementation
   FAccTs GmbH                                   : IRC, NEB, NEB-TS, Multilevel, MM, QM/MM, CI optimization
   S Lehtola, MJT Oliveira, MAL Marques          : LibXC Library


 Your calculation uses the libint2 library for the computation of 2-el integrals
 For citations please refer to: http://libint.valeyev.net

 Your ORCA version has been built with support for libXC version: 4.2.3
 For citations please refer to: https://tddft.org/programs/libxc/

 This ORCA versions uses:
   CBLAS   interface :  Fast vector & matrix operations
   LAPACKE interface :  Fast linear algebra routines
   SCALAPACK package :  Parallel linear algebra routines


XCFun DFT library Copyright 2009-2010 Ulf Ekstrom and contributors.
See http://admol.org/xcfun for more information. This is free soft-
ware; see the source code for copying conditions. There is ABSOLUTELY
NO WARRANTY; not even for MERCHANTABILITY or FITNESS FOR A PARTICULAR
PURPOSE. For details see the documentation. Scientific users of this 
library should cite U. Ekstrom, L. Visscher, R. Bast, A. J. Thorvald-
sen and K. Ruud; J.Chem.Theor.Comp. 2010, DOI: 10.1021/ct100117s
XCFun Version 0.99 
----- Orbital basis set information -----
Your calculation utilizes the basis: def2-SVP
   F. Weigend and R. Ahlrichs, Phys. Chem. Chem. Phys. 7, 3297 (2005).

----- AuxJ basis set information -----
Your calculation utilizes the auxiliary basis: def2/J
   F. Weigend, Phys. Chem. Chem. Phys. 8, 1057 (2006).

================================================================================
                                        WARNINGS
                       Please study these warnings very carefully!
================================================================================

INFO   : Checking CIS options ...

WARNING: CIS/ROCIS methods need fully converged wavefunctions
  ===> : Setting SCFConvForced true
         You can overwrite this default with %scf ConvForced false 


INFO   : the flag for use of LIBINT has been found!

================================================================================
                                       INPUT FILE
================================================================================
NAME = xtbopt.inp
|  1> # ORCA input file
|  2> # SCF done       -183.939169952374          0.000485720943
|  3> ! CAM-B3LYP def2-SVP def2/J RIJCOSX Grid4 TightSCF
|  4> %maxcore 5000
|  5> %tddft
|  6>     Mode sTDDFT
|  7>     Ethresh 5.0
|  8>     maxcore 5000
|  9> end
| 10> 
| 11> %pal
| 12>   nprocs 6
| 13>   end
| 14> * xyz 0 1
| 15>    C       -1.83312        -3.50864        -0.14396
| 16>    C       -2.73202        -2.46032        -0.00683
| 17>    F       -3.76495        -2.37956        -0.85323
| 18>    C       -2.58412        -1.49268         0.98626
| 19>    F       -3.47499        -0.49801         1.08191
| 20>    C       -1.52215        -1.55118         1.87509
| 21>    C       -0.63020        -2.59546         1.73975
| 22>    C       -0.76990        -3.57426         0.74206
| 23>    C        0.33246        -4.53158         0.86487
| 24>    C        0.50737        -5.64039         0.06961
| 25>    C       -0.35318        -5.99326        -0.99058
| 26>    N       -1.01339        -6.33837        -1.86413
| 27>    C        1.54157        -6.59128         0.18883
| 28>    N        2.34150        -7.41637         0.22343
| 29>    C        1.15520        -4.10817         1.97073
| 30>    C        0.58298        -2.87588         2.54453
| 31>    O        1.01445        -2.19527         3.45002
| 32>    C        2.32656        -4.72715         2.36459
| 33>    C        3.12609        -4.49709         3.47009
| 34>    C        4.36964        -5.08348         3.85747
| 35>    C        4.27886        -4.43492         5.17806
| 36>    C        4.67968        -4.13422         6.42448
| 37>    S        3.52328        -3.03573         7.14571
| 38>    C        2.50201        -3.01187         5.71891
| 39>    C        3.04172        -3.80121         4.77862
| 40>    C        5.33485        -5.89355         3.27713
| 41>    C        5.36230        -6.23203         1.94061
| 42>    C        6.32296        -7.09000         1.39200
| 43>    O        7.21428        -7.69113         2.20637
| 44>    C        8.03200        -8.46701         1.46335
| 45>    C        7.65546        -8.37326         0.09538
| 46>    C        6.56694        -7.48786         0.05516
| 47>    C        5.83192        -6.99831        -1.14776
| 48>    F        4.91738        -6.06250        -0.88094
| 49>    F        6.66733        -6.43105        -2.04763
| 50>    F        5.19055        -7.97622        -1.80841
| 51>    O        8.33906        -9.07937        -0.79933
| 52>    C        7.97882        -9.11061        -2.17123
| 53>    C        9.08141        -9.20035         2.01180
| 54>    C        9.35074        -9.26178         3.36406
| 55>    C       10.42523        -9.92767         3.92579
| 56>    C       11.59898       -10.60831         3.47987
| 57>    C       11.99911       -10.85702         4.88479
| 58>    C       12.78544       -11.29822         5.87789
| 59>    S       12.07029       -10.85691         7.41725
| 60>    C       10.70232       -10.06203         6.66667
| 61>    C       10.81714       -10.15607         5.33196
| 62>    C       12.23480       -10.84852         2.27722
| 63>    C       13.47084       -11.46234         2.21278
| 64>    C       14.17227       -11.62139         1.01978
| 65>    C       15.45648       -12.08900         0.84579
| 66>    C       15.87851       -12.54076        -0.50032
| 67>    O       15.28182       -12.38321        -1.54172
| 68>    C       17.15500       -13.26064        -0.28772
| 69>    C       17.51891       -13.16809         1.06716
| 70>    C       18.66941       -13.79344         1.51785
| 71>    C       19.43351       -14.49500         0.59584
| 72>    C       19.07150       -14.57155        -0.74864
| 73>    C       17.91943       -13.95115        -1.20635
| 74>    F       19.84182       -15.25388        -1.60472
| 75>    F       20.54340       -15.11384         1.01364
| 76>    C       16.53278       -12.33647         1.76713
| 77>    C       16.73918       -11.75773         2.99670
| 78>    C       15.94975       -10.73718         3.56456
| 79>    N       15.38734        -9.87874         4.08064
| 80>    C       17.84561       -12.04179         3.82384
| 81>    N       18.70413       -12.24660         4.55818
| 82>    H       -1.99206        -4.22756        -0.93056
| 83>    H       -1.40215        -0.80352         2.64276
| 84>    H        2.67354        -5.53190         1.73114
| 85>    H        5.53057        -4.44215         6.99881
| 86>    H        1.62267        -2.40206         5.71774
| 87>    H        6.12690        -6.25667         3.91905
| 88>    H        4.63794        -5.80773         1.26961
| 89>    H        6.95038        -9.44784        -2.30797
| 90>    H        8.65785        -9.83222        -2.62193
| 91>    H        8.12192        -8.13837        -2.64516
| 92>    H        9.68554        -9.74374         1.30329
| 93>    H        8.67441        -8.75689         4.04124
| 94>    H       13.71632       -11.82833         5.88239
| 95>    H        9.96065        -9.60879         7.29345
| 96>    H       11.78112       -10.49017         1.36312
| 97>    H       13.89610       -11.82656         3.13548
| 98>    H       13.64350       -11.41335         0.09470
| 99>    H       18.99165       -13.76686         2.54582
|100>    H       17.63628       -14.00943        -2.24514
|101> *
|102> 
|103>                          ****END OF INPUT****
================================================================================

                       ****************************
                       * Single Point Calculation *
                       ****************************

---------------------------------
CARTESIAN COORDINATES (ANGSTROEM)
---------------------------------
  C     -1.833120   -3.508640   -0.143960
  C     -2.732020   -2.460320   -0.006830
  F     -3.764950   -2.379560   -0.853230
  C     -2.584120   -1.492680    0.986260
  F     -3.474990   -0.498010    1.081910
  C     -1.522150   -1.551180    1.875090
  C     -0.630200   -2.595460    1.739750
  C     -0.769900   -3.574260    0.742060
  C      0.332460   -4.531580    0.864870
  C      0.507370   -5.640390    0.069610
  C     -0.353180   -5.993260   -0.990580
  N     -1.013390   -6.338370   -1.864130
  C      1.541570   -6.591280    0.188830
  N      2.341500   -7.416370    0.223430
  C      1.155200   -4.108170    1.970730
  C      0.582980   -2.875880    2.544530
  O      1.014450   -2.195270    3.450020
  C      2.326560   -4.727150    2.364590
  C      3.126090   -4.497090    3.470090
  C      4.369640   -5.083480    3.857470
  C      4.278860   -4.434920    5.178060
  C      4.679680   -4.134220    6.424480
  S      3.523280   -3.035730    7.145710
  C      2.502010   -3.011870    5.718910
  C      3.041720   -3.801210    4.778620
  C      5.334850   -5.893550    3.277130
  C      5.362300   -6.232030    1.940610
  C      6.322960   -7.090000    1.392000
  O      7.214280   -7.691130    2.206370
  C      8.032000   -8.467010    1.463350
  C      7.655460   -8.373260    0.095380
  C      6.566940   -7.487860    0.055160
  C      5.831920   -6.998310   -1.147760
  F      4.917380   -6.062500   -0.880940
  F      6.667330   -6.431050   -2.047630
  F      5.190550   -7.976220   -1.808410
  O      8.339060   -9.079370   -0.799330
  C      7.978820   -9.110610   -2.171230
  C      9.081410   -9.200350    2.011800
  C      9.350740   -9.261780    3.364060
  C     10.425230   -9.927670    3.925790
  C     11.598980  -10.608310    3.479870
  C     11.999110  -10.857020    4.884790
  C     12.785440  -11.298220    5.877890
  S     12.070290  -10.856910    7.417250
  C     10.702320  -10.062030    6.666670
  C     10.817140  -10.156070    5.331960
  C     12.234800  -10.848520    2.277220
  C     13.470840  -11.462340    2.212780
  C     14.172270  -11.621390    1.019780
  C     15.456480  -12.089000    0.845790
  C     15.878510  -12.540760   -0.500320
  O     15.281820  -12.383210   -1.541720
  C     17.155000  -13.260640   -0.287720
  C     17.518910  -13.168090    1.067160
  C     18.669410  -13.793440    1.517850
  C     19.433510  -14.495000    0.595840
  C     19.071500  -14.571550   -0.748640
  C     17.919430  -13.951150   -1.206350
  F     19.841820  -15.253880   -1.604720
  F     20.543400  -15.113840    1.013640
  C     16.532780  -12.336470    1.767130
  C     16.739180  -11.757730    2.996700
  C     15.949750  -10.737180    3.564560
  N     15.387340   -9.878740    4.080640
  C     17.845610  -12.041790    3.823840
  N     18.704130  -12.246600    4.558180
  H     -1.992060   -4.227560   -0.930560
  H     -1.402150   -0.803520    2.642760
  H      2.673540   -5.531900    1.731140
  H      5.530570   -4.442150    6.998810
  H      1.622670   -2.402060    5.717740
  H      6.126900   -6.256670    3.919050
  H      4.637940   -5.807730    1.269610
  H      6.950380   -9.447840   -2.307970
  H      8.657850   -9.832220   -2.621930
  H      8.121920   -8.138370   -2.645160
  H      9.685540   -9.743740    1.303290
  H      8.674410   -8.756890    4.041240
  H     13.716320  -11.828330    5.882390
  H      9.960650   -9.608790    7.293450
  H     11.781120  -10.490170    1.363120
  H     13.896100  -11.826560    3.135480
  H     13.643500  -11.413350    0.094700
  H     18.991650  -13.766860    2.545820
  H     17.636280  -14.009430   -2.245140

----------------------------
CARTESIAN COORDINATES (A.U.)
----------------------------
  NO LB      ZA    FRAG     MASS         X           Y           Z
   0 C     6.0000    0    12.011   -3.464095   -6.630369   -0.272045
   1 C     6.0000    0    12.011   -5.162770   -4.649331   -0.012907
   2 F     9.0000    0    18.998   -7.114724   -4.496717   -1.612371
   3 C     6.0000    0    12.011   -4.883279   -2.820756    1.863761
   4 F     9.0000    0    18.998   -6.566779   -0.941103    2.044514
   5 C     6.0000    0    12.011   -2.876447   -2.931305    3.543407
   6 C     6.0000    0    12.011   -1.190905   -4.904709    3.287651
   7 C     6.0000    0    12.011   -1.454900   -6.754373    1.402290
   8 C     6.0000    0    12.011    0.628258   -8.563445    1.634367
   9 C     6.0000    0    12.011    0.958790  -10.658792    0.131544
  10 C     6.0000    0    12.011   -0.667413  -11.325620   -1.871925
  11 N     7.0000    0    14.007   -1.915030  -11.977783   -3.522695
  12 C     6.0000    0    12.011    2.913145  -12.455714    0.356837
  13 N     7.0000    0    14.007    4.424794  -14.014908    0.422222
  14 C     6.0000    0    12.011    2.183012   -7.763316    3.724140
  15 C     6.0000    0    12.011    1.101673   -5.434626    4.808465
  16 O     8.0000    0    15.999    1.917033   -4.148459    6.519593
  17 C     6.0000    0    12.011    4.396561   -8.933019    4.468428
  18 C     6.0000    0    12.011    5.907454   -8.498268    6.557520
  19 C     6.0000    0    12.011    8.257423   -9.606385    7.289562
  20 C     6.0000    0    12.011    8.085874   -8.380784    9.785115
  21 C     6.0000    0    12.011    8.843314   -7.812544   12.140508
  22 S    16.0000    0    32.060    6.658034   -5.736698   13.503435
  23 C     6.0000    0    12.011    4.728114   -5.691609   10.807174
  24 C     6.0000    0    12.011    5.748018   -7.183246    9.030283
  25 C     6.0000    0    12.011   10.081405  -11.137195    6.192878
  26 C     6.0000    0    12.011   10.133278  -11.776830    3.667221
  27 C     6.0000    0    12.011   11.948663  -13.398158    2.630499
  28 O     8.0000    0    15.999   13.633013  -14.534129    4.169435
  29 C     6.0000    0    12.011   15.178280  -16.000330    2.765331
  30 C     6.0000    0    12.011   14.466723  -15.823168    0.180242
  31 C     6.0000    0    12.011   12.409718  -14.150005    0.104237
  32 C     6.0000    0    12.011   11.020732  -13.224889   -2.168952
  33 F     9.0000    0    18.998    9.292501  -11.456465   -1.664735
  34 F     9.0000    0    18.998   12.599428  -12.152923   -3.869460
  35 F     9.0000    0    18.998    9.808718  -15.072871   -3.417400
  36 O     8.0000    0    15.999   15.758540  -17.157523   -1.510515
  37 C     6.0000    0    12.011   15.077785  -17.216558   -4.103030
  38 C     6.0000    0    12.011   17.161378  -17.386142    3.801751
  39 C     6.0000    0    12.011   17.670338  -17.502228    6.357152
  40 C     6.0000    0    12.011   19.700830  -18.760577    7.418668
  41 C     6.0000    0    12.011   21.918896  -20.046801    6.576001
  42 C     6.0000    0    12.011   22.675032  -20.516794    9.230915
  43 C     6.0000    0    12.011   24.160980  -21.350542   11.107602
  44 S    16.0000    0    32.060   22.809542  -20.516587   14.016571
  45 C     6.0000    0    12.011   20.224454  -19.014481   12.598181
  46 C     6.0000    0    12.011   20.441432  -19.192191   10.075944
  47 C     6.0000    0    12.011   23.120421  -20.500732    4.303322
  48 C     6.0000    0    12.011   25.456198  -21.660683    4.181548
  49 C     6.0000    0    12.011   26.781709  -21.961244    1.927105
  50 C     6.0000    0    12.011   29.208514  -22.844899    1.598311
  51 C     6.0000    0    12.011   30.006035  -23.698602   -0.945468
  52 O     8.0000    0    15.999   28.878455  -23.400876   -2.913429
  53 C     6.0000    0    12.011   32.418252  -25.058978   -0.543712
  54 C     6.0000    0    12.011   33.105942  -24.884084    2.016640
  55 C     6.0000    0    12.011   35.280072  -26.065824    2.868321
  56 C     6.0000    0    12.011   36.724012  -27.391580    1.125974
  57 C     6.0000    0    12.011   36.039912  -27.536239   -1.414725
  58 C     6.0000    0    12.011   33.862815  -26.363853   -2.279671
  59 F     9.0000    0    18.998   37.495606  -28.825656   -3.032481
  60 F     9.0000    0    18.998   38.821400  -28.561018    1.915502
  61 C     6.0000    0    12.011   31.242426  -23.312550    3.339392
  62 C     6.0000    0    12.011   31.632466  -22.218890    5.662942
  63 C     6.0000    0    12.011   30.140659  -20.290330    6.736042
  64 N     7.0000    0    14.007   29.077859  -18.668113    7.711292
  65 C     6.0000    0    12.011   33.723316  -22.755685    7.226010
  66 N     7.0000    0    14.007   35.345683  -23.142720    8.613712
  67 H     1.0000    0     1.008   -3.764448   -7.988931   -1.758504
  68 H     1.0000    0     1.008   -2.649679   -1.518433    4.994093
  69 H     1.0000    0     1.008    5.052258  -10.453776    3.271380
  70 H     1.0000    0     1.008   10.451263   -8.394447   13.225834
  71 H     1.0000    0     1.008    3.066402   -4.539236   10.804963
  72 H     1.0000    0     1.008   11.578163  -11.823393    7.405931
  73 H     1.0000    0     1.008    8.764436  -10.975019    2.399215
  74 H     1.0000    0     1.008   13.134315  -17.853830   -4.361431
  75 H     1.0000    0     1.008   16.360965  -18.580203   -4.954730
  76 H     1.0000    0     1.008   15.348204  -15.379290   -4.998628
  77 H     1.0000    0     1.008   18.303018  -18.413000    2.462861
  78 H     1.0000    0     1.008   16.392259  -16.548124    7.636837
  79 H     1.0000    0     1.008   25.920088  -22.352304   11.116106
  80 H     1.0000    0     1.008   18.822901  -18.157982   13.782623
  81 H     1.0000    0     1.008   22.263090  -19.823548    2.575923
  82 H     1.0000    0     1.008   26.259823  -22.348960    5.925198
  83 H     1.0000    0     1.008   25.782479  -21.568106    0.178957
  84 H     1.0000    0     1.008   35.889017  -26.015595    4.810903
  85 H     1.0000    0     1.008   33.327739  -26.473986   -4.242700

--------------------------------
INTERNAL COORDINATES (ANGSTROEM)
--------------------------------
 C      0   0   0     0.000000000000     0.00000000     0.00000000
 C      1   0   0     1.387732203741     0.00000000     0.00000000
 F      2   1   0     1.337856316089   118.89438891     0.00000000
 C      2   1   3     1.394427957157   121.72767737   180.08543479
 F      4   2   1     1.338718300577   119.72884666   179.97530810
 C      4   2   1     1.386081274601   120.57507562     0.00000000
 C      6   4   2     1.380004505971   117.66181622   359.86339634
 C      1   2   3     1.385559162649   118.01101553   179.97552888
 C      8   1   2     1.465176251548   131.44370241   180.06638471
 C      9   8   1     1.375678593204   125.01827511   358.68535259
 C     10   9   8     1.410342644714   123.96224333     0.86324451
 N     11  10   9     1.148071321260   176.44125263   181.78386337
 C     10   9   8     1.409955616500   126.01249537   181.57090738
 N     13  10   9     1.149721128361   175.46582931   172.31328913
 C      9   8   1     1.441909662670   107.56088765   179.89348042
 C     15   9   8     1.474862980924   108.80517093   359.54327916
 O     16  15   9     1.212150350864   128.43774855   182.93085731
 C     15   9   8     1.382152737435   124.79295873   182.88092972
 C     18  15   9     1.383584502118   130.01284031   186.86151011
 C     19  18  15     1.428402288923   130.65593146   183.35313434
 C     20  19  18     1.474051908889    90.49993265   189.72108530
 C     21  20  19     1.343368891556   155.69217492   178.84692020
 S     22  21  20     1.750461068690   109.00476253   179.02442569
 C     23  22  21     1.754799120270    93.32495765     0.16433444
 C     24  23  22     1.341077851506   109.13951124     0.00000000
 C     20  19  18     1.387313326037   137.05135927    11.68778813
 C     26  20  19     1.378988006946   124.23651988     8.85806512
 C     27  26  20     1.399983245828   122.94854930   182.30476901
 O     28  27  26     1.348705718902   119.34177907     4.57213379
 C     29  28  27     1.350086846540   108.91165036   179.82971810
 C     30  29  28     1.421939996976   109.34059307   359.80201704
 C     31  30  29     1.403718846066   105.93204752     0.36664466
 C     32  31  30     1.492290229580   127.73157176   177.15701666
 F     33  32  31     1.335408806359   113.96274110   185.96765809
 F     33  32  31     1.352575244709   111.69453034   305.00705962
 F     33  32  31     1.343176037420   113.13074421    64.31358565
 O     31  30  29     1.329062179208   118.45098888   180.58039735
 C     37  31  30     1.418752411522   122.14452107   175.94673687
 C     30  29  28     1.392783653767   122.83558197   178.63318956
 C     39  30  29     1.380188176083   123.79873181     3.29688066
 C     40  39  30     1.383285525515   124.81096183   183.41315503
 C     41  40  39     1.428217251856   137.81597328     6.91343951
 C     42  41  40     1.481810003813    90.33713172   178.27308994
 C     43  42  41     1.341350035934   156.27107470   182.62434281
 S     44  43  42     1.753802511174   109.14950810   176.76357798
 C     45  44  43     1.751155753124    93.24188241   359.67970740
 C     46  45  44     1.342936312004   109.11213209     0.33788381
 C     42  41  40     1.381424966837   137.13359101     4.50793002
 C     48  42  41     1.381565194842   121.98149903   173.53027537
 C     49  48  42     1.393036233341   122.76264088   185.01093694
 C     50  49  48     1.377725283320   128.04306048   172.86394980
 C     51  50  49     1.481286113686   118.93679118   162.78794744
 O     52  51  50     1.210526711229   126.98826445    11.04192909
 C     52  51  50     1.480828381177   105.27112074   192.90494006
 C     54  52  51     1.405950143142   109.23670093   356.21888253
 C     55  54  52     1.384858963433   119.92907114   178.55025104
 C     56  55  54     1.387853624739   117.99869121     0.24246022
 C     57  56  55     1.394466784474   121.69175365     0.34155816
 C     54  52  51     1.380231271164   128.68729870   175.38021920
 F     58  57  56     1.338596316183   119.68283418   179.67086436
 F     57  56  55     1.337675445577   118.89266495   180.46922367
 C     51  50  49     1.438238675081   132.45805830   347.91755221
 C     62  51  50     1.374548410388   127.80388885   335.32223390
 C     63  62  51     1.409676206439   125.52574590   356.39626403
 N     64  63  62     1.148722250198   174.98421608   205.61629971
 C     63  62  51     1.410332587761   123.89176157   181.48086517
 N     66  63  62     1.148154589809   176.07023491   201.35718264
 H      1   2   3     1.077426308385   118.72767222     0.11435203
 H      6   4   2     1.078291567481   120.83246375   179.81791460
 H     18  15   9     1.081330932416   115.99565262     5.42782008
 H     22  21  20     1.071769390261   132.04894152   358.86392152
 H     24  23  22     1.070097397717   119.13560715   181.26466469
 H     26  20  19     1.082247949086   117.19230926   187.20744964
 H     27  26  20     1.074694793697   119.65722643     3.99621000
 H     38  37  31     1.090921965174   111.55421212   303.24683436
 H     38  37  31     1.088546380730   104.86677492   184.99505892
 H     38  37  31     1.091026064079   111.53802662    66.90944080
 H     39  30  29     1.078068721882   115.39299645   182.63986602
 H     40  39  30     1.082085455683   118.06106243     3.61232140
 H     44  43  42     1.071249007701   132.47638878   357.47792466
 H     46  45  44     1.071612828824   118.81271975   180.44680122
 H     48  42  41     1.081581746749   119.01923166   357.45415463
 H     49  48  42     1.079294939301   117.55304473     4.92532489
 H     50  49  48     1.085657110187   117.55581793   348.86413944
 H     56  55  54     1.077621192674   123.21162263   180.74772316
 H     59  54  52     1.078264877013   121.52019318     1.45941903

---------------------------
INTERNAL COORDINATES (A.U.)
---------------------------
 C      0   0   0     0.000000000000     0.00000000     0.00000000
 C      1   0   0     2.622433812294     0.00000000     0.00000000
 F      2   1   0     2.528182043946   118.89438891     0.00000000
 C      2   1   3     2.635086952509   121.72767737   180.08543479
 F      4   2   1     2.529810958559   119.72884666   179.97530810
 C      4   2   1     2.619314008353   120.57507562     0.00000000
 C      6   4   2     2.607830579862   117.66181622   359.86339634
 C      1   2   3     2.618327359751   118.01101553   179.97552888
 C      8   1   2     2.768781853351   131.44370241   180.06638471
 C      9   8   1     2.599655789454   125.01827511   358.68535259
 C     10   9   8     2.665161353500   123.96224333     0.86324451
 N     11  10   9     2.169540379391   176.44125263   181.78386337
 C     10   9   8     2.664429976169   126.01249537   181.57090738
 N     13  10   9     2.172658062985   175.46582931   172.31328913
 C      9   8   1     2.724814372300   107.56088765   179.89348042
 C     15   9   8     2.787087119005   108.80517093   359.54327916
 O     16  15   9     2.290632196270   128.43774855   182.93085731
 C     15   9   8     2.611890149002   124.79295873   182.88092972
 C     18  15   9     2.614595792140   130.01284031   186.86151011
 C     19  18  15     2.699289135130   130.65593146   183.35313434
 C     20  19  18     2.785554414984    90.49993265   189.72108530
 C     21  20  19     2.538599301870   155.69217492   178.84692020
 S     22  21  20     3.307892027916   109.00476253   179.02442569
 C     23  22  21     3.316089757356    93.32495765     0.16433444
 C     24  23  22     2.534269863614   109.13951124     0.00000000
 C     20  19  18     2.621642248149   137.05135927    11.68778813
 C     26  20  19     2.605909675089   124.23651988     8.85806512
 C     27  26  20     2.645584926694   122.94854930   182.30476901
 O     28  27  26     2.548684443979   119.34177907     4.57213379
 C     29  28  27     2.551294396970   108.91165036   179.82971810
 C     30  29  28     2.687077173153   109.34059307   359.80201704
 C     31  30  29     2.652644188088   105.93204752     0.36664466
 C     32  31  30     2.820019846233   127.73157176   177.15701666
 F     33  32  31     2.523556920844   113.96274110   185.96765809
 F     33  32  31     2.555996788022   111.69453034   305.00705962
 F     33  32  31     2.538234860370   113.13074421    64.31358565
 O     31  30  29     2.511563533655   118.45098888   180.58039735
 C     37  31  30     2.681053509617   122.14452107   175.94673687
 C     30  29  28     2.631979669421   122.83558197   178.63318956
 C     39  30  29     2.608177666074   123.79873181     3.29688066
 C     40  39  30     2.614030808241   124.81096183   183.41315503
 C     41  40  39     2.698939465750   137.81597328     6.91343951
 C     42  41  40     2.800215089711    90.33713172   178.27308994
 C     43  42  41     2.534784217641   156.27107470   182.62434281
 S     44  43  42     3.314206439102   109.14950810   176.76357798
 C     45  44  43     3.309204791245    93.24188241   359.67970740
 C     46  45  44     2.537781844987   109.11213209     0.33788381
 C     42  41  40     2.610514861883   137.13359101     4.50793002
 C     48  42  41     2.610779854410   121.98149903   173.53027537
 C     49  48  42     2.632456975643   122.76264088   185.01093694
 C     50  49  48     2.603523473254   128.04306048   172.86394980
 C     51  50  49     2.799225080848   118.93679118   162.78794744
 O     52  51  50     2.287563962020   126.98826445    11.04192909
 C     52  51  50     2.798360091763   105.27112074   192.90494006
 C     54  52  51     2.656860728485   109.23670093   356.21888253
 C     55  54  52     2.617004174994   119.92907114   178.55025104
 C     56  55  54     2.622663264726   117.99869121     0.24246022
 C     57  56  55     2.635160325505   121.69175365     0.34155816
 C     54  52  51     2.608259103975   128.68729870   175.38021920
 F     58  57  56     2.529580441463   119.68283418   179.67086436
 F     57  56  55     2.527840248212   118.89266495   180.46922367
 C     51  50  49     2.717877211118   132.45805830   347.91755221
 C     62  51  50     2.597520053450   127.80388885   335.32223390
 C     63  62  51     2.663901967675   125.52574590   356.39626403
 N     64  63  62     2.170770456816   174.98421608   205.61629971
 C     63  62  51     2.665142348612   123.89176157   181.48086517
 N     66  63  62     2.169697734144   176.07023491   201.35718264
 H      1   2   3     2.036040652329   118.72767222     0.11435203
 H      6   4   2     2.037675755055   120.83246375   179.81791460
 H     18  15   9     2.043419322404   115.99565262     5.42782008
 H     22  21  20     2.025350626313   132.04894152   358.86392152
 H     24  23  22     2.022191018306   119.13560715   181.26466469
 H     26  20  19     2.045152232770   117.19230926   187.20744964
 H     27  26  20     2.030878837639   119.65722643     3.99621000
 H     38  37  31     2.061543747659   111.55421212   303.24683436
 H     38  37  31     2.057054543651   104.86677492   184.99505892
 H     38  37  31     2.061740466080   111.53802662    66.90944080
 H     39  30  29     2.037254637903   115.39299645   182.63986602
 H     40  39  30     2.044845164740   118.06106243     3.61232140
 H     44  43  42     2.024367245789   132.47638878   357.47792466
 H     46  45  44     2.025054768074   118.81271975   180.44680122
 H     48  42  41     2.043893292803   119.01923166   357.45415463
 H     49  48  42     2.039571853005   117.55304473     4.92532489
 H     50  49  48     2.051594613598   117.55581793   348.86413944
 H     56  55  54     2.036408930263   123.21162263   180.74772316
 H     59  54  52     2.037625317381   121.52019318     1.45941903

---------------------
BASIS SET INFORMATION
---------------------
There are 6 groups of distinct atoms

 Group   1 Type C   : 7s4p1d contracted to 3s2p1d pattern {511/31/1}
 Group   2 Type F   : 7s4p1d contracted to 3s2p1d pattern {511/31/1}
 Group   3 Type N   : 7s4p1d contracted to 3s2p1d pattern {511/31/1}
 Group   4 Type O   : 7s4p1d contracted to 3s2p1d pattern {511/31/1}
 Group   5 Type S   : 10s7p1d contracted to 4s3p1d pattern {5311/511/1}
 Group   6 Type H   : 4s1p contracted to 2s1p pattern {31/1}

Atom   0C    basis set group =>   1
Atom   1C    basis set group =>   1
Atom   2F    basis set group =>   2
Atom   3C    basis set group =>   1
Atom   4F    basis set group =>   2
Atom   5C    basis set group =>   1
Atom   6C    basis set group =>   1
Atom   7C    basis set group =>   1
Atom   8C    basis set group =>   1
Atom   9C    basis set group =>   1
Atom  10C    basis set group =>   1
Atom  11N    basis set group =>   3
Atom  12C    basis set group =>   1
Atom  13N    basis set group =>   3
Atom  14C    basis set group =>   1
Atom  15C    basis set group =>   1
Atom  16O    basis set group =>   4
Atom  17C    basis set group =>   1
Atom  18C    basis set group =>   1
Atom  19C    basis set group =>   1
Atom  20C    basis set group =>   1
Atom  21C    basis set group =>   1
Atom  22S    basis set group =>   5
Atom  23C    basis set group =>   1
Atom  24C    basis set group =>   1
Atom  25C    basis set group =>   1
Atom  26C    basis set group =>   1
Atom  27C    basis set group =>   1
Atom  28O    basis set group =>   4
Atom  29C    basis set group =>   1
Atom  30C    basis set group =>   1
Atom  31C    basis set group =>   1
Atom  32C    basis set group =>   1
Atom  33F    basis set group =>   2
Atom  34F    basis set group =>   2
Atom  35F    basis set group =>   2
Atom  36O    basis set group =>   4
Atom  37C    basis set group =>   1
Atom  38C    basis set group =>   1
Atom  39C    basis set group =>   1
Atom  40C    basis set group =>   1
Atom  41C    basis set group =>   1
Atom  42C    basis set group =>   1
Atom  43C    basis set group =>   1
Atom  44S    basis set group =>   5
Atom  45C    basis set group =>   1
Atom  46C    basis set group =>   1
Atom  47C    basis set group =>   1
Atom  48C    basis set group =>   1
Atom  49C    basis set group =>   1
Atom  50C    basis set group =>   1
Atom  51C    basis set group =>   1
Atom  52O    basis set group =>   4
Atom  53C    basis set group =>   1
Atom  54C    basis set group =>   1
Atom  55C    basis set group =>   1
Atom  56C    basis set group =>   1
Atom  57C    basis set group =>   1
Atom  58C    basis set group =>   1
Atom  59F    basis set group =>   2
Atom  60F    basis set group =>   2
Atom  61C    basis set group =>   1
Atom  62C    basis set group =>   1
Atom  63C    basis set group =>   1
Atom  64N    basis set group =>   3
Atom  65C    basis set group =>   1
Atom  66N    basis set group =>   3
Atom  67H    basis set group =>   6
Atom  68H    basis set group =>   6
Atom  69H    basis set group =>   6
Atom  70H    basis set group =>   6
Atom  71H    basis set group =>   6
Atom  72H    basis set group =>   6
Atom  73H    basis set group =>   6
Atom  74H    basis set group =>   6
Atom  75H    basis set group =>   6
Atom  76H    basis set group =>   6
Atom  77H    basis set group =>   6
Atom  78H    basis set group =>   6
Atom  79H    basis set group =>   6
Atom  80H    basis set group =>   6
Atom  81H    basis set group =>   6
Atom  82H    basis set group =>   6
Atom  83H    basis set group =>   6
Atom  84H    basis set group =>   6
Atom  85H    basis set group =>   6
---------------------------------
AUXILIARY/J BASIS SET INFORMATION
---------------------------------
There are 6 groups of distinct atoms

 Group   1 Type C   : 12s5p4d2f1g contracted to 6s4p3d1f1g pattern {711111/2111/211/2/1}
 Group   2 Type F   : 12s5p4d2f1g contracted to 6s4p3d1f1g pattern {711111/2111/211/2/1}
 Group   3 Type N   : 12s5p4d2f1g contracted to 6s4p3d1f1g pattern {711111/2111/211/2/1}
 Group   4 Type O   : 12s5p4d2f1g contracted to 6s4p3d1f1g pattern {711111/2111/211/2/1}
 Group   5 Type S   : 14s5p5d2f1g contracted to 8s4p3d1f1g pattern {71111111/2111/311/2/1}
 Group   6 Type H   : 5s2p1d contracted to 3s1p1d pattern {311/2/1}

Atom   0C    basis set group =>   1
Atom   1C    basis set group =>   1
Atom   2F    basis set group =>   2
Atom   3C    basis set group =>   1
Atom   4F    basis set group =>   2
Atom   5C    basis set group =>   1
Atom   6C    basis set group =>   1
Atom   7C    basis set group =>   1
Atom   8C    basis set group =>   1
Atom   9C    basis set group =>   1
Atom  10C    basis set group =>   1
Atom  11N    basis set group =>   3
Atom  12C    basis set group =>   1
Atom  13N    basis set group =>   3
Atom  14C    basis set group =>   1
Atom  15C    basis set group =>   1
Atom  16O    basis set group =>   4
Atom  17C    basis set group =>   1
Atom  18C    basis set group =>   1
Atom  19C    basis set group =>   1
Atom  20C    basis set group =>   1
Atom  21C    basis set group =>   1
Atom  22S    basis set group =>   5
Atom  23C    basis set group =>   1
Atom  24C    basis set group =>   1
Atom  25C    basis set group =>   1
Atom  26C    basis set group =>   1
Atom  27C    basis set group =>   1
Atom  28O    basis set group =>   4
Atom  29C    basis set group =>   1
Atom  30C    basis set group =>   1
Atom  31C    basis set group =>   1
Atom  32C    basis set group =>   1
Atom  33F    basis set group =>   2
Atom  34F    basis set group =>   2
Atom  35F    basis set group =>   2
Atom  36O    basis set group =>   4
Atom  37C    basis set group =>   1
Atom  38C    basis set group =>   1
Atom  39C    basis set group =>   1
Atom  40C    basis set group =>   1
Atom  41C    basis set group =>   1
Atom  42C    basis set group =>   1
Atom  43C    basis set group =>   1
Atom  44S    basis set group =>   5
Atom  45C    basis set group =>   1
Atom  46C    basis set group =>   1
Atom  47C    basis set group =>   1
Atom  48C    basis set group =>   1
Atom  49C    basis set group =>   1
Atom  50C    basis set group =>   1
Atom  51C    basis set group =>   1
Atom  52O    basis set group =>   4
Atom  53C    basis set group =>   1
Atom  54C    basis set group =>   1
Atom  55C    basis set group =>   1
Atom  56C    basis set group =>   1
Atom  57C    basis set group =>   1
Atom  58C    basis set group =>   1
Atom  59F    basis set group =>   2
Atom  60F    basis set group =>   2
Atom  61C    basis set group =>   1
Atom  62C    basis set group =>   1
Atom  63C    basis set group =>   1
Atom  64N    basis set group =>   3
Atom  65C    basis set group =>   1
Atom  66N    basis set group =>   3
Atom  67H    basis set group =>   6
Atom  68H    basis set group =>   6
Atom  69H    basis set group =>   6
Atom  70H    basis set group =>   6
Atom  71H    basis set group =>   6
Atom  72H    basis set group =>   6
Atom  73H    basis set group =>   6
Atom  74H    basis set group =>   6
Atom  75H    basis set group =>   6
Atom  76H    basis set group =>   6
Atom  77H    basis set group =>   6
Atom  78H    basis set group =>   6
Atom  79H    basis set group =>   6
Atom  80H    basis set group =>   6
Atom  81H    basis set group =>   6
Atom  82H    basis set group =>   6
Atom  83H    basis set group =>   6
Atom  84H    basis set group =>   6
Atom  85H    basis set group =>   6


           ************************************************************
           *        Program running with 6 parallel MPI-processes     *
           *              working on a common directory               *
           ************************************************************
------------------------------------------------------------------------------
                           ORCA GTO INTEGRAL CALCULATION
                           -- RI-GTO INTEGRALS CHOSEN --
------------------------------------------------------------------------------

                         BASIS SET STATISTICS AND STARTUP INFO

Gaussian basis set:
 # of primitive gaussian shells          ...  911
 # of primitive gaussian functions       ... 1765
 # of contracted shells                  ...  463
 # of contracted basis functions         ... 1041
 Highest angular momentum                ...    2
 Maximum contraction depth               ...    5
Auxiliary gaussian basis set:
 # of primitive gaussian shells          ... 1766
 # of primitive gaussian functions       ... 5008
 # of contracted shells                  ... 1104
 # of contracted aux-basis functions     ... 3496
 Highest angular momentum                ...    4
 Maximum contraction depth               ...    7
Ratio of auxiliary to basis functions    ...  3.36
Integral package used                  ... LIBINT
 One Electron integrals                  ... done
 Ordering auxiliary basis shells         ... done
 Integral threshhold             Thresh  ...  2.500e-11
 Primitive cut-off               TCut    ...  2.500e-12
 Pre-screening matrix                    ... done
 Shell pair data                         ... 
 Ordering of the shell pairs             ... done (   0.008 sec) 36274 of 107416 pairs
 Determination of significant pairs      ... done (   0.000 sec)
 Creation of shell pair data             ... done (   0.004 sec)
 Storage of shell pair data              ... done (   0.514 sec)
 Shell pair data done in (   0.527 sec)
 Computing two index integrals           ... done
 Cholesky decomposition of the V-matrix  ... done


Timings:
 Total evaluation time                   ...   2.849 sec (  0.047 min)
 One electron matrix time                ...   0.760 sec (  0.013 min) = 26.7%
 Schwartz matrix evaluation time         ...   0.527 sec (  0.009 min) = 18.5%
 Two index repulsion integral time       ...   0.396 sec (  0.007 min) = 13.9%
 Cholesky decomposition of V             ...   0.623 sec (  0.010 min) = 21.9%
 Three index repulsion integral time     ...   0.000 sec (  0.000 min) =  0.0%



           ************************************************************
           *        Program running with 6 parallel MPI-processes     *
           *              working on a common directory               *
           ************************************************************
-------------------------------------------------------------------------------
                                 ORCA SCF
-------------------------------------------------------------------------------

------------
SCF SETTINGS
------------
Hamiltonian:
 Density Functional     Method          .... DFT(GTOs)
 Exchange Functional    Exchange        .... WB88
 Correlation Functional Correlation     .... LYP
 LDA part of GGA corr.  LDAOpt          .... VWN-5
 Gradients option       PostSCFGGA      .... off
 Hybrid DFT is turned on
   Fraction HF Exchange ScalHFX         ....  0.190000
   Scaling of DF-GGA-X  ScalDFX         ....  0.350000
   Scaling of DF-GGA-C  ScalDFC         ....  0.810000
   Scaling of DF-LDA-C  ScalLDAC        ....  1.000000
   Perturbative correction              ....  0.000000
   Density functional embedding theory  .... OFF
 Long-range corrected/Screened/Range-Separated Hybrid DFT is turned on
   Amount of maximum screened exact exchange              ....  0.460000
   Range separation parameter mu (erf(mu*r12)/r12)        ....  0.330000
 RI-approximation to the Coulomb term is turned on
   Number of auxiliary basis functions  .... 3496
   RIJ-COSX (HFX calculated with COS-X)).... on


General Settings:
 Integral files         IntName         .... xtbopt
 Hartree-Fock type      HFTyp           .... RHF
 Total Charge           Charge          ....    0
 Multiplicity           Mult            ....    1
 Number of Electrons    NEL             ....  474
 Basis Dimension        Dim             .... 1041
 Nuclear Repulsion      ENuc            ....   8834.9573431369 Eh

Convergence Acceleration:
 DIIS                   CNVDIIS         .... on
   Start iteration      DIISMaxIt       ....    12
   Startup error        DIISStart       ....  0.200000
   # of expansion vecs  DIISMaxEq       ....     5
   Bias factor          DIISBfac        ....   1.050
   Max. coefficient     DIISMaxC        ....  10.000
 Newton-Raphson         CNVNR           .... off
 SOSCF                  CNVSOSCF        .... on
   Start iteration      SOSCFMaxIt      ....   150
   Startup grad/error   SOSCFStart      ....  0.003300
 Level Shifting         CNVShift        .... on
   Level shift para.    LevelShift      ....    0.2500
   Turn off err/grad.   ShiftErr        ....    0.0010
 Zerner damping         CNVZerner       .... off
 Static damping         CNVDamp         .... on
   Fraction old density DampFac         ....    0.7000
   Max. Damping (<1)    DampMax         ....    0.9800
   Min. Damping (>=0)   DampMin         ....    0.0000
   Turn off err/grad.   DampErr         ....    0.1000
 Fernandez-Rico         CNVRico         .... off

SCF Procedure:
 Maximum # iterations   MaxIter         ....   125
 SCF integral mode      SCFMode         .... Direct
   Integral package                     .... LIBINT
 Reset frequency        DirectResetFreq ....    20
 Integral Threshold     Thresh          ....  2.500e-11 Eh
 Primitive CutOff       TCut            ....  2.500e-12 Eh

Convergence Tolerance:
 Convergence Check Mode ConvCheckMode   .... Total+1el-Energy
 Convergence forced     ConvForced      .... 1
 Energy Change          TolE            ....  1.000e-08 Eh
 1-El. energy change                    ....  1.000e-05 Eh
 Orbital Gradient       TolG            ....  1.000e-05
 Orbital Rotation angle TolX            ....  1.000e-05
 DIIS Error             TolErr          ....  5.000e-07


Diagonalization of the overlap matrix:
Smallest eigenvalue                        ... 1.978e-04
Time for diagonalization                   ...    0.448 sec
Threshold for overlap eigenvalues          ... 1.000e-08
Number of eigenvalues below threshold      ... 0
Time for construction of square roots      ...    0.262 sec
Total time needed                          ...    0.713 sec

-------------------
DFT GRID GENERATION
-------------------

General Integration Accuracy     IntAcc      ...  4.670
Radial Grid Type                 RadialGrid  ... Gauss-Chebyshev
Angular Grid (max. acc.)         AngularGrid ... Lebedev-302
Angular grid pruning method      GridPruning ... 3 (G Style)
Weight generation scheme         WeightScheme... Becke
Basis function cutoff            BFCut       ...    1.0000e-11
Integration weight cutoff        WCut        ...    1.0000e-14
Grids for H and He will be reduced by one unit

# of grid points (after initial pruning)     ... 482378 (   0.0 sec)
# of grid points (after weights+screening)   ... 417016 (   5.9 sec)
nearest neighbour list constructed           ...    0.0 sec
Grid point re-assignment to atoms done       ...    0.1 sec
Grid point division into batches done        ...    1.5 sec
Reduced shell lists constructed in    2.3 sec

Total number of grid points                  ...   417016
Total number of batches                      ...     6558
Average number of points per batch           ...       63
Average number of grid points per atom       ...     4849
Average number of shells per batch           ...    75.94 (16.40%)
Average number of basis functions per batch  ...   163.87 (15.74%)
Average number of large shells per batch     ...    47.61 (62.70%)
Average number of large basis fcns per batch ...   104.79 (63.95%)
Maximum spatial batch extension              ...  15.76, 20.64, 19.96 au
Average spatial batch extension              ...   0.39,  0.40,  0.41 au

Time for grid setup =    9.337 sec

------------------------------
INITIAL GUESS: MODEL POTENTIAL
------------------------------
Loading Hartree-Fock densities                     ... done
Calculating cut-offs                               ... done
Setting up the integral package                    ... done
Initializing the effective Hamiltonian             ... done
Starting the Coulomb interaction                   ... done (   0.9 sec)
Reading the grid                                   ... done
Mapping shells                                     ... done
Starting the XC term evaluation                    ... done (   1.6 sec)
  promolecular density results
     # of electrons  =    473.991641741
     EX              =   -439.988764344
     EC              =    -16.311531711
     EX+EC           =   -456.300296055
Transforming the Hamiltonian                       ... done (   0.1 sec)
Diagonalizing the Hamiltonian                      ... done (   0.2 sec)
Back transforming the eigenvectors                 ... done (   0.1 sec)
Now organizing SCF variables                       ... done
                      ------------------
                      INITIAL GUESS DONE (  12.4 sec)
                      ------------------
--------------------
COSX GRID GENERATION
--------------------

General Integration Accuracy     IntAcc      ...  3.340
Radial Grid Type                 RadialGrid  ... Gauss-Chebyshev
Angular Grid (max. acc.)         AngularGrid ... Lebedev-50
Angular grid pruning method      GridPruning ... 3 (G Style)
Weight generation scheme         WeightScheme... Becke
Basis function cutoff            BFCut       ...    1.0000e-11
Integration weight cutoff        WCut        ...    1.0000e-14
Grids for H and He will be reduced by one unit

# of grid points (after initial pruning)     ...  45136 (   0.0 sec)
# of grid points (after weights+screening)   ...  40729 (   0.8 sec)
nearest neighbour list constructed           ...    0.0 sec
Grid point re-assignment to atoms done       ...    0.0 sec
Grid point division into batches done        ...    0.0 sec
Reduced shell lists constructed in    0.1 sec

Total number of grid points                  ...    40729
Total number of batches                      ...      687
Average number of points per batch           ...       59
Average number of grid points per atom       ...      474
Average number of shells per batch           ...    92.52 (19.98%)
Average number of basis functions per batch  ...   200.69 (19.28%)
Average number of large shells per batch     ...    57.50 (62.15%)
Average number of large basis fcns per batch ...   128.19 (63.87%)
Maximum spatial batch extension              ...  20.68, 20.68, 20.68 au
Average spatial batch extension              ...   0.87,  0.88,  0.95 au

Overlap Fitting                  UseSFitting ... on
Constructing numerical overlap ... done (      0.1 sec)
Inverting numerical overlap    ... done (      0.0 sec)
Obtaining analytic overlap     ... done (      0.0 sec)
Final contraction and storage  ... done (      0.0 sec)


General Integration Accuracy     IntAcc      ...  3.670
Radial Grid Type                 RadialGrid  ... Gauss-Chebyshev
Angular Grid (max. acc.)         AngularGrid ... Lebedev-50
Angular grid pruning method      GridPruning ... 3 (G Style)
Weight generation scheme         WeightScheme... Becke
Basis function cutoff            BFCut       ...    1.0000e-11
Integration weight cutoff        WCut        ...    1.0000e-14
Grids for H and He will be reduced by one unit

# of grid points (after initial pruning)     ...  56010 (   0.0 sec)
# of grid points (after weights+screening)   ...  50336 (   0.6 sec)
nearest neighbour list constructed           ...    0.0 sec
Grid point re-assignment to atoms done       ...    0.0 sec
Grid point division into batches done        ...    0.0 sec
Reduced shell lists constructed in    0.1 sec

Total number of grid points                  ...    50336
Total number of batches                      ...      831
Average number of points per batch           ...       60
Average number of grid points per atom       ...      585
Average number of shells per batch           ...    92.18 (19.91%)
Average number of basis functions per batch  ...   200.11 (19.22%)
Average number of large shells per batch     ...    56.99 (61.83%)
Average number of large basis fcns per batch ...   126.78 (63.36%)
Maximum spatial batch extension              ...  19.47, 22.99, 22.63 au
Average spatial batch extension              ...   0.83,  0.86,  0.93 au

Overlap Fitting                  UseSFitting ... on
Constructing numerical overlap ... done (      0.2 sec)
Inverting numerical overlap    ... done (      0.0 sec)
Obtaining analytic overlap     ... done (      0.0 sec)
Final contraction and storage  ... done (      0.1 sec)


General Integration Accuracy     IntAcc      ...  4.010
Radial Grid Type                 RadialGrid  ... Gauss-Chebyshev
Angular Grid (max. acc.)         AngularGrid ... Lebedev-110
Angular grid pruning method      GridPruning ... 3 (G Style)
Weight generation scheme         WeightScheme... Becke
Basis function cutoff            BFCut       ...    1.0000e-11
Integration weight cutoff        WCut        ...    1.0000e-14
Grids for H and He will be reduced by one unit

# of grid points (after initial pruning)     ... 111038 (   0.0 sec)
# of grid points (after weights+screening)   ...  98779 (   1.2 sec)
nearest neighbour list constructed           ...    0.0 sec
Grid point re-assignment to atoms done       ...    0.0 sec
Grid point division into batches done        ...    0.1 sec
Reduced shell lists constructed in    0.3 sec

Total number of grid points                  ...    98779
Total number of batches                      ...     1590
Average number of points per batch           ...       62
Average number of grid points per atom       ...     1149
Average number of shells per batch           ...    85.31 (18.43%)
Average number of basis functions per batch  ...   185.57 (17.83%)
Average number of large shells per batch     ...    53.74 (62.99%)
Average number of large basis fcns per batch ...   119.31 (64.29%)
Maximum spatial batch extension              ...  18.13, 18.48, 19.83 au
Average spatial batch extension              ...   0.63,  0.68,  0.69 au

Overlap Fitting                  UseSFitting ... on
Constructing numerical overlap ... done (      0.2 sec)
Inverting numerical overlap    ... done (      0.1 sec)
Obtaining analytic overlap     ... done (      0.0 sec)
Final contraction and storage  ... done (      0.0 sec)

Time for X-Grid setup             =    4.818 sec
--------------
SCF ITERATIONS
--------------
ITER       Energy         Delta-E        Max-DP      RMS-DP      [F,P]     Damp
               ***  Starting incremental Fock matrix formation  ***
  0  -3926.4384950291   0.000000000000 0.07940059  0.00101474  0.2274026 0.7000
  1  -3926.9458692602  -0.507374231114 0.04584931  0.00071574  0.1005320 0.7000
                               ***Turning on DIIS***
  2  -3927.1614433141  -0.215574053862 0.09072723  0.00129154  0.0310760 0.0000
  3  -3927.5189861466  -0.357542832564 0.04682725  0.00053478  0.0536041 0.0000
  4  -3927.5867697644  -0.067783617804 0.01553889  0.00017770  0.0191039 0.0000
  5  -3927.5928379286  -0.006068164181 0.00740333  0.00007982  0.0072408 0.0000
  6  -3927.5944440126  -0.001606084004 0.00290932  0.00005132  0.0017095 0.0000
  7  -3927.5952971510  -0.000853138377 0.00244712  0.00003948  0.0013478 0.0000
  8  -3927.5958431512  -0.000546000249 0.00228966  0.00003266  0.0011095 0.0000
  9  -3927.5962050786  -0.000361927401 0.00458948  0.00007089  0.0007514 0.0000
               *** Restarting incremental Fock matrix formation ***
                                   *** Resetting DIIS ***
                      *** Initiating the SOSCF procedure ***
                           *** Shutting down DIIS ***
                      *** Re-Reading the Fockian *** 
                      *** Removing any level shift *** 
ITER      Energy       Delta-E        Grad      Rot      Max-DP    RMS-DP
 10  -3927.59664259  -0.0004375108  0.000583  0.000583  0.001247  0.000019
               *** Restarting incremental Fock matrix formation ***
 11  -3927.59667314  -0.0000305510  0.000831  0.006470  0.001912  0.000020
 12  -3927.59664414   0.0000290036  0.001309  0.001915  0.001355  0.000011
 13  -3927.59670567  -0.0000615354  0.000122  0.001217  0.000426  0.000006
 14  -3927.59670785  -0.0000021746  0.000130  0.001441  0.000287  0.000004
 15  -3927.59671032  -0.0000024738  0.000048  0.000569  0.000160  0.000002
 16  -3927.59671035  -0.0000000245  0.000044  0.000189  0.000076  0.000001
 17  -3927.59671053  -0.0000001804  0.000008  0.000041  0.000057  0.000000
 18  -3927.59671051   0.0000000192  0.000009  0.000016  0.000020  0.000000
                  ***Gradient check signals convergence***
              ***Rediagonalizing the Fockian in SOSCF/NRSCF***

               *****************************************************
               *                     SUCCESS                       *
               *           SCF CONVERGED AFTER  19 CYCLES          *
               *****************************************************

Setting up the final grid:

General Integration Accuracy     IntAcc      ...  5.010
Radial Grid Type                 RadialGrid  ... Gauss-Chebyshev
Angular Grid (max. acc.)         AngularGrid ... Lebedev-434
Angular grid pruning method      GridPruning ... 3 (G Style)
Weight generation scheme         WeightScheme... Becke
Basis function cutoff            BFCut       ...    1.0000e-11
Integration weight cutoff        WCut        ...    1.0000e-14
Grids for H and He will be reduced by one unit

# of grid points (after initial pruning)     ... 846982 (   0.0 sec)
# of grid points (after weights+screening)   ... 729810 (   7.7 sec)
nearest neighbour list constructed           ...    0.0 sec
Grid point re-assignment to atoms done       ...    0.1 sec
Grid point division into batches done        ...    4.9 sec
Reduced shell lists constructed in    6.3 sec

Total number of grid points                  ...   729810
Total number of batches                      ...    11448
Average number of points per batch           ...       63
Average number of grid points per atom       ...     8486
Average number of shells per batch           ...    73.83 (15.95%)
Average number of basis functions per batch  ...   158.95 (15.27%)
Average number of large shells per batch     ...    46.06 (62.39%)
Average number of large basis fcns per batch ...   101.12 (63.62%)
Maximum spatial batch extension              ...  19.84, 17.16, 18.80 au
Average spatial batch extension              ...   0.32,  0.33,  0.34 au

Final grid set up in   14.4 sec
Final integration                            ... done (   2.5 sec)
Change in XC energy                          ...    -0.000000862
Integrated number of electrons               ...   474.000039601
Previous integrated no of electrons          ...   474.000261863
Old exchange energy                            =   -121.941416592 Eh
New exchange energy                            =   -121.940249975 Eh
Exchange energy change after final integration =      0.001166617 Eh
Total energy after final integration           =  -3927.595544777 Eh
Final COS-X integration done in                =    45.928 sec

----------------
TOTAL SCF ENERGY
----------------

Total Energy       :        -3927.59554478 Eh         -106875.30821 eV

Components:
Nuclear Repulsion  :         8834.95734314 Eh          240411.41159 eV
Electronic Energy  :       -12762.55288791 Eh         -347286.71980 eV
One Electron Energy:       -22970.60198595 Eh         -625061.85757 eV
Two Electron Energy:        10208.04909804 Eh          277775.13777 eV

Virial components:
Potential Energy   :        -7827.13851388 Eh         -212987.26703 eV
Kinetic Energy     :         3899.54296910 Eh          106111.95882 eV
Virial Ratio       :            2.00719381


DFT components:
N(Alpha)           :      237.000019800743 electrons
N(Beta)            :      237.000019800743 electrons
N(Total)           :      474.000039601487 electrons
E(XC)              :     -341.390945515461 Eh       
DFET-embed. en.    :        0.000000000000 Eh       

---------------
SCF CONVERGENCE
---------------

  Last Energy change         ...   -2.5622e-08  Tolerance :   1.0000e-08
  Last MAX-Density change    ...    7.9936e-15  Tolerance :   1.0000e-07
  Last RMS-Density change    ...    3.5744e-17  Tolerance :   5.0000e-09
  Last Orbital Gradient      ...    2.2257e-06  Tolerance :   1.0000e-05
  Last Orbital Rotation      ...    1.8116e-05  Tolerance :   1.0000e-05

             **** THE GBW FILE WAS UPDATED (xtbopt.gbw) ****
             **** DENSITY FILE WAS UPDATED (xtbopt.scfp) ****
             **** ENERGY FILE WAS UPDATED (xtbopt.en.tmp) ****
             **** THE GBW FILE WAS UPDATED (xtbopt.gbw) ****
             **** DENSITY FILE WAS UPDATED (xtbopt.scfp) ****
----------------
ORBITAL ENERGIES
----------------

  NO   OCC          E(Eh)            E(eV) 
   0   2.0000     -88.956056     -2420.6174 
   1   2.0000     -88.951507     -2420.4936 
   2   2.0000     -24.828465      -675.6169 
   3   2.0000     -24.820676      -675.4049 
   4   2.0000     -24.820190      -675.3917 
   5   2.0000     -24.802304      -674.9050 
   6   2.0000     -24.800722      -674.8620 
   7   2.0000     -24.799072      -674.8171 
   8   2.0000     -24.798280      -674.7955 
   9   2.0000     -19.336846      -526.1823 
  10   2.0000     -19.296624      -525.0878 
  11   2.0000     -19.221537      -523.0446 
  12   2.0000     -19.215722      -522.8864 
  13   2.0000     -14.424229      -392.5032 
  14   2.0000     -14.416887      -392.3034 
  15   2.0000     -14.415071      -392.2540 
  16   2.0000     -14.414509      -392.2387 
  17   2.0000     -10.550858      -287.1034 
  18   2.0000     -10.392761      -282.8014 
  19   2.0000     -10.390710      -282.7456 
  20   2.0000     -10.387042      -282.6458 
  21   2.0000     -10.386550      -282.6324 
  22   2.0000     -10.383897      -282.5602 
  23   2.0000     -10.383261      -282.5429 
  24   2.0000     -10.373252      -282.2705 
  25   2.0000     -10.371952      -282.2352 
  26   2.0000     -10.366381      -282.0836 
  27   2.0000     -10.348798      -281.6051 
  28   2.0000     -10.345899      -281.5262 
  29   2.0000     -10.345187      -281.5069 
  30   2.0000     -10.343329      -281.4563 
  31   2.0000     -10.342155      -281.4243 
  32   2.0000     -10.338610      -281.3279 
  33   2.0000     -10.337905      -281.3087 
  34   2.0000     -10.329387      -281.0769 
  35   2.0000     -10.329003      -281.0665 
  36   2.0000     -10.328277      -281.0467 
  37   2.0000     -10.324559      -280.9455 
  38   2.0000     -10.320307      -280.8298 
  39   2.0000     -10.317972      -280.7663 
  40   2.0000     -10.317620      -280.7567 
  41   2.0000     -10.317569      -280.7553 
  42   2.0000     -10.317266      -280.7471 
  43   2.0000     -10.317118      -280.7431 
  44   2.0000     -10.316809      -280.7346 
  45   2.0000     -10.316726      -280.7324 
  46   2.0000     -10.314732      -280.6781 
  47   2.0000     -10.312755      -280.6243 
  48   2.0000     -10.312017      -280.6043 
  49   2.0000     -10.309806      -280.5441 
  50   2.0000     -10.309616      -280.5389 
  51   2.0000     -10.309029      -280.5229 
  52   2.0000     -10.309011      -280.5224 
  53   2.0000     -10.308882      -280.5189 
  54   2.0000     -10.306687      -280.4592 
  55   2.0000     -10.305738      -280.4334 
  56   2.0000     -10.303192      -280.3641 
  57   2.0000     -10.302811      -280.3537 
  58   2.0000     -10.301958      -280.3305 
  59   2.0000     -10.301842      -280.3274 
  60   2.0000     -10.299713      -280.2695 
  61   2.0000     -10.295419      -280.1526 
  62   2.0000     -10.294010      -280.1143 
  63   2.0000     -10.289177      -279.9827 
  64   2.0000     -10.285338      -279.8783 
  65   2.0000     -10.285154      -279.8733 
  66   2.0000     -10.282385      -279.7979 
  67   2.0000      -8.051935      -219.1043 
  68   2.0000      -8.047353      -218.9796 
  69   2.0000      -6.021758      -163.8604 
  70   2.0000      -6.017268      -163.7382 
  71   2.0000      -6.016974      -163.7302 
  72   2.0000      -6.013543      -163.6368 
  73   2.0000      -6.012486      -163.6081 
  74   2.0000      -6.008777      -163.5071 
  75   2.0000      -1.414730       -38.4968 
  76   2.0000      -1.325144       -36.0590 
  77   2.0000      -1.322376       -35.9837 
  78   2.0000      -1.318354       -35.8742 
  79   2.0000      -1.311031       -35.6750 
  80   2.0000      -1.309952       -35.6456 
  81   2.0000      -1.307201       -35.5708 
  82   2.0000      -1.258576       -34.2476 
  83   2.0000      -1.200003       -32.6537 
  84   2.0000      -1.136658       -30.9300 
  85   2.0000      -1.130553       -30.7639 
  86   2.0000      -1.025284       -27.8994 
  87   2.0000      -1.021424       -27.7944 
  88   2.0000      -1.019855       -27.7517 
  89   2.0000      -1.017641       -27.6914 
  90   2.0000      -1.006852       -27.3978 
  91   2.0000      -1.001200       -27.2440 
  92   2.0000      -0.998232       -27.1633 
  93   2.0000      -0.993412       -27.0321 
  94   2.0000      -0.966483       -26.2993 
  95   2.0000      -0.960282       -26.1306 
  96   2.0000      -0.957205       -26.0469 
  97   2.0000      -0.956523       -26.0283 
  98   2.0000      -0.948263       -25.8035 
  99   2.0000      -0.940322       -25.5875 
 100   2.0000      -0.921692       -25.0805 
 101   2.0000      -0.910870       -24.7860 
 102   2.0000      -0.905292       -24.6342 
 103   2.0000      -0.899225       -24.4692 
 104   2.0000      -0.883358       -24.0374 
 105   2.0000      -0.875751       -23.8304 
 106   2.0000      -0.873870       -23.7792 
 107   2.0000      -0.872398       -23.7392 
 108   2.0000      -0.859055       -23.3761 
 109   2.0000      -0.840962       -22.8837 
 110   2.0000      -0.827486       -22.5170 
 111   2.0000      -0.822022       -22.3684 
 112   2.0000      -0.818235       -22.2653 
 113   2.0000      -0.811014       -22.0688 
 114   2.0000      -0.804283       -21.8857 
 115   2.0000      -0.801205       -21.8019 
 116   2.0000      -0.775724       -21.1085 
 117   2.0000      -0.772606       -21.0237 
 118   2.0000      -0.763157       -20.7666 
 119   2.0000      -0.758615       -20.6430 
 120   2.0000      -0.747348       -20.3364 
 121   2.0000      -0.744050       -20.2466 
 122   2.0000      -0.733501       -19.9596 
 123   2.0000      -0.726179       -19.7603 
 124   2.0000      -0.716797       -19.5050 
 125   2.0000      -0.713902       -19.4263 
 126   2.0000      -0.709016       -19.2933 
 127   2.0000      -0.696148       -18.9432 
 128   2.0000      -0.694995       -18.9118 
 129   2.0000      -0.689828       -18.7712 
 130   2.0000      -0.686893       -18.6913 
 131   2.0000      -0.681327       -18.5399 
 132   2.0000      -0.675557       -18.3828 
 133   2.0000      -0.668060       -18.1788 
 134   2.0000      -0.661982       -18.0134 
 135   2.0000      -0.653715       -17.7885 
 136   2.0000      -0.651746       -17.7349 
 137   2.0000      -0.649369       -17.6702 
 138   2.0000      -0.642454       -17.4821 
 139   2.0000      -0.640252       -17.4221 
 140   2.0000      -0.639214       -17.3939 
 141   2.0000      -0.632083       -17.1999 
 142   2.0000      -0.626889       -17.0585 
 143   2.0000      -0.621696       -16.9172 
 144   2.0000      -0.618183       -16.8216 
 145   2.0000      -0.614054       -16.7093 
 146   2.0000      -0.612719       -16.6729 
 147   2.0000      -0.611782       -16.6474 
 148   2.0000      -0.606708       -16.5094 
 149   2.0000      -0.596549       -16.2329 
 150   2.0000      -0.594508       -16.1774 
 151   2.0000      -0.590232       -16.0610 
 152   2.0000      -0.587271       -15.9805 
 153   2.0000      -0.586967       -15.9722 
 154   2.0000      -0.584306       -15.8998 
 155   2.0000      -0.581254       -15.8167 
 156   2.0000      -0.579027       -15.7561 
 157   2.0000      -0.574240       -15.6259 
 158   2.0000      -0.569451       -15.4955 
 159   2.0000      -0.568566       -15.4715 
 160   2.0000      -0.564578       -15.3629 
 161   2.0000      -0.562469       -15.3056 
 162   2.0000      -0.554225       -15.0812 
 163   2.0000      -0.552897       -15.0451 
 164   2.0000      -0.550087       -14.9686 
 165   2.0000      -0.550073       -14.9682 
 166   2.0000      -0.547385       -14.8951 
 167   2.0000      -0.540765       -14.7150 
 168   2.0000      -0.540422       -14.7056 
 169   2.0000      -0.535164       -14.5626 
 170   2.0000      -0.534692       -14.5497 
 171   2.0000      -0.534571       -14.5464 
 172   2.0000      -0.528903       -14.3922 
 173   2.0000      -0.527397       -14.3512 
 174   2.0000      -0.526130       -14.3167 
 175   2.0000      -0.522099       -14.2070 
 176   2.0000      -0.518099       -14.0982 
 177   2.0000      -0.513939       -13.9850 
 178   2.0000      -0.512740       -13.9524 
 179   2.0000      -0.511298       -13.9131 
 180   2.0000      -0.508724       -13.8431 
 181   2.0000      -0.504856       -13.7378 
 182   2.0000      -0.500354       -13.6153 
 183   2.0000      -0.500000       -13.6057 
 184   2.0000      -0.497331       -13.5331 
 185   2.0000      -0.496952       -13.5228 
 186   2.0000      -0.494757       -13.4630 
 187   2.0000      -0.493530       -13.4296 
 188   2.0000      -0.490995       -13.3606 
 189   2.0000      -0.490320       -13.3423 
 190   2.0000      -0.489427       -13.3180 
 191   2.0000      -0.474351       -12.9077 
 192   2.0000      -0.472502       -12.8574 
 193   2.0000      -0.471607       -12.8331 
 194   2.0000      -0.469025       -12.7628 
 195   2.0000      -0.468002       -12.7350 
 196   2.0000      -0.458967       -12.4891 
 197   2.0000      -0.458187       -12.4679 
 198   2.0000      -0.457474       -12.4485 
 199   2.0000      -0.456044       -12.4096 
 200   2.0000      -0.455347       -12.3906 
 201   2.0000      -0.452043       -12.3007 
 202   2.0000      -0.450466       -12.2578 
 203   2.0000      -0.448000       -12.1907 
 204   2.0000      -0.447187       -12.1686 
 205   2.0000      -0.446301       -12.1445 
 206   2.0000      -0.443415       -12.0659 
 207   2.0000      -0.441860       -12.0236 
 208   2.0000      -0.441248       -12.0070 
 209   2.0000      -0.438786       -11.9400 
 210   2.0000      -0.434762       -11.8305 
 211   2.0000      -0.431906       -11.7528 
 212   2.0000      -0.431438       -11.7400 
 213   2.0000      -0.426423       -11.6036 
 214   2.0000      -0.424284       -11.5453 
 215   2.0000      -0.421206       -11.4616 
 216   2.0000      -0.414293       -11.2735 
 217   2.0000      -0.407494       -11.0885 
 218   2.0000      -0.405803       -11.0424 
 219   2.0000      -0.400468       -10.8973 
 220   2.0000      -0.396581       -10.7915 
 221   2.0000      -0.394804       -10.7432 
 222   2.0000      -0.373454       -10.1622 
 223   2.0000      -0.372933       -10.1480 
 224   2.0000      -0.353491        -9.6190 
 225   2.0000      -0.348540        -9.4843 
 226   2.0000      -0.345359        -9.3977 
 227   2.0000      -0.343695        -9.3524 
 228   2.0000      -0.340069        -9.2538 
 229   2.0000      -0.334560        -9.1038 
 230   2.0000      -0.326727        -8.8907 
 231   2.0000      -0.319463        -8.6930 
 232   2.0000      -0.315398        -8.5824 
 233   2.0000      -0.304641        -8.2897 
 234   2.0000      -0.301628        -8.2077 
 235   2.0000      -0.259380        -7.0581 
 236   2.0000      -0.233566        -6.3557 
 237   0.0000      -0.142701        -3.8831 
 238   0.0000      -0.104609        -2.8466 
 239   0.0000      -0.073727        -2.0062 
 240   0.0000      -0.067176        -1.8279 
 241   0.0000      -0.051964        -1.4140 
 242   0.0000      -0.033872        -0.9217 
 243   0.0000      -0.007763        -0.2112 
 244   0.0000       0.002285         0.0622 
 245   0.0000       0.023872         0.6496 
 246   0.0000       0.030792         0.8379 
 247   0.0000       0.034838         0.9480 
 248   0.0000       0.041430         1.1274 
 249   0.0000       0.045157         1.2288 
 250   0.0000       0.051126         1.3912 
 251   0.0000       0.058621         1.5952 
 252   0.0000       0.059926         1.6307 
 253   0.0000       0.070293         1.9128 
 254   0.0000       0.074058         2.0152 
 255   0.0000       0.080280         2.1845 
 256   0.0000       0.085442         2.3250 
 257   0.0000       0.087361         2.3772 
 258   0.0000       0.088950         2.4205 
 259   0.0000       0.089698         2.4408 
 260   0.0000       0.092467         2.5162 
 261   0.0000       0.096825         2.6347 
 262   0.0000       0.103841         2.8257 
 263   0.0000       0.105858         2.8805 
 264   0.0000       0.107161         2.9160 
 265   0.0000       0.110554         3.0083 
 266   0.0000       0.111660         3.0384 
 267   0.0000       0.112121         3.0510 
 268   0.0000       0.118203         3.2165 
 269   0.0000       0.121516         3.3066 
 270   0.0000       0.124257         3.3812 
 271   0.0000       0.133289         3.6270 
 272   0.0000       0.135781         3.6948 
 273   0.0000       0.137193         3.7332 
 274   0.0000       0.139651         3.8001 
 275   0.0000       0.140691         3.8284 
 276   0.0000       0.144056         3.9200 
 277   0.0000       0.149704         4.0736 
 278   0.0000       0.151040         4.1100 
 279   0.0000       0.156399         4.2558 
 280   0.0000       0.159687         4.3453 
 281   0.0000       0.162990         4.4352 
 282   0.0000       0.165846         4.5129 
 283   0.0000       0.169033         4.5996 
 284   0.0000       0.169666         4.6169 
 285   0.0000       0.174203         4.7403 
 286   0.0000       0.180958         4.9241 
 287   0.0000       0.186343         5.0707 
 288   0.0000       0.188107         5.1186 
 289   0.0000       0.192822         5.2469 
 290   0.0000       0.195270         5.3136 
 291   0.0000       0.202211         5.5024 
 292   0.0000       0.204432         5.5629 
 293   0.0000       0.204718         5.5706 
 294   0.0000       0.207839         5.6556 
 295   0.0000       0.208712         5.6793 
 296   0.0000       0.214676         5.8416 
 297   0.0000       0.215493         5.8639 
 298   0.0000       0.220182         5.9915 
 299   0.0000       0.227699         6.1960 
 300   0.0000       0.228264         6.2114 
 301   0.0000       0.231565         6.3012 
 302   0.0000       0.232000         6.3130 
 303   0.0000       0.237216         6.4550 
 304   0.0000       0.240950         6.5566 
 305   0.0000       0.245051         6.6682 
 306   0.0000       0.252367         6.8672 
 307   0.0000       0.254398         6.9225 
 308   0.0000       0.257819         7.0156 
 309   0.0000       0.262465         7.1420 
 310   0.0000       0.264242         7.1904 
 311   0.0000       0.270105         7.3499 
 312   0.0000       0.272251         7.4083 
 313   0.0000       0.276843         7.5333 
 314   0.0000       0.281524         7.6607 
 315   0.0000       0.283927         7.7261 
 316   0.0000       0.285548         7.7702 
 317   0.0000       0.285851         7.7784 
 318   0.0000       0.291475         7.9314 
 319   0.0000       0.295753         8.0479 
 320   0.0000       0.300564         8.1788 
 321   0.0000       0.305828         8.3220 
 322   0.0000       0.307524         8.3682 
 323   0.0000       0.309830         8.4309 
 324   0.0000       0.311738         8.4828 
 325   0.0000       0.312215         8.4958 
 326   0.0000       0.316323         8.6076 
 327   0.0000       0.320901         8.7322 
 328   0.0000       0.321582         8.7507 
 329   0.0000       0.325617         8.8605 
 330   0.0000       0.329519         8.9667 
 331   0.0000       0.334648         9.1062 
 332   0.0000       0.338057         9.1990 
 333   0.0000       0.341524         9.2933 
 334   0.0000       0.342305         9.3146 
 335   0.0000       0.347978         9.4690 
 336   0.0000       0.350582         9.5398 
 337   0.0000       0.352587         9.5944 
 338   0.0000       0.354732         9.6527 
 339   0.0000       0.357824         9.7369 
 340   0.0000       0.361050         9.8247 
 341   0.0000       0.364087         9.9073 
 342   0.0000       0.367314         9.9951 
 343   0.0000       0.369394        10.0517 
 344   0.0000       0.374684        10.1957 
 345   0.0000       0.376988        10.2584 
 346   0.0000       0.377507        10.2725 
 347   0.0000       0.384997        10.4763 
 348   0.0000       0.386825        10.5261 
 349   0.0000       0.390786        10.6338 
 350   0.0000       0.397053        10.8044 
 351   0.0000       0.399713        10.8767 
 352   0.0000       0.402401        10.9499 
 353   0.0000       0.410227        11.1628 
 354   0.0000       0.412016        11.2115 
 355   0.0000       0.415025        11.2934 
 356   0.0000       0.420593        11.4449 
 357   0.0000       0.422856        11.5065 
 358   0.0000       0.425219        11.5708 
 359   0.0000       0.428547        11.6614 
 360   0.0000       0.437047        11.8926 
 361   0.0000       0.443633        12.0719 
 362   0.0000       0.444778        12.1030 
 363   0.0000       0.446167        12.1408 
 364   0.0000       0.449454        12.2303 
 365   0.0000       0.452875        12.3234 
 366   0.0000       0.454206        12.3596 
 367   0.0000       0.456991        12.4354 
 368   0.0000       0.460011        12.5175 
 369   0.0000       0.460788        12.5387 
 370   0.0000       0.464422        12.6376 
 371   0.0000       0.464722        12.6457 
 372   0.0000       0.468536        12.7495 
 373   0.0000       0.469559        12.7774 
 374   0.0000       0.471959        12.8426 
 375   0.0000       0.473691        12.8898 
 376   0.0000       0.476394        12.9633 
 377   0.0000       0.477759        13.0005 
 378   0.0000       0.481498        13.1022 
 379   0.0000       0.487231        13.2582 
 380   0.0000       0.489213        13.3122 
[...]
   2   1.768     701.2   0.046280   0.082768  -126.575707  -134.477502     0.92 (  93->  95)    0.02 (  92->  94)    0.02 (  92->  96)
   3   2.331     531.9   0.338929   0.404792  -66.476560  -70.162459     0.75 (  91->  94)    0.11 (  90->  94)    0.04 (  93->  96)
   4   2.503     495.4   0.128958   0.143237  188.108957  199.588098     0.46 (  92->  95)    0.23 (  93->  96)    0.07 (  90->  94)
   5   2.643     469.2   0.078918   0.078079  -8.386576  -20.461776     0.43 (  93->  97)    0.21 (  90->  94)    0.09 (  91->  94)
   6   2.668     464.8   0.032455   0.036455  148.926983  152.441652     0.28 (  93->  97)    0.21 (  92->  96)    0.18 (  90->  94)
   7   2.703     458.7   0.034894   0.051774  -99.841666  -84.809132     0.26 (  92->  95)    0.24 (  90->  94)    0.18 (  93->  96)
   8   2.821     439.6   0.077356   0.087557  203.441857  192.483773     0.58 (  89->  94)    0.14 (  87->  94)    0.14 (  92->  95)
   9   3.000     413.3   0.056238   0.055266  36.325100  30.966680     0.46 (  87->  94)    0.19 (  89->  94)    0.13 (  84->  94)
  10   3.121     397.2   0.035618   0.038577  29.802860  28.604251     0.28 (  88->  94)    0.24 (  93->  98)    0.11 (  86->  94)
  11   3.167     391.5   0.089780   0.089623  117.837332  122.358475     0.34 (  93->  98)    0.10 (  83->  94)    0.10 (  84->  94)
  12   3.187     389.0   0.122698   0.125772  123.430845  118.807964     0.23 (  83->  94)    0.20 (  88->  94)    0.10 (  87->  94)
  13   3.355     369.6   0.041039   0.046541  -84.707740  -85.831656     0.32 (  86->  94)    0.11 (  91->  95)    0.10 (  93->  99)
  14   3.380     366.8   0.018880   0.016164  -6.744750  -10.205566     0.51 (  85->  94)    0.14 (  85->  95)    0.06 (  88->  94)
  15   3.483     356.0   0.039895   0.040062  72.539256  81.643071     0.41 (  92->  96)    0.20 (  93->  96)    0.08 (  93->  97)
  16   3.554     348.8   0.228192   0.237746  -115.335433  -108.008936     0.25 (  93->  99)    0.23 (  86->  94)    0.14 (  92->  98)
  17   3.643     340.3   0.357681   0.356437  -288.974339  -307.663704     0.72 (  91->  95)    0.09 (  86->  94)    0.05 (  93->  99)
  18   3.676     337.2   0.351713   0.321939  -19.242897  -40.187777     0.29 (  84->  94)    0.26 (  83->  94)    0.07 (  85->  94)
  19   3.835     323.3   0.221558   0.215353  150.160564  135.352620     0.69 (  90->  95)    0.08 (  90->  94)    0.05 (  88->  95)
  20   3.916     316.6   0.035178   0.033832  22.400603  24.023549     0.35 (  81->  94)    0.18 (  92->  97)    0.10 (  93->  99)
  21   3.954     313.6   0.025575   0.024605   4.501178   5.424306     0.26 (  81->  94)    0.14 (  93->  99)    0.10 (  92->  97)
  22   3.979     311.6   0.018503   0.017554  -5.800259  -5.454227     0.20 (  83->  96)    0.17 (  84->  96)    0.14 (  81->  94)
  23   4.030     307.7   0.062863   0.061516  49.651293  46.741345     0.29 (  85->  97)    0.17 (  82->  94)    0.07 (  85->  98)
  24   4.051     306.1   0.005885   0.005705  -7.894964  -6.003235     0.42 (  82->  94)    0.13 (  85->  97)    0.09 (  82->  95)
  25   4.129     300.3   0.120799   0.118314  -74.748293  -78.125496     0.27 (  92->  97)    0.18 (  92->  99)    0.14 (  92->  98)
  26   4.206     294.8   0.072771   0.065946  149.879624  140.370817     0.32 (  89->  95)    0.21 (  80->  94)    0.11 (  79->  94)
  27   4.239     292.5   0.003291   0.002999  14.494364  14.555119     0.33 (  88->  95)    0.08 (  88->  94)    0.08 (  90->  97)
  28   4.284     289.4   0.165986   0.158216  -18.985170  -12.279812     0.30 (  89->  95)    0.23 (  80->  94)    0.19 (  79->  94)
  29   4.323     286.8   0.126446   0.109170  -88.756570  -80.127732     0.23 (  93-> 100)    0.14 (  88->  95)    0.11 (  90->  97)
  30   4.383     282.9   0.210702   0.190009  -325.877517  -314.540779     0.15 (  90->  97)    0.12 (  87->  95)    0.10 (  89->  96)
  31   4.422     280.4   0.226469   0.207235  450.197644  426.240800     0.38 (  87->  95)    0.15 (  90->  97)    0.06 (  87->  96)
  32   4.450     278.6   0.156040   0.143151  888.774090  838.534867     0.35 (  89->  96)    0.11 (  89->  97)    0.06 (  89->  98)
  33   4.513     274.7   0.217895   0.193101  -148.225202  -142.004520     0.32 (  86->  95)    0.13 (  79->  94)    0.08 (  80->  94)
  34   4.523     274.1   0.713230   0.646984  -663.653210  -598.653551     0.20 (  93-> 101)    0.13 (  92->  99)    0.07 (  88->  97)
  35   4.564     271.6   0.016340   0.011865  29.702983  26.737394     0.24 (  79->  94)    0.15 (  80->  94)    0.13 (  86->  95)
  36   4.634     267.5   0.039932   0.033524  24.692535  15.317482     0.20 (  91->  96)    0.13 (  87->  96)    0.07 (  88->  97)
  37   4.671     265.4   0.005903   0.004291  -72.863188  -77.722146     0.27 (  91->  96)    0.17 (  88->  97)    0.12 (  85->  95)
  38   4.700     263.8   0.084470   0.067354  -45.302696  -50.843899     0.15 (  87->  96)    0.11 (  88->  97)    0.07 (  84->  96)
  39   4.745     261.3   0.015893   0.016074  20.293862  21.518971     0.22 (  85->  95)    0.12 (  85->  94)    0.11 (  91->  96)
  40   4.755     260.7   0.168911   0.150509  -139.038166  -128.076861     0.20 (  93-> 101)    0.11 (  92->  99)    0.10 (  91->  96)
  41   4.812     257.7   0.020154   0.017290   2.625309   1.684899     0.33 (  83->  95)    0.07 (  84->  98)    0.07 (  84->  95)
  42   4.832     256.6   0.032722   0.027529  22.495883  11.652558     0.26 (  91->  97)    0.10 (  81->  96)    0.04 (  87->  96)
  43   4.872     254.5   0.019000   0.017167  -1.420452   0.461792     0.20 (  91->  97)    0.05 (  82->  97)    0.05 (  81->  96)
  44   4.881     254.0   0.063794   0.052098  20.751126  13.989190     0.18 (  91->  97)    0.09 (  82->  97)    0.08 (  78->  94)
  45   4.977     249.1   0.005611   0.003966  -3.029437  -2.618089     0.56 (  76->  94)    0.09 (  78->  94)    0.05 (  83->  95)

-----------------------------------------------------------------------------
         ABSORPTION SPECTRUM VIA TRANSITION ELECTRIC DIPOLE MOMENTS
-----------------------------------------------------------------------------
State   Energy  Wavelength   fosc         T2         TX        TY        TZ  
        (cm-1)    (nm)                  (au**2)     (au)      (au)      (au) 
-----------------------------------------------------------------------------
   0    6671.4   1498.9   0.858343574  42.35673   5.76995  -3.00738   0.14179
   1   11019.8    907.5   0.032720472   0.97751   0.24674   0.16097   0.94378
   2   14261.0    701.2   0.046280139   1.06836  -0.58978   0.13069   0.83871
   3   18800.6    531.9   0.338928647   5.93488   2.00557  -1.37166   0.17649
   4   20186.3    495.4   0.128958146   2.10314   0.47006  -1.29111  -0.46391
   5   21313.5    469.2   0.078917841   1.21898   1.09211  -0.11351  -0.11572
   6   21515.1    464.8   0.032454887   0.49661  -0.52539  -0.40333  -0.24061
   7   21800.4    458.7   0.034893745   0.52694  -0.35133   0.20053   0.60274
   8   22750.2    439.6   0.077356414   1.11941  -0.47753  -0.60194  -0.72735
   9   24194.3    413.3   0.056238333   0.76523  -0.62001   0.49538  -0.36799
  10   25176.5    397.2   0.035618491   0.46575  -0.17426   0.62648   0.20714
  11   25541.5    391.5   0.089779699   1.15720  -0.38805  -0.01804   1.00314
  12   25707.6    389.0   0.122698026   1.57127   1.13608  -0.45220  -0.27590
  13   27058.8    369.6   0.041038705   0.49930  -0.24897  -0.05259  -0.65920
  14   27262.5    366.8   0.018880329   0.22799   0.39124  -0.26341  -0.07441
  15   28088.8    356.0   0.039894553   0.46758  -0.48307  -0.17980  -0.44932
  16   28666.4    348.8   0.228191695   2.62061  -0.48796  -0.23843  -1.52501
  17   29384.1    340.3   0.357680834   4.00736  -0.00841   0.13431   1.99731
  18   29652.3    337.2   0.351712942   3.90486  -1.32003   0.78602   1.24280
  19   30934.3    323.3   0.221558247   2.35789   0.82921   0.00040   1.29240
  20   31581.0    316.6   0.035177837   0.36671   0.03927  -0.14923  -0.58557
  21   31888.7    313.6   0.025574695   0.26403  -0.48967   0.14482  -0.05723
  22   32090.0    311.6   0.018502864   0.18982   0.34647  -0.26121  -0.03932
  23   32504.1    307.7   0.062862633   0.63669   0.12289  -0.29945  -0.72933
  24   32672.4    306.1   0.005884550   0.05929   0.21630  -0.11156  -0.00797
  25   33302.1    300.3   0.120799453   1.19418   0.21787   0.15688   1.05929
  26   33922.6    294.8   0.072770734   0.70623   0.25654  -0.26649   0.75458
  27   34188.9    292.5   0.003291056   0.03169  -0.08503   0.03837   0.15162
  28   34556.4    289.4   0.165985523   1.58131   0.10415  -0.88052  -0.89171
  29   34863.8    286.8   0.126445530   1.19400   0.88508  -0.63817  -0.05809
  30   35349.8    282.9   0.210702451   1.96227   0.54600  -0.99716  -0.81842
  31   35664.0    280.4   0.226469261   2.09052   0.10718   0.08591   1.43932
  32   35893.2    278.6   0.156040358   1.43120   0.43532  -0.92117   0.62701
  33   36401.6    274.7   0.217895441   1.97062  -0.52965   0.89027   0.94737
  34   36482.6    274.1   0.713230259   6.43605  -0.80662   1.34603   1.99340
  35   36813.4    271.6   0.016340288   0.14613  -0.25979   0.25552   0.11551
  36   37378.0    267.5   0.039932246   0.35171   0.03243  -0.25119  -0.53625
  37   37674.9    265.4   0.005902632   0.05158  -0.09154   0.20628   0.02547
  38   37909.0    263.8   0.084470296   0.73356  -0.25028  -0.45194  -0.68313
  39   38271.6    261.3   0.015893438   0.13672  -0.23692   0.15477   0.23797
  40   38353.2    260.7   0.168910995   1.44988  -0.02755  -0.46913  -1.10862
  41   38809.2    257.7   0.020153881   0.17096  -0.25936  -0.05181  -0.31782
  42   38971.3    256.6   0.032722443   0.27642   0.33209  -0.06496  -0.40239
  43   39292.5    254.5   0.018999654   0.15919   0.33438  -0.14069   0.16608
  44   39367.9    254.0   0.063793531   0.53347   0.59488  -0.22227   0.36081
  45   40143.5    249.1   0.005610680   0.04601  -0.10289   0.01763  -0.18739

-----------------------------------------------------------------------------
         ABSORPTION SPECTRUM VIA TRANSITION VELOCITY DIPOLE MOMENTS
-----------------------------------------------------------------------------
State   Energy  Wavelength   fosc         P2         PX        PY        PZ  
        (cm-1)    (nm)                  (au**2)     (au)      (au)      (au) 
-----------------------------------------------------------------------------
   0    6671.4   1498.9   3.298725864   0.15041   0.34393  -0.17902   0.00859
   1   11019.8    907.5   0.061426694   0.00463   0.01437   0.01137   0.06550
   2   14261.0    701.2   0.082767970   0.00807  -0.05781   0.01632   0.06678
   3   18800.6    531.9   0.404792326   0.05201   0.18797  -0.12800   0.01719
   4   20186.3    495.4   0.143237349   0.01976   0.04016  -0.12537  -0.04931
   5   21313.5    469.2   0.078079346   0.01137   0.10546  -0.00807  -0.01369
   6   21515.1    464.8   0.036454692   0.00536  -0.05565  -0.04149  -0.02327
   7   21800.4    458.7   0.051773753   0.00771  -0.05269   0.02993   0.06358
   8   22750.2    439.6   0.087556993   0.01361  -0.06249  -0.05924  -0.07873
   9   24194.3    413.3   0.055266359   0.00914  -0.06868   0.05509  -0.03724
  10   25176.5    397.2   0.038576661   0.00664  -0.02449   0.07452   0.02202
  11   25541.5    391.5   0.089622922   0.01564  -0.04070  -0.00665   0.11808
  12   25707.6    389.0   0.125772379   0.02210   0.13407  -0.05284  -0.03649
  13   27058.8    369.6   0.046540647   0.00861  -0.02923  -0.00820  -0.08767
  14   27262.5    366.8   0.016164176   0.00301   0.04476  -0.03122  -0.00577
  15   28088.8    356.0   0.040061800   0.00769  -0.05817  -0.02732  -0.05967
  16   28666.4    348.8   0.237746419   0.04658  -0.06198  -0.03359  -0.20398
  17   29384.1    340.3   0.356437223   0.07158   0.00328   0.01600   0.26705
  18   29652.3    337.2   0.321938502   0.06524  -0.16687   0.10001   0.16552
  19   30934.3    323.3   0.215353134   0.04553   0.11627   0.00111   0.17892
  20   31581.0    316.6   0.033831696   0.00730   0.00766  -0.02232  -0.08213
  21   31888.7    313.6   0.024604810   0.00536  -0.06916   0.02107  -0.01164
  22   32090.0    311.6   0.017553996   0.00385   0.04978  -0.03645  -0.00663
  23   32504.1    307.7   0.061515933   0.01367   0.01567  -0.04292  -0.10760
  24   32672.4    306.1   0.005704511   0.00127   0.03208  -0.01545  -0.00247
  25   33302.1    300.3   0.118313724   0.02693   0.03417   0.02326   0.15881
  26   33922.6    294.8   0.065946371   0.01529   0.03915  -0.04014   0.11021
  27   34188.9    292.5   0.002999403   0.00070  -0.01188   0.00452   0.02322
  28   34556.4    289.4   0.158215558   0.03737   0.01988  -0.13702  -0.13490
  29   34863.8    286.8   0.109169897   0.02601   0.13082  -0.09390  -0.00911
  30   35349.8    282.9   0.190009081   0.04591   0.08197  -0.15235  -0.12640
  31   35664.0    280.4   0.207234869   0.05051   0.01371   0.01628   0.22374
  32   35893.2    278.6   0.143150869   0.03512   0.07011  -0.14378   0.09762
  33   36401.6    274.7   0.193100692   0.04804  -0.08217   0.13928   0.14795
  34   36482.6    274.1   0.646983735   0.16132  -0.13037   0.21232   0.31503
  35   36813.4    271.6   0.011865343   0.00299  -0.03471   0.03789   0.01856
  36   37378.0    267.5   0.033523602   0.00856  -0.00116  -0.03669  -0.08495
  37   37674.9    265.4   0.004291495   0.00111  -0.01143   0.03121  -0.00067
  38   37909.0    263.8   0.067354014   0.01745  -0.04214  -0.07004  -0.10377
  39   38271.6    261.3   0.016074444   0.00420  -0.04175   0.02684   0.04173
  40   38353.2    260.7   0.150509186   0.03945  -0.00304  -0.07836  -0.18249
  41   38809.2    257.7   0.017289578   0.00459  -0.04338  -0.00774  -0.05142
  42   38971.3    256.6   0.027529186   0.00733   0.04839  -0.00842  -0.07014
  43   39292.5    254.5   0.017167094   0.00461   0.05614  -0.02377   0.02990
  44   39367.9    254.0   0.052098351   0.01402   0.09750  -0.03597   0.05673
  45   40143.5    249.1   0.003966055   0.00109  -0.01171  -0.00101  -0.03082

-------------------------------------------------------------------
                             CD SPECTRUM
-------------------------------------------------------------------
State   Energy Wavelength       R         MX        MY        MZ   
        (cm-1)   (nm)       (1e40*cgs)   (au)      (au)      (au)  
-------------------------------------------------------------------
   0    6671.4   1498.9    -107.34787  -0.62800  -1.48235  -2.67341
   1   11019.8    907.5    -113.50474   0.86528   0.49026   0.20037
   2   14261.0    701.2    -126.57571   1.18730   1.21777   1.28538
   3   18800.6    531.9    -66.47656  -0.18720  -0.59872  -0.92799
   4   20186.3    495.4    188.10896  -0.47161   0.19561   0.69793
   5   21313.5    469.2     -8.38658  -0.23461  -0.25015  -2.27627
   6   21515.1    464.8    148.92698   0.08447   0.75949   1.16820
   7   21800.4    458.7    -99.84167   1.20790   1.13262   1.02997
   8   22750.2    439.6    203.44186  -0.43685   0.68629   0.90543
   9   24194.3    413.3     36.32510  -0.28899  -0.12129   0.74241
  10   25176.5    397.2     29.80286   0.36569   0.21462  -0.95182
  11   25541.5    391.5    117.83733   2.67244   3.28064   0.59447
  12   25707.6    389.0    123.43085  -1.73737  -2.57088  -1.04250
  13   27058.8    369.6    -84.70774  -0.89426  -0.47500  -0.16949
  14   27262.5    366.8     -6.74475  -0.40525  -0.83452   0.43880
  15   28088.8    356.0     72.53926  -0.38065   0.34455   0.95625
  16   28666.4    348.8    -115.33543  -2.33971  -1.23728   0.62124
  17   29384.1    340.3    -288.97434   3.91687   3.28490   0.40939
  18   29652.3    337.2    -19.24290   3.17224   3.46411   1.24413
  19   30934.3    323.3    150.16056   2.92222   2.78428  -2.36865
  20   31581.0    316.6     22.40060  -1.16242  -0.84104   0.29866
  21   31888.7    313.6      4.50118   0.18094   0.59203   0.28360
  22   32090.0    311.6     -5.80026  -0.49331  -0.66218  -0.57362
  23   32504.1    307.7     49.65129  -2.14888  -2.85610   1.09941
  24   32672.4    306.1     -7.89496  -0.28560  -0.86626   0.17257
  25   33302.1    300.3    -74.74829   2.09327   1.53794  -0.35894
  26   33922.6    294.8    149.87962   1.63822   1.58765  -0.83890
  27   34188.9    292.5     14.49436   0.42155   0.50481  -0.29689
  28   34556.4    289.4    -18.98517  -1.52933  -0.61111   0.33451
  29   34863.8    286.8    -88.75657  -1.94563  -3.33000   0.45704
  30   35349.8    282.9    -325.87752  -2.82874  -3.16472   0.27956
  31   35664.0    280.4    450.19764   5.04137   6.12561  -2.06797
  32   35893.2    278.6    888.77409   2.90160   4.25794  -1.77235
  33   36401.6    274.7    -148.22520   2.26824   1.95743   0.09240
  34   36482.6    274.1    -663.65321   6.81231   7.66127  -1.00431
  35   36813.4    271.6     29.70298  -0.49039  -1.47372   1.06628
  36   37378.0    267.5     24.69254  -2.17772  -2.63436   1.29763
  37   37674.9    265.4    -72.86319   1.16242   2.20589  -1.55088
  38   37909.0    263.8    -45.30270  -1.53759  -1.24868   1.10810
  39   38271.6    261.3     20.29386   1.38528   1.76762  -0.13227
  40   38353.2    260.7    -139.03817  -1.73543  -0.39168  -0.32317
  41   38809.2    257.7      2.62531  -0.23839   0.31152   0.17880
  42   38971.3    256.6     22.49588  -1.21209  -1.25913  -0.55989
  43   39292.5    254.5     -1.42045   0.69219   0.88350  -0.60895
  44   39367.9    254.0     20.75113   1.13899   1.29148  -1.32633
  45   40143.5    249.1     -3.02944  -1.24853  -1.64363   0.46231

sTD-DFT done

Total run time:        2.626 sec

           *** ORCA-CIS/TD-DFT FINISHED WITHOUT ERROR ***

-------------------------   --------------------
FINAL SINGLE POINT ENERGY     -3927.595544776567
-------------------------   --------------------


                            ***************************************
                            *     ORCA property calculations      *
                            ***************************************

                                    ---------------------
                                    Active property flags
                                    ---------------------
   (+) Dipole Moment


------------------------------------------------------------------------------
                       ORCA ELECTRIC PROPERTIES CALCULATION
------------------------------------------------------------------------------

Dipole Moment Calculation                       ... on
Quadrupole Moment Calculation                   ... off
Polarizability Calculation                      ... off
GBWName                                         ... xtbopt.gbw
Electron density file                           ... xtbopt.scfp
The origin for moment calculation is the CENTER OF MASS  = (15.107631, -15.099936  3.574341)

-------------
DIPOLE MOMENT
-------------
                                X             Y             Z
Electronic contribution:    -13.25444       8.65082     -17.51668
Nuclear contribution   :     12.20813      -8.23983      17.78701
                        -----------------------------------------
Total Dipole Moment    :     -1.04631       0.41099       0.27033
                        -----------------------------------------
Magnitude (a.u.)       :      1.15618
Magnitude (Debye)      :      2.93878



--------------------
Rotational spectrum 
--------------------
 
Rotational constants in cm-1:     0.002199     0.000277     0.000251 
Rotational constants in MHz :    65.918708     8.293147     7.519044 

 Dipole components along the rotational axes: 
x,y,z [a.u.] :    -1.111960    -0.236394    -0.210768 
x,y,z [Debye]:    -2.826377    -0.600866    -0.535729 

 

Timings for individual modules:

Sum of individual times         ...      529.606 sec (=   8.827 min)
GTO integral calculation        ...        3.847 sec (=   0.064 min)   0.7 %
SCF iterations                  ...      522.422 sec (=   8.707 min)  98.6 %
CIS module                      ...        3.336 sec (=   0.056 min)   0.6 %
                             ****ORCA TERMINATED NORMALLY****
TOTAL RUN TIME: 0 days 0 hours 8 minutes 50 seconds 570 msec
