
                                 *****************
                                 * O   R   C   A *
                                 *****************

           --- An Ab Initio, DFT and Semiempirical electronic structure package ---

                  #######################################################
                  #                        -***-                        #
                  #          Department of theory and spectroscopy      #
                  #               Directorship: Frank Neese             #
                  #        Max Planck Institute fuer Kohlenforschung    #
                  #                Kaiser Wilhelm Platz 1               #
                  #                 D-45470 Muelheim/Ruhr               #
                  #                      Germany                        #
                  #                                                     #
                  #                  All rights reserved                #
                  #                        -***-                        #
                  #######################################################


                         Program Version 4.2.0 -  RELEASE  -


 With contributions from (in alphabetic order):
   Daniel Aravena         : Magnetic Suceptibility
   Michael Atanasov       : Ab Initio Ligand Field Theory (pilot matlab implementation)
   Alexander A. Auer      : GIAO ZORA, VPT2
   Ute Becker             : Parallelization
   Giovanni Bistoni       : ED, misc. LED, open-shell LED, HFLED
   Martin Brehm           : Molecular dynamics
   Dmytro Bykov           : SCF Hessian
   Vijay G. Chilkuri      : MRCI spin determinant printing, contributions to CSF-ICE
   Dipayan Datta          : RHF DLPNO-CCSD density
   Achintya Kumar Dutta   : EOM-CC, STEOM-CC
   Dmitry Ganyushin       : Spin-Orbit,Spin-Spin,Magnetic field MRCI
   Miquel Garcia          : C-PCM Hessian, Gaussian charge scheme
   Yang Guo               : DLPNO-NEVPT2, CIM, IAO-localization
   Andreas Hansen         : Spin unrestricted coupled pair/coupled cluster methods
   Benjamin Helmich-Paris : CASSCF linear response (MC-RPA)
   Lee Huntington         : MR-EOM, pCC
   Robert Izsak           : Overlap fitted RIJCOSX, COSX-SCS-MP3, EOM
   Christian Kollmar      : KDIIS, OOCD, Brueckner-CCSD(T), CCSD density
   Simone Kossmann        : Meta GGA functionals, TD-DFT gradient, OOMP2, MP2 Hessian
   Martin Krupicka        : AUTO-CI
   Lucas Lang             : DCDCAS
   Dagmar Lenk            : GEPOL surface, SMD
   Dimitrios Liakos       : Extrapolation schemes; Compound Job, initial MDCI parallelization
   Dimitrios Manganas     : Further ROCIS development; embedding schemes
   Dimitrios Pantazis     : SARC Basis sets
   Taras Petrenko         : DFT Hessian,TD-DFT gradient, ASA, ECA, R-Raman, ABS, FL, XAS/XES, NRVS
   Peter Pinski           : DLPNO-MP2, DLPNO-MP2 Gradient
   Christoph Reimann      : Effective Core Potentials
   Marius Retegan         : Local ZFS, SOC
   Christoph Riplinger    : Optimizer, TS searches, QM/MM, DLPNO-CCSD(T), (RO)-DLPNO pert. Triples
   Tobias Risthaus        : Range-separated hybrids, TD-DFT gradient, RPA, STAB
   Michael Roemelt        : Original ROCIS implementation
   Masaaki Saitow         : Open-shell DLPNO-CCSD energy and density
   Barbara Sandhoefer     : DKH picture change effects
   Avijit Sen             : IP-ROCIS
   Kantharuban Sivalingam : CASSCF convergence, NEVPT2, FIC-MRCI
   Bernardo de Souza      : ESD, SOC TD-DFT
   Georgi Stoychev        : AutoAux, RI-MP2 NMR
   Willem Van den Heuvel  : Paramagnetic NMR
   Boris Wezisla          : Elementary symmetry handling
   Frank Wennmohs         : Technical directorship


 We gratefully acknowledge several colleagues who have allowed us to
 interface, adapt or use parts of their codes:
   Stefan Grimme, W. Hujo, H. Kruse,             : VdW corrections, initial TS optimization,
                  C. Bannwarth                     DFT functionals, gCP, sTDA/sTD-DF
   Ed Valeev, F. Pavosevic, A. Kumar             : LibInt (2-el integral package), F12 methods
   Garnet Chan, S. Sharma, J. Yang, R. Olivares  : DMRG
   Ulf Ekstrom                                   : XCFun DFT Library
   Mihaly Kallay                                 : mrcc  (arbitrary order and MRCC methods)
   Andreas Klamt, Michael Diedenhofen            : otool_cosmo (COSMO solvation model)
   Jiri Pittner, Ondrej Demel                    : Mk-CCSD
   Frank Weinhold                                : gennbo (NPA and NBO analysis)
   Christopher J. Cramer and Donald G. Truhlar   : smd solvation model
   Lars Goerigk                                  : TD-DFT with DH, B97 family of functionals
   V. Asgeirsson, H. Jonsson                     : NEB implementation
   FAccTs GmbH                                   : IRC, NEB, NEB-TS, Multilevel, MM, QM/MM, CI optimization
   S Lehtola, MJT Oliveira, MAL Marques          : LibXC Library


 Your calculation uses the libint2 library for the computation of 2-el integrals
 For citations please refer to: http://libint.valeyev.net

 Your ORCA version has been built with support for libXC version: 4.2.3
 For citations please refer to: https://tddft.org/programs/libxc/

 This ORCA versions uses:
   CBLAS   interface :  Fast vector & matrix operations
   LAPACKE interface :  Fast linear algebra routines
   SCALAPACK package :  Parallel linear algebra routines


XCFun DFT library Copyright 2009-2010 Ulf Ekstrom and contributors.
See http://admol.org/xcfun for more information. This is free soft-
ware; see the source code for copying conditions. There is ABSOLUTELY
NO WARRANTY; not even for MERCHANTABILITY or FITNESS FOR A PARTICULAR
PURPOSE. For details see the documentation. Scientific users of this 
library should cite U. Ekstrom, L. Visscher, R. Bast, A. J. Thorvald-
sen and K. Ruud; J.Chem.Theor.Comp. 2010, DOI: 10.1021/ct100117s
XCFun Version 0.99 
----- Orbital basis set information -----
Your calculation utilizes the basis: def2-SVP
   F. Weigend and R. Ahlrichs, Phys. Chem. Chem. Phys. 7, 3297 (2005).

----- AuxJ basis set information -----
Your calculation utilizes the auxiliary basis: def2/J
   F. Weigend, Phys. Chem. Chem. Phys. 8, 1057 (2006).

================================================================================
                                        WARNINGS
                       Please study these warnings very carefully!
================================================================================

INFO   : Checking CIS options ...

WARNING: CIS/ROCIS methods need fully converged wavefunctions
  ===> : Setting SCFConvForced true
         You can overwrite this default with %scf ConvForced false 


INFO   : the flag for use of LIBINT has been found!

================================================================================
                                       INPUT FILE
================================================================================
NAME = xtbopt.inp
|  1> # ORCA input file
|  2> # SCF done       -170.864815195670          0.000905236367
|  3> ! CAM-B3LYP def2-SVP def2/J RIJCOSX Grid4 TightSCF
|  4> %maxcore 5000
|  5> %tddft
|  6>     Mode sTDDFT
|  7>     Ethresh 5.0
|  8>     maxcore 5000
|  9> end
| 10> 
| 11> %pal
| 12>   nprocs 6
| 13>   end
| 14> * xyz 0 1
| 15>    C       10.73130        -4.92157         9.94831
| 16>    C       11.43697        -5.64394         9.06947
| 17>    C       12.59699        -6.45185         9.32705
| 18>    C       13.10416        -7.06736         8.23901
| 19>    C       12.39603        -6.80483         7.02921
| 20>    S       11.04198        -5.73046         7.34512
| 21>    C       12.67513        -7.28393         5.77850
| 22>    C       13.73918        -8.15330         5.39814
| 23>    C       13.76647        -8.45894         4.08340
| 24>    C       12.71817        -7.85494         3.31510
| 25>    S       11.70168        -6.86505         4.37656
| 26>    C       12.46061        -8.00814         2.00245
| 27>    C       11.37484        -7.29245         1.31467
| 28>    C       10.18725        -7.87478         0.85951
| 29>    N        9.71561        -9.16719         0.97315
| 30>    C       10.40116       -10.21164         1.68816
| 31>    C       10.02479       -10.22984         3.17029
| 32>    C        8.46810        -9.24249         0.38952
| 33>    C        8.14823        -7.97401        -0.15384
| 34>    C        9.23111        -7.09422         0.17143
| 35>    C        9.43427        -5.74037        -0.05681
| 36>    C       10.59106        -5.16320         0.42213
| 37>    C       11.53513        -5.92840         1.09640
| 38>    C        6.97853        -7.75764        -0.86740
| 39>    C        6.11802        -8.82213        -1.04698
| 40>    C        6.41765       -10.06497        -0.51503
| 41>    C        7.57845       -10.32517         0.22236
| 42>    C        7.77525       -11.63431         0.79820
| 43>    C        7.37382       -12.83494         0.30384
| 44>    C        7.61386       -14.09189         0.93909
| 45>    C        7.20620       -15.17322         0.23289
| 46>    C        6.59381       -14.85727        -1.00746
| 47>    S        6.57213       -13.11801        -1.24337
| 48>    C        6.05347       -15.72390        -1.92456
| 49>    C        6.02546       -17.14148        -1.87093
| 50>    C        5.42120       -17.72358        -2.93390
| 51>    C        4.90772       -16.80960        -3.90480
| 52>    S        5.27828       -15.16027        -3.39599
| 53>    C        4.17817       -17.16718        -4.99333
| 54>    C        3.62418       -16.29406        -6.00360
| 55>    C        2.40200       -16.51574        -6.67064
| 56>    N        1.42860       -17.48217        -6.50008
| 57>    C        1.43873       -18.51050        -5.49349
| 58>    C        2.09206       -19.80447        -5.98475
| 59>    C        0.38343       -17.23103        -7.36668
| 60>    C        0.68075       -16.06305        -8.10663
| 61>    C        1.96716       -15.61109        -7.66721
| 62>    C        2.71727       -14.50130        -8.02766
| 63>    C        3.91450       -14.28530        -7.37536
| 64>    C        4.34388       -15.15783        -6.38945
| 65>    C       -0.21586       -15.52864        -9.01986
| 66>    C       -1.43176       -16.16122        -9.18595
| 67>    C       -1.73461       -17.30276        -8.46260
| 68>    C       -0.85101       -17.88524        -7.54791
| 69>    C       -1.22768       -19.12546        -6.90463
| 70>    C       -2.46486       -19.48740        -6.48130
| 71>    C       -2.79324       -20.75007        -5.89635
| 72>    C       -4.07460       -20.86463        -5.47887
| 73>    C       -4.86399       -19.70259        -5.69950
| 74>    S       -3.89824       -18.45474        -6.46976
| 75>    C       -6.18719       -19.51994        -5.39593
| 76>    C       -7.07538       -20.45614        -4.79267
| 77>    C       -8.33301       -19.99886        -4.61483
| 78>    C       -8.54701       -18.65289        -5.06768
| 79>    S       -7.03306       -18.01674        -5.73075
| 80>    C       -9.68254       -17.94390        -5.02110
| 81>    H       11.00806        -4.89743        10.98739
| 82>    H        9.87361        -4.34779         9.64949
| 83>    H       12.99672        -6.53165        10.32246
| 84>    H       13.96853        -7.70784         8.25219
| 85>    H       14.44826        -8.51891         6.11982
| 86>    H       14.49446        -9.09835         3.61521
| 87>    H       13.12795        -8.61856         1.40596
| 88>    H       11.47485       -10.03783         1.59820
| 89>    H       10.17578       -11.16891         1.21115
| 90>    H       10.31483        -9.29211         3.63739
| 91>    H       10.53567       -11.04475         3.67750
| 92>    H        8.95137       -10.34845         3.30069
| 93>    H        8.69656        -5.15816        -0.58714
| 94>    H       10.77455        -4.10953         0.27570
| 95>    H       12.43847        -5.45752         1.45620
| 96>    H        6.75773        -6.78177        -1.27119
| 97>    H        5.19799        -8.69162        -1.59627
| 98>    H        5.70032       -10.86124        -0.63533
| 99>    H        8.27359       -11.68659         1.75473
|100>    H        8.09344       -14.14007         1.90172
|101>    H        7.31964       -16.19062         0.56310
|102>    H        6.45359       -17.68301        -1.04606
|103>    H        5.30616       -18.78626        -3.06185
|104>    H        4.02999       -18.23013        -5.11147
|105>    H        0.40419       -18.70301        -5.19417
|106>    H        1.97322       -18.12851        -4.61896
|107>    H        1.55888       -20.20848        -6.84225
|108>    H        2.09059       -20.54653        -5.18995
|109>    H        3.11804       -19.62922        -6.30051
|110>    H        2.36445       -13.82789        -8.79324
|111>    H        4.52813       -13.43481        -7.63106
|112>    H        5.29939       -14.97765        -5.92241
|113>    H        0.03434       -14.63829        -9.57550
|114>    H       -2.15465       -15.77449        -9.88811
|115>    H       -2.67744       -17.79471        -8.64375
|116>    H       -0.46188       -19.87832        -6.78551
|117>    H       -2.05239       -21.52624        -5.80884
|118>    H       -4.48405       -21.74396        -5.01432
|119>    H       -6.74315       -21.44046        -4.51241
|120>    H       -9.13735       -20.56284        -4.17624
|121>    H      -10.57981       -18.37130        -4.60962
|122>    H       -9.73653       -16.93646        -5.39132
|123> *
|124> 
|125>                          ****END OF INPUT****
================================================================================

                       ****************************
                       * Single Point Calculation *
                       ****************************

---------------------------------
CARTESIAN COORDINATES (ANGSTROEM)
---------------------------------
  C     10.731300   -4.921570    9.948310
  C     11.436970   -5.643940    9.069470
  C     12.596990   -6.451850    9.327050
  C     13.104160   -7.067360    8.239010
  C     12.396030   -6.804830    7.029210
  S     11.041980   -5.730460    7.345120
  C     12.675130   -7.283930    5.778500
  C     13.739180   -8.153300    5.398140
  C     13.766470   -8.458940    4.083400
  C     12.718170   -7.854940    3.315100
  S     11.701680   -6.865050    4.376560
  C     12.460610   -8.008140    2.002450
  C     11.374840   -7.292450    1.314670
  C     10.187250   -7.874780    0.859510
  N      9.715610   -9.167190    0.973150
  C     10.401160  -10.211640    1.688160
  C     10.024790  -10.229840    3.170290
  C      8.468100   -9.242490    0.389520
  C      8.148230   -7.974010   -0.153840
  C      9.231110   -7.094220    0.171430
  C      9.434270   -5.740370   -0.056810
  C     10.591060   -5.163200    0.422130
  C     11.535130   -5.928400    1.096400
  C      6.978530   -7.757640   -0.867400
  C      6.118020   -8.822130   -1.046980
  C      6.417650  -10.064970   -0.515030
  C      7.578450  -10.325170    0.222360
  C      7.775250  -11.634310    0.798200
  C      7.373820  -12.834940    0.303840
  C      7.613860  -14.091890    0.939090
  C      7.206200  -15.173220    0.232890
  C      6.593810  -14.857270   -1.007460
  S      6.572130  -13.118010   -1.243370
  C      6.053470  -15.723900   -1.924560
  C      6.025460  -17.141480   -1.870930
  C      5.421200  -17.723580   -2.933900
  C      4.907720  -16.809600   -3.904800
  S      5.278280  -15.160270   -3.395990
  C      4.178170  -17.167180   -4.993330
  C      3.624180  -16.294060   -6.003600
  C      2.402000  -16.515740   -6.670640
  N      1.428600  -17.482170   -6.500080
  C      1.438730  -18.510500   -5.493490
  C      2.092060  -19.804470   -5.984750
  C      0.383430  -17.231030   -7.366680
  C      0.680750  -16.063050   -8.106630
  C      1.967160  -15.611090   -7.667210
  C      2.717270  -14.501300   -8.027660
  C      3.914500  -14.285300   -7.375360
  C      4.343880  -15.157830   -6.389450
  C     -0.215860  -15.528640   -9.019860
  C     -1.431760  -16.161220   -9.185950
  C     -1.734610  -17.302760   -8.462600
  C     -0.851010  -17.885240   -7.547910
  C     -1.227680  -19.125460   -6.904630
  C     -2.464860  -19.487400   -6.481300
  C     -2.793240  -20.750070   -5.896350
  C     -4.074600  -20.864630   -5.478870
  C     -4.863990  -19.702590   -5.699500
  S     -3.898240  -18.454740   -6.469760
  C     -6.187190  -19.519940   -5.395930
  C     -7.075380  -20.456140   -4.792670
  C     -8.333010  -19.998860   -4.614830
  C     -8.547010  -18.652890   -5.067680
  S     -7.033060  -18.016740   -5.730750
  C     -9.682540  -17.943900   -5.021100
  H     11.008060   -4.897430   10.987390
  H      9.873610   -4.347790    9.649490
  H     12.996720   -6.531650   10.322460
  H     13.968530   -7.707840    8.252190
  H     14.448260   -8.518910    6.119820
  H     14.494460   -9.098350    3.615210
  H     13.127950   -8.618560    1.405960
  H     11.474850  -10.037830    1.598200
  H     10.175780  -11.168910    1.211150
  H     10.314830   -9.292110    3.637390
  H     10.535670  -11.044750    3.677500
  H      8.951370  -10.348450    3.300690
  H      8.696560   -5.158160   -0.587140
  H     10.774550   -4.109530    0.275700
  H     12.438470   -5.457520    1.456200
  H      6.757730   -6.781770   -1.271190
  H      5.197990   -8.691620   -1.596270
  H      5.700320  -10.861240   -0.635330
  H      8.273590  -11.686590    1.754730
  H      8.093440  -14.140070    1.901720
  H      7.319640  -16.190620    0.563100
  H      6.453590  -17.683010   -1.046060
  H      5.306160  -18.786260   -3.061850
  H      4.029990  -18.230130   -5.111470
  H      0.404190  -18.703010   -5.194170
  H      1.973220  -18.128510   -4.618960
  H      1.558880  -20.208480   -6.842250
  H      2.090590  -20.546530   -5.189950
  H      3.118040  -19.629220   -6.300510
  H      2.364450  -13.827890   -8.793240
  H      4.528130  -13.434810   -7.631060
  H      5.299390  -14.977650   -5.922410
  H      0.034340  -14.638290   -9.575500
  H     -2.154650  -15.774490   -9.888110
  H     -2.677440  -17.794710   -8.643750
  H     -0.461880  -19.878320   -6.785510
  H     -2.052390  -21.526240   -5.808840
  H     -4.484050  -21.743960   -5.014320
  H     -6.743150  -21.440460   -4.512410
  H     -9.137350  -20.562840   -4.176240
  H    -10.579810  -18.371300   -4.609620
  H     -9.736530  -16.936460   -5.391320

----------------------------
CARTESIAN COORDINATES (A.U.)
----------------------------
  NO LB      ZA    FRAG     MASS         X           Y           Z
   0 C     6.0000    0    12.011   20.279218   -9.300419   18.799581
   1 C     6.0000    0    12.011   21.612741  -10.665501   17.138814
   2 C     6.0000    0    12.011   23.804861  -12.192230   17.625570
   3 C     6.0000    0    12.011   24.763274  -13.355375   15.569473
   4 C     6.0000    0    12.011   23.425102  -12.859265   13.283282
   5 S    16.0000    0    32.060   20.866318  -10.829000   13.880265
   6 C     6.0000    0    12.011   23.952524  -13.764633   10.919782
   7 C     6.0000    0    12.011   25.963288  -15.407504   10.201006
   8 C     6.0000    0    12.011   26.014858  -15.985080    7.716508
   9 C     6.0000    0    12.011   24.033858  -14.843685    6.264631
  10 S    16.0000    0    32.060   22.112971  -12.973064    8.270500
  11 C     6.0000    0    12.011   23.547140  -15.133191    3.784082
  12 C     6.0000    0    12.011   21.495332  -13.780733    2.484366
  13 C     6.0000    0    12.011   19.251113  -14.881178    1.624239
  14 N     7.0000    0    14.007   18.359842  -17.323479    1.838987
  15 C     6.0000    0    12.011   19.655344  -19.297203    3.190160
  16 C     6.0000    0    12.011   18.944108  -19.331596    5.990980
  17 C     6.0000    0    12.011   16.002390  -17.465775    0.736086
  18 C     6.0000    0    12.011   15.397923  -15.068695   -0.290715
  19 C     6.0000    0    12.011   17.444270  -13.406133    0.323956
  20 C     6.0000    0    12.011   17.828187  -10.847727   -0.107355
  21 C     6.0000    0    12.011   20.014203   -9.757034    0.797710
  22 C     6.0000    0    12.011   21.798237  -11.203052    2.071896
  23 C     6.0000    0    12.011   13.187511  -14.659815   -1.639148
  24 C     6.0000    0    12.011   11.561382  -16.671410   -1.978505
  25 C     6.0000    0    12.011   12.127601  -19.020037   -0.973266
  26 C     6.0000    0    12.011   14.321195  -19.511744    0.420200
  27 C     6.0000    0    12.011   14.693093  -21.985660    1.508379
  28 C     6.0000    0    12.011   13.934500  -24.254522    0.574174
  29 C     6.0000    0    12.011   14.388110  -26.629813    1.774623
  30 C     6.0000    0    12.011   13.617744  -28.673230    0.440098
  31 C     6.0000    0    12.011   12.460495  -28.076171   -1.903823
  32 S    16.0000    0    32.060   12.419526  -24.789446   -2.349629
  33 C     6.0000    0    12.011   11.439400  -29.713865   -3.636891
  34 C     6.0000    0    12.011   11.386469  -32.392703   -3.535545
  35 C     6.0000    0    12.011   10.244583  -33.492712   -5.544268
  36 C     6.0000    0    12.011    9.274247  -31.765540   -7.379003
  37 S    16.0000    0    32.060    9.974504  -28.648758   -6.417491
  38 C     6.0000    0    12.011    7.895597  -32.441269   -9.436026
  39 C     6.0000    0    12.011    6.848708  -30.791311  -11.345160
  40 C     6.0000    0    12.011    4.539122  -31.210225  -12.605683
  41 N     7.0000    0    14.007    2.699663  -33.036514  -12.283371
  42 C     6.0000    0    12.011    2.718806  -34.979776  -10.381192
  43 C     6.0000    0    12.011    3.953420  -37.425025  -11.309538
  44 C     6.0000    0    12.011    0.724578  -32.561928  -13.921008
  45 C     6.0000    0    12.011    1.286431  -30.354765  -15.319311
  46 C     6.0000    0    12.011    3.717394  -29.500685  -14.488927
  47 C     6.0000    0    12.011    5.134896  -27.403486  -15.170079
  48 C     6.0000    0    12.011    7.397333  -26.995305  -13.937411
  49 C     6.0000    0    12.011    8.208744  -28.644147  -12.074311
  50 C     6.0000    0    12.011   -0.407916  -29.344877  -17.045065
  51 C     6.0000    0    12.011   -2.705634  -30.540280  -17.358930
  52 C     6.0000    0    12.011   -3.277938  -32.697478  -15.991996
  53 C     6.0000    0    12.011   -1.608176  -33.798205  -14.263483
  54 C     6.0000    0    12.011   -2.319979  -36.141882  -13.047860
  55 C     6.0000    0    12.011   -4.657910  -36.825849  -12.247882
  56 C     6.0000    0    12.011   -5.278459  -39.211950  -11.142487
  57 C     6.0000    0    12.011   -7.699878  -39.428437  -10.353564
  58 C     6.0000    0    12.011   -9.191609  -37.232499  -10.770494
  59 S    16.0000    0    32.060   -7.366606  -34.874404  -12.226075
  60 C     6.0000    0    12.011  -11.692095  -36.887341  -10.196830
  61 C     6.0000    0    12.011  -13.370530  -38.656502   -9.056834
  62 C     6.0000    0    12.011  -15.747107  -37.792368   -8.720765
  63 C     6.0000    0    12.011  -16.151508  -35.248854   -9.576527
  64 S    16.0000    0    32.060  -13.290557  -34.046704  -10.829548
  65 C     6.0000    0    12.011  -18.297349  -33.909057   -9.488504
  66 H     1.0000    0     1.008   20.802219   -9.254801   20.763158
  67 H     1.0000    0     1.008   18.658419   -8.216132   18.234893
  68 H     1.0000    0     1.008   24.560241  -12.343030   19.506622
  69 H     1.0000    0     1.008   26.396696  -14.565707   15.594379
  70 H     1.0000    0     1.008   27.303255  -16.098407   11.564784
  71 H     1.0000    0     1.008   27.390560  -17.193390    6.831757
  72 H     1.0000    0     1.008   24.808230  -16.286718    2.656879
  73 H     1.0000    0     1.008   21.684324  -18.968750    3.020160
  74 H     1.0000    0     1.008   19.229437  -21.106181    2.288742
  75 H     1.0000    0     1.008   19.492204  -17.559543    6.873671
  76 H     1.0000    0     1.008   19.909531  -20.871553    6.949468
  77 H     1.0000    0     1.008   16.915638  -19.555736    6.237400
  78 H     1.0000    0     1.008   16.434117   -9.747510   -1.109534
  79 H     1.0000    0     1.008   20.360949   -7.765886    0.520997
  80 H     1.0000    0     1.008   23.505302  -10.313218    2.751819
  81 H     1.0000    0     1.008   12.770259  -12.815688   -2.402201
  82 H     1.0000    0     1.008    9.822778  -16.424781   -3.016513
  83 H     1.0000    0     1.008   10.772044  -20.524769   -1.200600
  84 H     1.0000    0     1.008   15.634819  -22.084455    3.315959
  85 H     1.0000    0     1.008   15.294385  -26.720860    3.593730
  86 H     1.0000    0     1.008   13.832115  -30.595838    1.064105
  87 H     1.0000    0     1.008   12.195518  -33.416046   -1.976767
  88 H     1.0000    0     1.008   10.027189  -35.500886   -5.786058
  89 H     1.0000    0     1.008    7.615577  -34.449953   -9.659278
  90 H     1.0000    0     1.008    0.763808  -35.343567   -9.815559
  91 H     1.0000    0     1.008    3.728845  -34.257919   -8.728569
  92 H     1.0000    0     1.008    2.945856  -38.188493  -12.929979
  93 H     1.0000    0     1.008    3.950643  -38.827315   -9.807584
  94 H     1.0000    0     1.008    5.892242  -37.093850  -11.906238
  95 H     1.0000    0     1.008    4.468163  -26.130925  -16.616815
  96 H     1.0000    0     1.008    8.556926  -25.388112  -14.420614
  97 H     1.0000    0     1.008   10.014396  -28.303657  -11.191733
  98 H     1.0000    0     1.008    0.064893  -27.662359  -18.095073
  99 H     1.0000    0     1.008   -4.071698  -29.809466  -18.685820
 100 H     1.0000    0     1.008   -5.059628  -33.627129  -16.334320
 101 H     1.0000    0     1.008   -0.872827  -37.564581  -12.822756
 102 H     1.0000    0     1.008   -3.878455  -40.678698  -10.977117
 103 H     1.0000    0     1.008   -8.473626  -41.090129   -9.475692
 104 H     1.0000    0     1.008  -12.742707  -40.516598   -8.527219
 105 H     1.0000    0     1.008  -17.267089  -38.858136   -7.891950
 106 H     1.0000    0     1.008  -19.992943  -34.716726   -8.710919
 107 H     1.0000    0     1.008  -18.399375  -32.005271  -10.188118

--------------------------------
INTERNAL COORDINATES (ANGSTROEM)
--------------------------------
 C      0   0   0     0.000000000000     0.00000000     0.00000000
 C      1   0   0     1.338711436942     0.00000000     0.00000000
 C      2   1   0     1.436910722662   127.68083539     0.00000000
 C      3   2   1     1.349038550450   114.54825882   180.20007573
 C      4   3   2     1.426178858979   114.42544441   359.97483659
 S      5   4   3     1.757134436376   110.03921397   359.92647356
 C      5   4   3     1.368104208056   127.57035968   179.90761654
 C      7   5   4     1.425720985677   127.56671949   359.87626856
 C      8   7   5     1.350074746560   114.38924413   180.04887621
 C      9   8   7     1.433190071135   114.32129238   359.84978181
 S      7   5   4     1.757413190032   122.19542811   180.03669555
 C     10   9   8     1.346423936247   127.92264091   182.46150320
 C     12  10   9     1.471105025958   122.79461018   182.19243575
 C     13  12  10     1.398802653200   125.18492889   251.77139208
 N     14  13  12     1.380464395521   130.77046354     3.06596772
 C     15  14  13     1.439476955390   123.88114665     2.86142585
 C     16  15  14     1.529279226891   111.89004479    87.55728337
 C     15  14  13     1.379338706410   108.98240047   178.36008241
 C     18  15  14     1.416544534033   108.52058862     1.98455252
 C     14  13  12     1.413128337979   120.19436466   182.05509098
 C     20  14  13     1.387903925241   121.32165736   359.29632019
 C     21  20  14     1.378648554418   118.29885624   359.12570111
 C     22  21  20     1.389762295430   120.53244811     1.02496794
 C     19  18  15     1.387148853044   121.83043161   176.68482720
 C     24  19  18     1.380530838699   118.18032491   359.72079677
 C     25  24  19     1.384702208058   120.47933928     0.57133194
 C     26  25  24     1.399608763941   123.27959874     0.06899315
 C     27  26  25     1.443665295420   119.45855767   176.80209534
 C     28  27  26     1.359062269140   128.00637992    33.02817003
 C     29  28  27     1.428665484499   124.46314174   179.82275619
 C     30  29  28     1.354318900592   114.83669690   184.16943055
 C     31  30  29     1.418912977282   114.07593890   359.11837641
 S     32  31  30     1.755320169684   110.08706504     0.50365706
 C     32  31  30     1.372620589420   127.83338116   181.70063370
 C     34  32  31     1.418870604883   127.82935209   357.40368337
 C     35  34  32     1.354206697111   114.11657658   180.19789109
 C     36  35  34     1.428869469476   114.75603520   359.22532678
 S     34  32  31     1.756047994190   122.07136593   177.82232283
 C     37  36  35     1.358309324050   124.69130531   185.26118593
 C     39  37  36     1.445644813708   127.36325082   179.53806021
 C     40  39  37     1.409896569398   124.60096132   214.13475558
 N     41  40  39     1.382239204516   131.45347737     5.00759981
 C     42  41  40     1.439023500121   125.52020064     2.77302944
 C     43  42  41     1.530534167342   112.49714053   267.82112385
 C     42  41  40     1.380741535734   109.17472928   177.22831576
 C     45  42  41     1.414249788863   108.63037615   359.31491120
 C     41  40  39     1.414436005269   119.95216393   181.46305844
 C     47  41  40     1.387163674085   121.90628346     0.61456667
 C     48  47  41     1.380402464102   118.12486479   359.46225260
 C     49  48  47     1.384808403137   120.44792103   359.92930391
 C     46  45  42     1.386900347213   121.79179102   182.86152088
 C     51  46  45     1.380636141241   118.16493090     0.68738492
 C     52  51  46     1.384942929005   120.49110569   359.56091686
 C     53  52  51     1.398817252717   123.13578630   359.43321671
 C     54  53  52     1.447009017145   118.89246902   183.88697335
 C     55  54  53     1.356769400046   127.20841861   322.48076542
 C     56  55  54     1.429802593297   124.93565786   177.44430628
 C     57  56  55     1.352515062245   114.75041854   176.42117860
 C     58  57  56     1.422023604094   114.12987987     0.00000000
 S     59  58  57     1.755876747554   110.08918590     0.16734905
 C     59  58  57     1.369808018446   127.64788671   179.48286010
 C     61  59  58     1.424526076876   127.48131035   359.79726994
 C     62  61  59     1.349950103115   114.45813856   180.15410155
 C     63  62  61     1.436142180775   114.50353803     0.08059344
 S     61  59  58     1.757046023672   122.47155843   179.99910474
 C     64  63  62     1.339501734751   127.69191597   179.94180453
 H      1   2   3     1.075577093285   120.70914291   359.94656471
 H      1   2   3     1.074313276889   121.76471712   179.97052298
 H      3   2   1     1.075636175015   120.50498663     0.17382987
 H      4   3   2     1.075882818759   124.31711557   179.97099226
 H      8   7   5     1.075772811006   121.34527487   359.94971382
 H      9   8   7     1.076111734115   124.88138442   179.97229548
 H     12  10   9     1.083400005584   118.88417496   356.94112321
 H     16  15  14     1.091381204621   108.18181190   327.59855411
 H     16  15  14     1.093023575867   108.69222211   210.75634865
 H     17  16  15     1.087034113770   109.90858377   298.20646857
 H     17  16  15     1.087353974840   110.20430815   178.42211143
 H     17  16  15     1.087797310394   111.12068797    57.45532209
 H     21  20  14     1.079089633487   120.46750420   179.76614162
 H     22  21  20     1.079504883685   120.27359447   180.92709095
 H     23  22  21     1.080373625187   119.31364246   179.49497227
 H     24  19  18     1.078944512475   120.40836022   179.99206642
 H     25  24  19     1.079447805640   120.28028873   179.96017954
 H     26  25  24     1.078462021492   118.41902813   177.15282022
 H     28  27  26     1.079826650393   117.39644565   215.14091493
 H     30  29  28     1.076556921718   120.78467795     3.59359030
 H     31  30  29     1.075644010675   124.28956717   179.45976471
 H     35  34  32     1.075621008860   121.60960680     0.23213807
 H     36  35  34     1.076519477994   124.42292990   180.12313780
 H     39  37  36     1.079711570050   114.87026913   357.78624790
 H     43  42  41     1.094040938037   108.08709007   146.12108909
 H     43  42  41     1.093800091927   108.24902890    29.67862800
 H     44  43  42     1.087571258585   110.96914486   299.62398940
 H     44  43  42     1.087364816655   109.98471774   179.19528021
 H     44  43  42     1.087681893064   111.07626246    58.59940660
 H     48  47  41     1.078923406410   120.45732318   179.82046700
 H     49  48  47     1.079470938469   120.28976524   179.74008047
 H     50  49  48     1.078698546444   118.53267172   178.02200002
 H     51  46  45     1.078915646425   120.47569365   180.20881033
 H     52  51  46     1.079425176008   120.25778906   180.03283127
 H     53  52  51     1.078776405888   118.63911030   182.35055955
 H     55  54  53     1.080480168259   117.49826771   139.08285917
 H     57  56  55     1.076548462216   120.79100113   356.55600519
 H     58  57  56     1.075489309059   124.28166930   180.26433378
 H     62  61  59     1.076015010537   121.26421472     0.13503361
 H     63  62  61     1.075824086038   124.93520323   179.99739301
 H     66  64  63     1.075676532839   120.67203192   359.92240562
 H     66  64  63     1.074668842993   121.78892426   180.09458442

---------------------------
INTERNAL COORDINATES (A.U.)
---------------------------
 C      0   0   0     0.000000000000     0.00000000     0.00000000
 C      1   0   0     2.529797988169     0.00000000     0.00000000
 C      2   1   0     2.715367744725   127.68083539     0.00000000
 C      3   2   1     2.549313404452   114.54825882   180.20007573
 C      4   3   2     2.695087461460   114.42544441   359.97483659
 S      5   4   3     3.320502865234   110.03921397   359.92647356
 C      5   4   3     2.585342275891   127.57035968   179.90761654
 C      7   5   4     2.694222206314   127.56671949   359.87626856
 C      8   7   5     2.551271531322   114.38924413   180.04887621
 C      9   8   7     2.708336732300   114.32129238   359.84978181
 S      7   5   4     3.321029633302   122.19542811   180.03669555
 C     10   9   8     2.544372499664   127.92264091   182.46150320
 C     12  10   9     2.779985613296   122.79461018   182.19243575
 C     13  12  10     2.643353929951   125.18492889   251.77139208
 N     14  13  12     2.608699645163   130.77046354     3.06596772
 C     15  14  13     2.720217221779   123.88114665     2.86142585
 C     16  15  14     2.889918921119   111.89004479    87.55728337
 C     15  14  13     2.606572401032   108.98240047   178.36008241
 C     18  15  14     2.676881225826   108.52058862     1.98455252
 C     14  13  12     2.670425550864   120.19436466   182.05509098
 C     20  14  13     2.622758318900   121.32165736   359.29632019
 C     21  20  14     2.605268202777   118.29885624   359.12570111
 C     22  21  20     2.626270129613   120.53244811     1.02496794
 C     19  18  15     2.621331439235   121.83043161   176.68482720
 C     24  19  18     2.608825204574   118.18032491   359.72079677
 C     25  24  19     2.616707950265   120.47933928     0.57133194
 C     26  25  24     2.644877258484   123.27959874     0.06899315
 C     27  26  25     2.728132037390   119.45855767   176.80209534
 C     28  27  26     2.568255487620   128.00637992    33.02817003
 C     29  28  27     2.699786502690   124.46314174   179.82275619
 C     30  29  28     2.559291820112   114.83669690   184.16943055
 C     31  30  29     2.681356934930   114.07593890   359.11837641
 S     32  31  30     3.317074398051   110.08706504     0.50365706
 C     32  31  30     2.593876999786   127.83338116   181.70063370
 C     34  32  31     2.681276862699   127.82935209   357.40368337
 C     35  34  32     2.559079786262   114.11657658   180.19789109
 C     36  35  34     2.700171978431   114.75603520   359.22532678
 S     34  32  31     3.318449787042   122.07136593   177.82232283
 C     37  36  35     2.566832627605   124.69130531   185.26118593
 C     39  37  36     2.731872784831   127.36325082   179.53806021
 C     40  39  37     2.664318393317   124.60096132   214.13475558
 N     41  40  39     2.612053548104   131.45347737     5.00759981
 C     42  41  40     2.719360315505   125.52020064     2.77302944
 C     43  42  41     2.892290414885   112.49714053   267.82112385
 C     42  41  40     2.609223364266   109.17472928   177.22831576
 C     45  42  41     2.672544785908   108.63037615   359.31491120
 C     41  40  39     2.672896683915   119.95216393   181.46305844
 C     47  41  40     2.621359446944   121.90628346     0.61456667
 C     48  47  41     2.608582611744   118.12486479   359.46225260
 C     49  48  47     2.616908629883   120.44792103   359.92930391
 C     46  45  42     2.620861831273   121.79179102   182.86152088
 C     51  46  45     2.609024197539   118.16493090     0.68738492
 C     52  51  46     2.617162846930   120.49110569   359.56091686
 C     53  52  51     2.643381519040   123.13578630   359.43321671
 C     54  53  52     2.734450755719   118.89246902   183.88697335
 C     55  54  53     2.563922592971   127.20841861   322.48076542
 C     56  55  54     2.701935326902   124.93565786   177.44430628
 C     57  56  55     2.555883059647   114.75041854   176.42117860
 C     58  57  56     2.687235167709   114.12987987     0.00000000
 S     59  58  57     3.318126177797   110.08918590     0.16734905
 C     59  58  57     2.588562010913   127.64788671   179.48286010
 C     61  59  58     2.691964155925   127.48131035   359.79726994
 C     62  61  59     2.551035989346   114.45813856   180.15410155
 C     63  62  61     2.713915411036   114.50353803     0.08059344
 S     61  59  58     3.320335789435   122.47155843   179.99910474
 C     64  63  62     2.531291434591   127.69191597   179.94180453
 H      1   2   3     2.032546142228   120.70914291   359.94656471
 H      1   2   3     2.030157875356   121.76471712   179.97052298
 H      3   2   1     2.032657790516   120.50498663     0.17382987
 H      4   3   2     2.033123879645   124.31711557   179.97099226
 H      8   7   5     2.032915995120   121.34527487   359.94971382
 H      9   8   7     2.033556466976   124.88138442   179.97229548
 H     12  10   9     2.047329304043   118.88417496   356.94112321
 H     16  15  14     2.062411584443   108.18181190   327.59855411
 H     16  15  14     2.065515216307   108.69222211   210.75634865
 H     17  16  15     2.054196773255   109.90858377   298.20646857
 H     17  16  15     2.054801223078   110.20430815   178.42211143
 H     17  16  15     2.055639005860   111.12068797    57.45532209
 H     21  20  14     2.039183881245   120.46750420   179.76614162
 H     22  21  20     2.039968590395   120.27359447   180.92709095
 H     23  22  21     2.041610273915   119.31364246   179.49497227
 H     24  19  18     2.038909642275   120.40836022   179.99206642
 H     25  24  19     2.039860728521   120.28028873   179.96017954
 H     26  25  24     2.037997866454   118.41902813   177.15282022
 H     28  27  26     2.040576641353   117.39644565   215.14091493
 H     30  29  28     2.034397749625   120.78467795     3.59359030
 H     31  30  29     2.032672597768   124.28956717   179.45976471
 H     35  34  32     2.032629130637   121.60960680     0.23213807
 H     36  35  34     2.034326991240   124.42292990   180.12313780
 H     39  37  36     2.040359171021   114.87026913   357.78624790
 H     43  42  41     2.067437752187   108.08709007   146.12108909
 H     43  42  41     2.066982619000   108.24902890    29.67862800
 H     44  43  42     2.055211829850   110.96914486   299.62398940
 H     44  43  42     2.054821711140   109.98471774   179.19528021
 H     44  43  42     2.055420898717   111.07626246    58.59940660
 H     48  47  41     2.038869757593   120.45732318   179.82046700
 H     49  48  47     2.039904443234   120.28976524   179.74008047
 H     50  49  48     2.038444833838   118.53267172   178.02200002
 H     51  46  45     2.038855093345   120.47569365   180.20881033
 H     52  51  46     2.039817964715   120.25778906   180.03283127
 H     53  52  51     2.038591966864   118.63911030   182.35055955
 H     55  54  53     2.041811611142   117.49826771   139.08285917
 H     57  56  55     2.034381763483   120.79100113   356.55600519
 H     58  57  56     2.032380254082   124.28166930   180.26433378
 H     62  61  59     2.033373685902   121.26421472     0.13503361
 H     63  62  61     2.033012890888   124.93520323   179.99739301
 H     66  64  63     2.032734055751   120.67203192   359.92240562
 H     66  64  63     2.030829797915   121.78892426   180.09458442

---------------------
BASIS SET INFORMATION
---------------------
There are 4 groups of distinct atoms

 Group   1 Type C   : 7s4p1d contracted to 3s2p1d pattern {511/31/1}
 Group   2 Type S   : 10s7p1d contracted to 4s3p1d pattern {5311/511/1}
 Group   3 Type N   : 7s4p1d contracted to 3s2p1d pattern {511/31/1}
 Group   4 Type H   : 4s1p contracted to 2s1p pattern {31/1}

Atom   0C    basis set group =>   1
Atom   1C    basis set group =>   1
Atom   2C    basis set group =>   1
Atom   3C    basis set group =>   1
Atom   4C    basis set group =>   1
Atom   5S    basis set group =>   2
Atom   6C    basis set group =>   1
Atom   7C    basis set group =>   1
Atom   8C    basis set group =>   1
Atom   9C    basis set group =>   1
Atom  10S    basis set group =>   2
Atom  11C    basis set group =>   1
Atom  12C    basis set group =>   1
Atom  13C    basis set group =>   1
Atom  14N    basis set group =>   3
Atom  15C    basis set group =>   1
Atom  16C    basis set group =>   1
Atom  17C    basis set group =>   1
Atom  18C    basis set group =>   1
Atom  19C    basis set group =>   1
Atom  20C    basis set group =>   1
Atom  21C    basis set group =>   1
Atom  22C    basis set group =>   1
Atom  23C    basis set group =>   1
Atom  24C    basis set group =>   1
Atom  25C    basis set group =>   1
Atom  26C    basis set group =>   1
Atom  27C    basis set group =>   1
Atom  28C    basis set group =>   1
Atom  29C    basis set group =>   1
Atom  30C    basis set group =>   1
Atom  31C    basis set group =>   1
Atom  32S    basis set group =>   2
Atom  33C    basis set group =>   1
Atom  34C    basis set group =>   1
Atom  35C    basis set group =>   1
Atom  36C    basis set group =>   1
Atom  37S    basis set group =>   2
Atom  38C    basis set group =>   1
Atom  39C    basis set group =>   1
Atom  40C    basis set group =>   1
Atom  41N    basis set group =>   3
Atom  42C    basis set group =>   1
Atom  43C    basis set group =>   1
Atom  44C    basis set group =>   1
Atom  45C    basis set group =>   1
Atom  46C    basis set group =>   1
Atom  47C    basis set group =>   1
Atom  48C    basis set group =>   1
Atom  49C    basis set group =>   1
Atom  50C    basis set group =>   1
Atom  51C    basis set group =>   1
Atom  52C    basis set group =>   1
Atom  53C    basis set group =>   1
Atom  54C    basis set group =>   1
Atom  55C    basis set group =>   1
Atom  56C    basis set group =>   1
Atom  57C    basis set group =>   1
Atom  58C    basis set group =>   1
Atom  59S    basis set group =>   2
Atom  60C    basis set group =>   1
Atom  61C    basis set group =>   1
Atom  62C    basis set group =>   1
Atom  63C    basis set group =>   1
Atom  64S    basis set group =>   2
Atom  65C    basis set group =>   1
Atom  66H    basis set group =>   4
Atom  67H    basis set group =>   4
Atom  68H    basis set group =>   4
Atom  69H    basis set group =>   4
Atom  70H    basis set group =>   4
Atom  71H    basis set group =>   4
Atom  72H    basis set group =>   4
Atom  73H    basis set group =>   4
Atom  74H    basis set group =>   4
Atom  75H    basis set group =>   4
Atom  76H    basis set group =>   4
Atom  77H    basis set group =>   4
Atom  78H    basis set group =>   4
Atom  79H    basis set group =>   4
Atom  80H    basis set group =>   4
Atom  81H    basis set group =>   4
Atom  82H    basis set group =>   4
Atom  83H    basis set group =>   4
Atom  84H    basis set group =>   4
Atom  85H    basis set group =>   4
Atom  86H    basis set group =>   4
Atom  87H    basis set group =>   4
Atom  88H    basis set group =>   4
Atom  89H    basis set group =>   4
Atom  90H    basis set group =>   4
Atom  91H    basis set group =>   4
Atom  92H    basis set group =>   4
Atom  93H    basis set group =>   4
Atom  94H    basis set group =>   4
Atom  95H    basis set group =>   4
Atom  96H    basis set group =>   4
Atom  97H    basis set group =>   4
Atom  98H    basis set group =>   4
Atom  99H    basis set group =>   4
Atom 100H    basis set group =>   4
Atom 101H    basis set group =>   4
Atom 102H    basis set group =>   4
Atom 103H    basis set group =>   4
Atom 104H    basis set group =>   4
Atom 105H    basis set group =>   4
Atom 106H    basis set group =>   4
Atom 107H    basis set group =>   4
---------------------------------
AUXILIARY/J BASIS SET INFORMATION
---------------------------------
There are 4 groups of distinct atoms

 Group   1 Type C   : 12s5p4d2f1g contracted to 6s4p3d1f1g pattern {711111/2111/211/2/1}
 Group   2 Type S   : 14s5p5d2f1g contracted to 8s4p3d1f1g pattern {71111111/2111/311/2/1}
 Group   3 Type N   : 12s5p4d2f1g contracted to 6s4p3d1f1g pattern {711111/2111/211/2/1}
 Group   4 Type H   : 5s2p1d contracted to 3s1p1d pattern {311/2/1}

Atom   0C    basis set group =>   1
Atom   1C    basis set group =>   1
Atom   2C    basis set group =>   1
Atom   3C    basis set group =>   1
Atom   4C    basis set group =>   1
Atom   5S    basis set group =>   2
Atom   6C    basis set group =>   1
Atom   7C    basis set group =>   1
Atom   8C    basis set group =>   1
Atom   9C    basis set group =>   1
Atom  10S    basis set group =>   2
Atom  11C    basis set group =>   1
Atom  12C    basis set group =>   1
Atom  13C    basis set group =>   1
Atom  14N    basis set group =>   3
Atom  15C    basis set group =>   1
Atom  16C    basis set group =>   1
Atom  17C    basis set group =>   1
Atom  18C    basis set group =>   1
Atom  19C    basis set group =>   1
Atom  20C    basis set group =>   1
Atom  21C    basis set group =>   1
Atom  22C    basis set group =>   1
Atom  23C    basis set group =>   1
Atom  24C    basis set group =>   1
Atom  25C    basis set group =>   1
Atom  26C    basis set group =>   1
Atom  27C    basis set group =>   1
Atom  28C    basis set group =>   1
Atom  29C    basis set group =>   1
Atom  30C    basis set group =>   1
Atom  31C    basis set group =>   1
Atom  32S    basis set group =>   2
Atom  33C    basis set group =>   1
Atom  34C    basis set group =>   1
Atom  35C    basis set group =>   1
Atom  36C    basis set group =>   1
Atom  37S    basis set group =>   2
Atom  38C    basis set group =>   1
Atom  39C    basis set group =>   1
Atom  40C    basis set group =>   1
Atom  41N    basis set group =>   3
Atom  42C    basis set group =>   1
Atom  43C    basis set group =>   1
Atom  44C    basis set group =>   1
Atom  45C    basis set group =>   1
Atom  46C    basis set group =>   1
Atom  47C    basis set group =>   1
Atom  48C    basis set group =>   1
Atom  49C    basis set group =>   1
Atom  50C    basis set group =>   1
Atom  51C    basis set group =>   1
Atom  52C    basis set group =>   1
Atom  53C    basis set group =>   1
Atom  54C    basis set group =>   1
Atom  55C    basis set group =>   1
Atom  56C    basis set group =>   1
Atom  57C    basis set group =>   1
Atom  58C    basis set group =>   1
Atom  59S    basis set group =>   2
Atom  60C    basis set group =>   1
Atom  61C    basis set group =>   1
Atom  62C    basis set group =>   1
Atom  63C    basis set group =>   1
Atom  64S    basis set group =>   2
Atom  65C    basis set group =>   1
Atom  66H    basis set group =>   4
Atom  67H    basis set group =>   4
Atom  68H    basis set group =>   4
Atom  69H    basis set group =>   4
Atom  70H    basis set group =>   4
Atom  71H    basis set group =>   4
Atom  72H    basis set group =>   4
Atom  73H    basis set group =>   4
Atom  74H    basis set group =>   4
Atom  75H    basis set group =>   4
Atom  76H    basis set group =>   4
Atom  77H    basis set group =>   4
Atom  78H    basis set group =>   4
Atom  79H    basis set group =>   4
Atom  80H    basis set group =>   4
Atom  81H    basis set group =>   4
Atom  82H    basis set group =>   4
Atom  83H    basis set group =>   4
Atom  84H    basis set group =>   4
Atom  85H    basis set group =>   4
Atom  86H    basis set group =>   4
Atom  87H    basis set group =>   4
Atom  88H    basis set group =>   4
Atom  89H    basis set group =>   4
Atom  90H    basis set group =>   4
Atom  91H    basis set group =>   4
Atom  92H    basis set group =>   4
Atom  93H    basis set group =>   4
Atom  94H    basis set group =>   4
Atom  95H    basis set group =>   4
Atom  96H    basis set group =>   4
Atom  97H    basis set group =>   4
Atom  98H    basis set group =>   4
Atom  99H    basis set group =>   4
Atom 100H    basis set group =>   4
Atom 101H    basis set group =>   4
Atom 102H    basis set group =>   4
Atom 103H    basis set group =>   4
Atom 104H    basis set group =>   4
Atom 105H    basis set group =>   4
Atom 106H    basis set group =>   4
Atom 107H    basis set group =>   4


           ************************************************************
           *        Program running with 6 parallel MPI-processes     *
           *              working on a common directory               *
           ************************************************************
------------------------------------------------------------------------------
                           ORCA GTO INTEGRAL CALCULATION
                           -- RI-GTO INTEGRALS CHOSEN --
------------------------------------------------------------------------------

                         BASIS SET STATISTICS AND STARTUP INFO

Gaussian basis set:
 # of primitive gaussian shells          ... 1038
 # of primitive gaussian functions       ... 1950
 # of contracted shells                  ...  534
 # of contracted basis functions         ... 1158
 Highest angular momentum                ...    2
 Maximum contraction depth               ...    5
Auxiliary gaussian basis set:
 # of primitive gaussian shells          ... 1938
 # of primitive gaussian functions       ... 5334
 # of contracted shells                  ... 1212
 # of contracted aux-basis functions     ... 3708
 Highest angular momentum                ...    4
 Maximum contraction depth               ...    7
Ratio of auxiliary to basis functions    ...  3.20
Integral package used                  ... LIBINT
 One Electron integrals                  ... done
 Ordering auxiliary basis shells         ... done
 Integral threshhold             Thresh  ...  2.500e-11
 Primitive cut-off               TCut    ...  2.500e-12
 Pre-screening matrix                    ... done
 Shell pair data                         ... 
 Ordering of the shell pairs             ... done (   0.008 sec) 43901 of 142845 pairs
 Determination of significant pairs      ... done (   0.000 sec)
 Creation of shell pair data             ... done (   0.006 sec)
 Storage of shell pair data              ... done (   0.008 sec)
 Shell pair data done in (   0.021 sec)
 Computing two index integrals           ... done
 Cholesky decomposition of the V-matrix  ... done


Timings:
 Total evaluation time                   ...   2.193 sec (  0.037 min)
 One electron matrix time                ...   0.605 sec (  0.010 min) = 27.6%
 Schwartz matrix evaluation time         ...   0.634 sec (  0.011 min) = 28.9%
 Two index repulsion integral time       ...   0.390 sec (  0.007 min) = 17.8%
 Cholesky decomposition of V             ...   0.527 sec (  0.009 min) = 24.0%
 Three index repulsion integral time     ...   0.000 sec (  0.000 min) =  0.0%



           ************************************************************
           *        Program running with 6 parallel MPI-processes     *
           *              working on a common directory               *
           ************************************************************
-------------------------------------------------------------------------------
                                 ORCA SCF
-------------------------------------------------------------------------------

------------
SCF SETTINGS
------------
Hamiltonian:
 Density Functional     Method          .... DFT(GTOs)
 Exchange Functional    Exchange        .... WB88
 Correlation Functional Correlation     .... LYP
 LDA part of GGA corr.  LDAOpt          .... VWN-5
 Gradients option       PostSCFGGA      .... off
 Hybrid DFT is turned on
   Fraction HF Exchange ScalHFX         ....  0.190000
   Scaling of DF-GGA-X  ScalDFX         ....  0.350000
   Scaling of DF-GGA-C  ScalDFC         ....  0.810000
   Scaling of DF-LDA-C  ScalLDAC        ....  1.000000
   Perturbative correction              ....  0.000000
   Density functional embedding theory  .... OFF
 Long-range corrected/Screened/Range-Separated Hybrid DFT is turned on
   Amount of maximum screened exact exchange              ....  0.460000
   Range separation parameter mu (erf(mu*r12)/r12)        ....  0.330000
 RI-approximation to the Coulomb term is turned on
   Number of auxiliary basis functions  .... 3708
   RIJ-COSX (HFX calculated with COS-X)).... on


General Settings:
 Integral files         IntName         .... xtbopt
 Hartree-Fock type      HFTyp           .... RHF
 Total Charge           Charge          ....    0
 Multiplicity           Mult            ....    1
 Number of Electrons    NEL             ....  500
 Basis Dimension        Dim             .... 1158
 Nuclear Repulsion      ENuc            ....   9291.9490399100 Eh

Convergence Acceleration:
 DIIS                   CNVDIIS         .... on
   Start iteration      DIISMaxIt       ....    12
   Startup error        DIISStart       ....  0.200000
   # of expansion vecs  DIISMaxEq       ....     5
   Bias factor          DIISBfac        ....   1.050
   Max. coefficient     DIISMaxC        ....  10.000
 Newton-Raphson         CNVNR           .... off
 SOSCF                  CNVSOSCF        .... on
   Start iteration      SOSCFMaxIt      ....   150
   Startup grad/error   SOSCFStart      ....  0.003300
 Level Shifting         CNVShift        .... on
   Level shift para.    LevelShift      ....    0.2500
   Turn off err/grad.   ShiftErr        ....    0.0010
 Zerner damping         CNVZerner       .... off
 Static damping         CNVDamp         .... on
   Fraction old density DampFac         ....    0.7000
   Max. Damping (<1)    DampMax         ....    0.9800
   Min. Damping (>=0)   DampMin         ....    0.0000
   Turn off err/grad.   DampErr         ....    0.1000
 Fernandez-Rico         CNVRico         .... off

SCF Procedure:
 Maximum # iterations   MaxIter         ....   125
 SCF integral mode      SCFMode         .... Direct
   Integral package                     .... LIBINT
 Reset frequency        DirectResetFreq ....    20
 Integral Threshold     Thresh          ....  2.500e-11 Eh
 Primitive CutOff       TCut            ....  2.500e-12 Eh

Convergence Tolerance:
 Convergence Check Mode ConvCheckMode   .... Total+1el-Energy
 Convergence forced     ConvForced      .... 1
 Energy Change          TolE            ....  1.000e-08 Eh
 1-El. energy change                    ....  1.000e-05 Eh
 Orbital Gradient       TolG            ....  1.000e-05
 Orbital Rotation angle TolX            ....  1.000e-05
 DIIS Error             TolErr          ....  5.000e-07


Diagonalization of the overlap matrix:
Smallest eigenvalue                        ... 1.714e-04
Time for diagonalization                   ...    0.191 sec
Threshold for overlap eigenvalues          ... 1.000e-08
Number of eigenvalues below threshold      ... 0
Time for construction of square roots      ...    0.147 sec
Total time needed                          ...    0.341 sec

-------------------
DFT GRID GENERATION
-------------------

General Integration Accuracy     IntAcc      ...  4.670
Radial Grid Type                 RadialGrid  ... Gauss-Chebyshev
Angular Grid (max. acc.)         AngularGrid ... Lebedev-302
Angular grid pruning method      GridPruning ... 3 (G Style)
Weight generation scheme         WeightScheme... Becke
Basis function cutoff            BFCut       ...    1.0000e-11
Integration weight cutoff        WCut        ...    1.0000e-14
Grids for H and He will be reduced by one unit

# of grid points (after initial pruning)     ... 556344 (   0.0 sec)
# of grid points (after weights+screening)   ... 477903 (   5.7 sec)
nearest neighbour list constructed           ...    0.0 sec
Grid point re-assignment to atoms done       ...    0.1 sec
Grid point division into batches done        ...    1.4 sec
Reduced shell lists constructed in    2.4 sec

Total number of grid points                  ...   477903
Total number of batches                      ...     7524
Average number of points per batch           ...       63
Average number of grid points per atom       ...     4425
Average number of shells per batch           ...   103.29 (19.34%)
Average number of basis functions per batch  ...   212.29 (18.33%)
Average number of large shells per batch     ...    66.70 (64.57%)
Average number of large basis fcns per batch ...   138.95 (65.45%)
Maximum spatial batch extension              ...  16.68, 23.41, 19.51 au
Average spatial batch extension              ...   0.27,  0.26,  0.26 au

Time for grid setup =    8.477 sec

------------------------------
INITIAL GUESS: MODEL POTENTIAL
------------------------------
Loading Hartree-Fock densities                     ... done
Calculating cut-offs                               ... done
Setting up the integral package                    ... done
Initializing the effective Hamiltonian             ... done
Starting the Coulomb interaction                   ... done (   1.2 sec)
Reading the grid                                   ... done
Mapping shells                                     ... done
Starting the XC term evaluation                    ... done (   1.4 sec)
  promolecular density results
     # of electrons  =    499.980134985
     EX              =   -471.998055501
     EC              =    -17.411223059
     EX+EC           =   -489.409278560
Transforming the Hamiltonian                       ... done (   0.1 sec)
Diagonalizing the Hamiltonian                      ... done (   0.2 sec)
Back transforming the eigenvectors                 ... done (   0.1 sec)
Now organizing SCF variables                       ... done
                      ------------------
                      INITIAL GUESS DONE (  11.5 sec)
                      ------------------
--------------------
COSX GRID GENERATION
--------------------

General Integration Accuracy     IntAcc      ...  3.340
Radial Grid Type                 RadialGrid  ... Gauss-Chebyshev
Angular Grid (max. acc.)         AngularGrid ... Lebedev-50
Angular grid pruning method      GridPruning ... 3 (G Style)
Weight generation scheme         WeightScheme... Becke
Basis function cutoff            BFCut       ...    1.0000e-11
Integration weight cutoff        WCut        ...    1.0000e-14
Grids for H and He will be reduced by one unit

# of grid points (after initial pruning)     ...  52448 (   0.0 sec)
# of grid points (after weights+screening)   ...  46942 (   0.5 sec)
nearest neighbour list constructed           ...    0.0 sec
Grid point re-assignment to atoms done       ...    0.0 sec
Grid point division into batches done        ...    0.0 sec
Reduced shell lists constructed in    0.1 sec

Total number of grid points                  ...    46942
Total number of batches                      ...      790
Average number of points per batch           ...       59
Average number of grid points per atom       ...      435
Average number of shells per batch           ...   116.77 (21.87%)
Average number of basis functions per batch  ...   241.82 (20.88%)
Average number of large shells per batch     ...    74.69 (63.97%)
Average number of large basis fcns per batch ...   156.90 (64.88%)
Maximum spatial batch extension              ...  13.51, 14.38, 15.43 au
Average spatial batch extension              ...   0.57,  0.57,  0.50 au

Overlap Fitting                  UseSFitting ... on
Constructing numerical overlap ... done (      0.1 sec)
Inverting numerical overlap    ... done (      0.1 sec)
Obtaining analytic overlap     ... done (      0.0 sec)
Final contraction and storage  ... done (      0.1 sec)


General Integration Accuracy     IntAcc      ...  3.670
Radial Grid Type                 RadialGrid  ... Gauss-Chebyshev
Angular Grid (max. acc.)         AngularGrid ... Lebedev-50
Angular grid pruning method      GridPruning ... 3 (G Style)
Weight generation scheme         WeightScheme... Becke
Basis function cutoff            BFCut       ...    1.0000e-11
Integration weight cutoff        WCut        ...    1.0000e-14
Grids for H and He will be reduced by one unit

# of grid points (after initial pruning)     ...  65892 (   0.0 sec)
# of grid points (after weights+screening)   ...  58763 (   0.6 sec)
nearest neighbour list constructed           ...    0.0 sec
Grid point re-assignment to atoms done       ...    0.0 sec
Grid point division into batches done        ...    0.0 sec
Reduced shell lists constructed in    0.2 sec

Total number of grid points                  ...    58763
Total number of batches                      ...      966
Average number of points per batch           ...       60
Average number of grid points per atom       ...      544
Average number of shells per batch           ...   116.17 (21.76%)
Average number of basis functions per batch  ...   240.49 (20.77%)
Average number of large shells per batch     ...    74.33 (63.99%)
Average number of large basis fcns per batch ...   156.22 (64.96%)
Maximum spatial batch extension              ...  14.47, 17.16, 15.72 au
Average spatial batch extension              ...   0.54,  0.55,  0.49 au

Overlap Fitting                  UseSFitting ... on
Constructing numerical overlap ... done (      0.1 sec)
Inverting numerical overlap    ... done (      0.1 sec)
Obtaining analytic overlap     ... done (      0.0 sec)
Final contraction and storage  ... done (      0.1 sec)


General Integration Accuracy     IntAcc      ...  4.010
Radial Grid Type                 RadialGrid  ... Gauss-Chebyshev
Angular Grid (max. acc.)         AngularGrid ... Lebedev-110
Angular grid pruning method      GridPruning ... 3 (G Style)
Weight generation scheme         WeightScheme... Becke
Basis function cutoff            BFCut       ...    1.0000e-11
Integration weight cutoff        WCut        ...    1.0000e-14
Grids for H and He will be reduced by one unit

# of grid points (after initial pruning)     ... 125928 (   0.0 sec)
# of grid points (after weights+screening)   ... 111334 (   1.3 sec)
nearest neighbour list constructed           ...    0.0 sec
Grid point re-assignment to atoms done       ...    0.0 sec
Grid point division into batches done        ...    0.1 sec
Reduced shell lists constructed in    0.3 sec

Total number of grid points                  ...   111334
Total number of batches                      ...     1794
Average number of points per batch           ...       62
Average number of grid points per atom       ...     1031
Average number of shells per batch           ...   111.56 (20.89%)
Average number of basis functions per batch  ...   230.87 (19.94%)
Average number of large shells per batch     ...    72.09 (64.62%)
Average number of large basis fcns per batch ...   151.15 (65.47%)
Maximum spatial batch extension              ...  14.18, 18.58, 16.93 au
Average spatial batch extension              ...   0.45,  0.46,  0.41 au

Overlap Fitting                  UseSFitting ... on
Constructing numerical overlap ... done (      0.1 sec)
Inverting numerical overlap    ... done (      0.1 sec)
Obtaining analytic overlap     ... done (      0.0 sec)
Final contraction and storage  ... done (      0.1 sec)

Time for X-Grid setup             =    4.169 sec
--------------
SCF ITERATIONS
--------------
ITER       Energy         Delta-E        Max-DP      RMS-DP      [F,P]     Damp
               ***  Starting incremental Fock matrix formation  ***
  0  -4729.0921296707   0.000000000000 0.06756527  0.00081196  0.1544761 0.7000
  1  -4729.5765631055  -0.484433434833 0.04381688  0.00059727  0.0888017 0.7000
                               ***Turning on DIIS***
  2  -4729.8179238992  -0.241360793729 0.08072671  0.00119099  0.0418666 0.0000
  3  -4730.1875236866  -0.369599787313 0.03674181  0.00042348  0.0406934 0.0000
  4  -4730.2624263465  -0.074902659931 0.00594531  0.00011292  0.0072197 0.0000
  5  -4730.2661277449  -0.003701398377 0.00416822  0.00005649  0.0040092 0.0000
  6  -4730.2671849169  -0.001057172027 0.00198547  0.00003422  0.0014156 0.0000
                      *** Initiating the SOSCF procedure ***
                           *** Shutting down DIIS ***
                      *** Re-Reading the Fockian *** 
                      *** Removing any level shift *** 
ITER      Energy       Delta-E        Grad      Rot      Max-DP    RMS-DP
  7  -4730.26763863  -0.0004537161  0.002612  0.002612  0.002967  0.000045
               *** Restarting incremental Fock matrix formation ***
  8  -4730.26788991  -0.0002512793  0.000642  0.003185  0.001474  0.000017
  9  -4730.26791681  -0.0000268941  0.000260  0.002336  0.000746  0.000010
 10  -4730.26793341  -0.0000166047  0.000069  0.000249  0.000313  0.000004
 11  -4730.26793318   0.0000002303  0.000078  0.000164  0.000165  0.000002
 12  -4730.26793427  -0.0000010878  0.000010  0.000038  0.000036  0.000000
 13  -4730.26793426   0.0000000069  0.000011  0.000025  0.000025  0.000000
                  ***Gradient check signals convergence***
              ***Rediagonalizing the Fockian in SOSCF/NRSCF***

               *****************************************************
               *                     SUCCESS                       *
               *           SCF CONVERGED AFTER  14 CYCLES          *
               *****************************************************

Setting up the final grid:

General Integration Accuracy     IntAcc      ...  5.010
Radial Grid Type                 RadialGrid  ... Gauss-Chebyshev
Angular Grid (max. acc.)         AngularGrid ... Lebedev-434
Angular grid pruning method      GridPruning ... 3 (G Style)
Weight generation scheme         WeightScheme... Becke
Basis function cutoff            BFCut       ...    1.0000e-11
Integration weight cutoff        WCut        ...    1.0000e-14
Grids for H and He will be reduced by one unit

# of grid points (after initial pruning)     ... 993168 (   0.1 sec)
# of grid points (after weights+screening)   ... 850675 (   9.8 sec)
nearest neighbour list constructed           ...    0.0 sec
Grid point re-assignment to atoms done       ...    0.1 sec
Grid point division into batches done        ...    4.5 sec
Reduced shell lists constructed in    6.2 sec

Total number of grid points                  ...   850675
Total number of batches                      ...    13346
Average number of points per batch           ...       63
Average number of grid points per atom       ...     7877
Average number of shells per batch           ...   100.92 (18.90%)
Average number of basis functions per batch  ...   207.00 (17.88%)
Average number of large shells per batch     ...    65.23 (64.64%)
Average number of large basis fcns per batch ...   135.62 (65.52%)
Maximum spatial batch extension              ...  17.86, 19.07, 19.57 au
Average spatial batch extension              ...   0.21,  0.21,  0.21 au

Final grid set up in   16.7 sec
Final integration                            ... done (   2.7 sec)
Change in XC energy                          ...    -0.000004089
Integrated number of electrons               ...   499.999928719
Previous integrated no of electrons          ...   500.000269896
Old exchange energy                            =   -130.173748871 Eh
New exchange energy                            =   -130.171785991 Eh
Exchange energy change after final integration =      0.001962881 Eh
Total energy after final integration           =  -4730.265975471 Eh
Final COS-X integration done in                =    53.410 sec

----------------
TOTAL SCF ENERGY
----------------

Total Energy       :        -4730.26597547 Eh         -128717.08104 eV

Components:
Nuclear Repulsion  :         9291.94903991 Eh          252846.78786 eV
Electronic Energy  :       -14022.21501538 Eh         -381563.86890 eV
One Electron Energy:       -24979.95465643 Eh         -679739.12347 eV
Two Electron Energy:        10957.73964105 Eh          298175.25457 eV

Virial components:
Potential Energy   :        -9431.57088889 Eh         -256646.09152 eV
Kinetic Energy     :         4701.30491342 Eh          127929.01048 eV
Virial Ratio       :            2.00616022


DFT components:
N(Alpha)           :      249.999964359289 electrons
N(Beta)            :      249.999964359289 electrons
N(Total)           :      499.999928718578 electrons
E(XC)              :     -367.209261163074 Eh       
DFET-embed. en.    :        0.000000000000 Eh       

---------------
SCF CONVERGENCE
---------------

  Last Energy change         ...   -8.3128e-10  Tolerance :   1.0000e-08
  Last MAX-Density change    ...    7.5495e-15  Tolerance :   1.0000e-07
  Last RMS-Density change    ...    3.5989e-17  Tolerance :   5.0000e-09
  Last Orbital Gradient      ...    1.8229e-06  Tolerance :   1.0000e-05
  Last Orbital Rotation      ...    5.8988e-06  Tolerance :   1.0000e-05

             **** THE GBW FILE WAS UPDATED (xtbopt.gbw) ****
             **** DENSITY FILE WAS UPDATED (xtbopt.scfp) ****
             **** ENERGY FILE WAS UPDATED (xtbopt.en.tmp) ****
             **** THE GBW FILE WAS UPDATED (xtbopt.gbw) ****
             **** DENSITY FILE WAS UPDATED (xtbopt.scfp) ****
----------------
ORBITAL ENERGIES
----------------

  NO   OCC          E(Eh)            E(eV) 
   0   2.0000     -88.935490     -2420.0577 
   1   2.0000     -88.932371     -2419.9728 
   2   2.0000     -88.931643     -2419.9530 
   3   2.0000     -88.931371     -2419.9456 
   4   2.0000     -88.931281     -2419.9432 
   5   2.0000     -88.928356     -2419.8636 
   6   2.0000     -14.445599      -393.0847 
   7   2.0000     -14.441686      -392.9783 
   8   2.0000     -10.305009      -280.4136 
   9   2.0000     -10.303607      -280.3754 
  10   2.0000     -10.302248      -280.3384 
  11   2.0000     -10.301823      -280.3269 
  12   2.0000     -10.301055      -280.3059 
  13   2.0000     -10.299470      -280.2628 
  14   2.0000     -10.299411      -280.2612 
  15   2.0000     -10.298881      -280.2468 
  16   2.0000     -10.297759      -280.2163 
  17   2.0000     -10.297664      -280.2137 
  18   2.0000     -10.297484      -280.2088 
  19   2.0000     -10.297295      -280.2036 
  20   2.0000     -10.297236      -280.2020 
  21   2.0000     -10.296751      -280.1888 
  22   2.0000     -10.296520      -280.1825 
  23   2.0000     -10.296306      -280.1767 
  24   2.0000     -10.295317      -280.1498 
  25   2.0000     -10.294652      -280.1317 
  26   2.0000     -10.285809      -279.8911 
  27   2.0000     -10.285270      -279.8764 
  28   2.0000     -10.281662      -279.7782 
  29   2.0000     -10.281359      -279.7700 
  30   2.0000     -10.280026      -279.7337 
  31   2.0000     -10.279780      -279.7270 
  32   2.0000     -10.278033      -279.6795 
  33   2.0000     -10.277498      -279.6649 
  34   2.0000     -10.277169      -279.6560 
  35   2.0000     -10.275988      -279.6239 
  36   2.0000     -10.275560      -279.6122 
  37   2.0000     -10.275425      -279.6085 
  38   2.0000     -10.274422      -279.5812 
  39   2.0000     -10.272405      -279.5263 
  40   2.0000     -10.271578      -279.5039 
  41   2.0000     -10.271250      -279.4949 
  42   2.0000     -10.270404      -279.4719 
  43   2.0000     -10.270084      -279.4632 
  44   2.0000     -10.269574      -279.4493 
  45   2.0000     -10.269436      -279.4456 
  46   2.0000     -10.266376      -279.3623 
  47   2.0000     -10.264189      -279.3028 
  48   2.0000     -10.260540      -279.2035 
  49   2.0000     -10.258767      -279.1553 
  50   2.0000     -10.258009      -279.1346 
  51   2.0000     -10.257903      -279.1317 
  52   2.0000     -10.256974      -279.1065 
  53   2.0000     -10.256643      -279.0974 
  54   2.0000     -10.255629      -279.0698 
  55   2.0000     -10.254732      -279.0455 
  56   2.0000     -10.254119      -279.0288 
  57   2.0000     -10.253890      -279.0225 
  58   2.0000     -10.253511      -279.0122 
  59   2.0000     -10.253381      -279.0087 
  60   2.0000     -10.252995      -278.9982 
  61   2.0000     -10.252673      -278.9894 
  62   2.0000     -10.250075      -278.9187 
  63   2.0000     -10.249663      -278.9075 
  64   2.0000     -10.249425      -278.9010 
  65   2.0000     -10.247979      -278.8617 
  66   2.0000      -8.030834      -218.5301 
  67   2.0000      -8.028318      -218.4616 
  68   2.0000      -8.028317      -218.4616 
  69   2.0000      -8.027239      -218.4323 
  70   2.0000      -8.027191      -218.4310 
  71   2.0000      -8.024981      -218.3708 
  72   2.0000      -6.000736      -163.2883 
  73   2.0000      -5.998180      -163.2188 
  74   2.0000      -5.998164      -163.2183 
  75   2.0000      -5.997110      -163.1897 
  76   2.0000      -5.997060      -163.1883 
  77   2.0000      -5.996757      -163.1801 
  78   2.0000      -5.994848      -163.1281 
  79   2.0000      -5.994284      -163.1128 
  80   2.0000      -5.994163      -163.1095 
  81   2.0000      -5.992988      -163.0775 
  82   2.0000      -5.992968      -163.0770 
  83   2.0000      -5.991457      -163.0358 
  84   2.0000      -5.990933      -163.0216 
  85   2.0000      -5.988964      -162.9680 
  86   2.0000      -5.988744      -162.9620 
  87   2.0000      -5.987942      -162.9402 
  88   2.0000      -5.987920      -162.9396 
  89   2.0000      -5.985447      -162.8723 
  90   2.0000      -1.072834       -29.1933 
  91   2.0000      -1.070731       -29.1361 
  92   2.0000      -0.985400       -26.8141 
  93   2.0000      -0.982103       -26.7244 
  94   2.0000      -0.981847       -26.7174 
  95   2.0000      -0.963059       -26.2062 
  96   2.0000      -0.960994       -26.1500 
  97   2.0000      -0.959740       -26.1159 
  98   2.0000      -0.936328       -25.4788 
  99   2.0000      -0.935057       -25.4442 
 100   2.0000      -0.934850       -25.4386 
 101   2.0000      -0.932821       -25.3834 
 102   2.0000      -0.897501       -24.4222 
 103   2.0000      -0.893591       -24.3158 
 104   2.0000      -0.880237       -23.9525 
 105   2.0000      -0.874597       -23.7990 
 106   2.0000      -0.867734       -23.6122 
 107   2.0000      -0.858878       -23.3713 
 108   2.0000      -0.853833       -23.2340 
 109   2.0000      -0.853713       -23.2307 
 110   2.0000      -0.842588       -22.9280 
 111   2.0000      -0.839447       -22.8425 
 112   2.0000      -0.835842       -22.7444 
 113   2.0000      -0.828609       -22.5476 
 114   2.0000      -0.826124       -22.4800 
 115   2.0000      -0.824794       -22.4438 
 116   2.0000      -0.819975       -22.3126 
 117   2.0000      -0.811814       -22.0906 
 118   2.0000      -0.810840       -22.0641 
 119   2.0000      -0.808156       -21.9910 
 120   2.0000      -0.799895       -21.7662 
 121   2.0000      -0.794061       -21.6075 
 122   2.0000      -0.793038       -21.5797 
 123   2.0000      -0.788057       -21.4441 
 124   2.0000      -0.767284       -20.8789 
 125   2.0000      -0.765840       -20.8396 
 126   2.0000      -0.762975       -20.7616 
 127   2.0000      -0.738944       -20.1077 
 128   2.0000      -0.731865       -19.9151 
 129   2.0000      -0.714975       -19.4555 
 130   2.0000      -0.709269       -19.3002 
 131   2.0000      -0.705330       -19.1930 
 132   2.0000      -0.696326       -18.9480 
 133   2.0000      -0.692563       -18.8456 
 134   2.0000      -0.687715       -18.7137 
 135   2.0000      -0.684979       -18.6392 
 136   2.0000      -0.675754       -18.3882 
 137   2.0000      -0.673947       -18.3390 
 138   2.0000      -0.672789       -18.3075 
 139   2.0000      -0.650437       -17.6993 
 140   2.0000      -0.648917       -17.6579 
 141   2.0000      -0.646504       -17.5923 
 142   2.0000      -0.642652       -17.4874 
 143   2.0000      -0.631163       -17.1748 
 144   2.0000      -0.624928       -17.0052 
 145   2.0000      -0.617952       -16.8153 
 146   2.0000      -0.614086       -16.7101 
 147   2.0000      -0.611970       -16.6525 
 148   2.0000      -0.611066       -16.6279 
 149   2.0000      -0.602727       -16.4010 
 150   2.0000      -0.599920       -16.3246 
 151   2.0000      -0.594582       -16.1794 
 152   2.0000      -0.593500       -16.1499 
 153   2.0000      -0.591048       -16.0832 
 154   2.0000      -0.590280       -16.0623 
 155   2.0000      -0.588845       -16.0233 
 156   2.0000      -0.587014       -15.9735 
 157   2.0000      -0.583619       -15.8811 
 158   2.0000      -0.578895       -15.7525 
 159   2.0000      -0.564997       -15.3744 
 160   2.0000      -0.560001       -15.2384 
 161   2.0000      -0.546164       -14.8619 
 162   2.0000      -0.544963       -14.8292 
 163   2.0000      -0.542867       -14.7722 
 164   2.0000      -0.542320       -14.7573 
 165   2.0000      -0.541050       -14.7227 
 166   2.0000      -0.539867       -14.6905 
 167   2.0000      -0.534773       -14.5519 
 168   2.0000      -0.530890       -14.4462 
 169   2.0000      -0.524471       -14.2716 
 170   2.0000      -0.521690       -14.1959 
 171   2.0000      -0.517897       -14.0927 
 172   2.0000      -0.513029       -13.9602 
 173   2.0000      -0.510275       -13.8853 
 174   2.0000      -0.506764       -13.7898 
 175   2.0000      -0.504263       -13.7217 
 176   2.0000      -0.501584       -13.6488 
 177   2.0000      -0.501342       -13.6422 
 178   2.0000      -0.498678       -13.5697 
 179   2.0000      -0.497148       -13.5281 
 180   2.0000      -0.496605       -13.5133 
 181   2.0000      -0.491964       -13.3870 
 182   2.0000      -0.490319       -13.3423 
 183   2.0000      -0.487655       -13.2698 
 184   2.0000      -0.486520       -13.2389 
 185   2.0000      -0.485315       -13.2061 
 186   2.0000      -0.484597       -13.1866 
 187   2.0000      -0.483093       -13.1456 
 188   2.0000      -0.481580       -13.1044 
 189   2.0000      -0.477669       -12.9980 
 190   2.0000      -0.477272       -12.9872 
 191   2.0000      -0.476186       -12.9577 
 192   2.0000      -0.473085       -12.8733 
 193   2.0000      -0.472337       -12.8529 
 194   2.0000      -0.469454       -12.7745 
 195   2.0000      -0.464231       -12.6324 
 196   2.0000      -0.457755       -12.4562 
 197   2.0000      -0.455220       -12.3872 
 198   2.0000      -0.453490       -12.3401 
 199   2.0000      -0.450837       -12.2679 
 200   2.0000      -0.449395       -12.2287 
 201   2.0000      -0.448466       -12.2034 
 202   2.0000      -0.447462       -12.1761 
 203   2.0000      -0.443898       -12.0791 
 204   2.0000      -0.438107       -11.9215 
 205   2.0000      -0.435319       -11.8456 
 206   2.0000      -0.431919       -11.7531 
 207   2.0000      -0.430508       -11.7147 
 208   2.0000      -0.430097       -11.7035 
 209   2.0000      -0.426581       -11.6079 
 210   2.0000      -0.424662       -11.5556 
 211   2.0000      -0.422902       -11.5078 
 212   2.0000      -0.420608       -11.4453 
 213   2.0000      -0.418246       -11.3811 
 214   2.0000      -0.416757       -11.3405 
 215   2.0000      -0.415038       -11.2938 
[...]
   1      2.99     415.3    81 ->  83      gap,J,K:    4.163     1.264     0.043
   2      3.07     404.2    81 ->  84      gap,J,K:    4.189     1.172     0.025
   3      3.15     393.4    80 ->  82      gap,J,K:    4.308     1.262     0.053
   4      3.18     389.8    80 ->  83      gap,J,K:    4.430     2.603     0.677
   5      3.41     363.6    79 ->  82      gap,J,K:    4.574     1.237     0.037
   6      3.54     350.0    79 ->  84      gap,J,K:    4.721     2.797     0.809
   7      3.61     343.0    78 ->  82      gap,J,K:    5.276     1.965     0.152
   8      3.80     326.7    80 ->  84      gap,J,K:    4.455     0.668     0.004
   9      3.84     322.6    81 ->  85      gap,J,K:    5.508     2.119     0.227
  10      3.99     310.4    77 ->  82      gap,J,K:    5.594     1.808     0.104
  11      4.03     307.9    78 ->  84      gap,J,K:    5.424     1.428     0.015
  12      4.10     302.6    76 ->  82      gap,J,K:    5.723     1.781     0.078
  13      4.10     302.3    79 ->  83      gap,J,K:    4.695     0.596     0.001
  14      4.17     297.0    75 ->  82      gap,J,K:    5.789     1.807     0.096
  15      4.29     288.8    78 ->  83      gap,J,K:    5.398     1.195     0.045
  16      4.33     286.4    81 ->  86      gap,J,K:    5.786     1.633     0.088
  17      4.46     278.1    77 ->  83      gap,J,K:    5.715     1.456     0.100
  18      4.47     277.3    80 ->  85      gap,J,K:    5.775     1.428     0.062
  19      4.49     276.2    75 ->  83      gap,J,K:    5.910     1.522     0.050
  20      4.51     274.8    77 ->  84      gap,J,K:    5.741     1.256     0.013
  21      4.54     273.1    76 ->  84      gap,J,K:    5.871     1.354     0.011
  22      4.60     269.5    81 ->  87      gap,J,K:    6.001     1.590     0.095
  23      4.62     268.4    80 ->  86      gap,J,K:    6.053     1.836     0.202
  24      4.69     264.1    76 ->  83      gap,J,K:    5.845     1.291     0.070

average / max PT2 energy lowering (eV):       0.039       0.141

CSF included by PT:                   188 
total number of CSF included:         219 
 
sTD-DFT procedure...
setting up A+B and A-B matrices...  done
estimated time (min):    0.000
calculating (A-B)^0.5 ... done
calculating (A+B)*(A-B)^0.5 ... done
calculating (A-B)^0.5 *(A+B)*(A-B)^0.5 ... done
diagonalizing ...using LAPACKE_ssyevr ...done

   38 roots found, lowest/highest eigenvalue :     2.235     4.984

excitation energies, transition moments and amplitudes

molecular weight:  959.348
state   eV        nm        fL         fV        Rl        RV
   0   2.235     554.7   1.823504   2.259637  -929.672171  -906.984829     0.92 (  81->  82)    0.03 (  80->  83)    0.01 (  81->  84)
   1   2.625     472.4   1.124853   1.305298  879.527407  808.018748     0.69 (  80->  83)    0.24 (  81->  83)    0.03 (  81->  82)
   2   2.896     428.2   0.376486   0.408007  -388.604527  -389.571523     0.54 (  81->  84)    0.32 (  79->  84)    0.04 (  78->  84)
   3   2.959     419.0   0.086193   0.101706  144.498180  139.905703     0.66 (  81->  83)    0.25 (  80->  83)    0.03 (  78->  83)
   4   3.003     412.9   0.414281   0.436753  -498.757952  -468.264871     0.36 (  80->  82)    0.27 (  79->  84)    0.20 (  81->  84)
   5   3.018     410.8   0.326462   0.356954  511.529160  538.737414     0.46 (  80->  82)    0.33 (  79->  84)    0.11 (  81->  84)
   6   3.331     372.2   0.042591   0.044507  69.651724  62.922247     0.70 (  79->  82)    0.17 (  78->  82)    0.04 (  79->  84)
   7   3.416     362.9   0.025844   0.020528  20.112736  19.167352     0.44 (  78->  82)    0.25 (  81->  85)    0.18 (  79->  82)
   8   3.542     350.0   0.280735   0.285992  171.873540  181.148952     0.52 (  81->  85)    0.22 (  78->  82)    0.06 (  77->  82)
   9   3.691     335.9   0.045802   0.041835  -107.506417  -102.201401     0.53 (  78->  84)    0.19 (  77->  84)    0.10 (  81->  84)
  10   3.765     329.3   0.018431   0.013066  -11.183767  -13.850406     0.28 (  77->  83)    0.19 (  78->  83)    0.14 (  80->  86)
  11   3.786     327.5   0.092614   0.086557  28.191914  25.285624     0.35 (  77->  82)    0.09 (  78->  83)    0.09 (  75->  82)
  12   3.846     322.4   0.042830   0.038585  -156.101852  -146.446686     0.26 (  77->  82)    0.25 (  80->  84)    0.08 (  81->  86)
  13   3.855     321.6   0.006038   0.005558  -21.689981  -19.103305     0.58 (  80->  84)    0.08 (  77->  82)    0.07 (  77->  84)
  14   3.891     318.6   0.010073   0.009522  -43.909626  -43.214148     0.26 (  75->  82)    0.20 (  76->  82)    0.08 (  81->  87)
  15   3.948     314.0   0.090943   0.084470  -133.804115  -126.944916     0.52 (  76->  82)    0.15 (  75->  82)    0.06 (  75->  83)
  16   4.002     309.8   0.011483   0.011794  54.048488  52.240558     0.53 (  76->  84)    0.23 (  75->  84)    0.10 (  77->  84)
  17   4.104     302.1   0.000941   0.000840  -0.095788   0.464577     0.98 (  79->  83)    0.01 (  75->  83)    0.00 (  77->  83)
  18   4.111     301.6   0.187191   0.175587  101.685307  74.028197     0.30 (  75->  83)    0.23 (  76->  83)    0.15 (  80->  86)
  19   4.154     298.4   0.149590   0.136091  50.002475  42.297543     0.34 (  75->  82)    0.25 (  81->  86)    0.11 (  81->  87)
  20   4.280     289.7   0.008542   0.007170  -51.750719  -37.967323     0.26 (  81->  87)    0.17 (  81->  89)    0.07 (  81->  86)
  21   4.334     286.1   0.011598   0.009041  -25.429549  -15.297406     0.34 (  79->  87)    0.14 (  79->  86)    0.11 (  79->  85)
  22   4.350     285.0   0.019132   0.016818   9.578534   4.248885     0.24 (  71->  82)    0.15 (  74->  82)    0.06 (  80->  85)
  23   4.373     283.5   0.054970   0.044327  43.364679  25.197983     0.20 (  80->  85)    0.11 (  80->  89)    0.11 (  71->  82)
  24   4.498     275.7   0.009344   0.006276   3.029180  -1.635459     0.21 (  81->  93)    0.14 (  81->  92)    0.11 (  81->  94)
  25   4.560     271.9   0.070253   0.051753  -127.909809  -105.575564     0.22 (  73->  83)    0.14 (  70->  83)    0.14 (  74->  83)
  26   4.565     271.6   0.007506   0.004401  73.804524  55.538867     0.33 (  79->  88)    0.20 (  79->  85)    0.07 (  79->  86)
  27   4.647     266.8   0.012901   0.014149  -24.200301  -14.274105     0.27 (  80->  92)    0.12 (  80->  85)    0.11 (  80->  91)
  28   4.665     265.7   0.012371   0.010452  31.377329  29.060230     0.38 (  78->  83)    0.23 (  77->  83)    0.11 (  73->  83)
  29   4.681     264.9   0.092119   0.074658  124.820630  111.035841     0.55 (  72->  84)    0.10 (  68->  84)    0.08 (  67->  84)
  30   4.738     261.7   0.067213   0.062874  61.861047  64.938996     0.17 (  71->  82)    0.14 (  74->  82)    0.12 (  78->  85)
  31   4.749     261.1   0.040912   0.032076  -29.543686  -30.257062     0.21 (  81->  88)    0.14 (  81->  89)    0.09 (  81->  94)
  32   4.786     259.0   0.017265   0.014810  -5.526548  -6.146957     0.33 (  77->  84)    0.27 (  78->  84)    0.11 (  74->  84)
  33   4.828     256.8   0.168318   0.141385  152.309529  137.132795     0.09 (  80->  89)    0.09 (  80->  86)    0.08 (  81->  87)
  34   4.880     254.0   0.056359   0.050719  -41.935348  -28.122202     0.11 (  80->  86)    0.09 (  80->  85)    0.08 (  80->  89)
  35   4.932     251.4   0.098538   0.081427  -53.560231  -45.800583     0.20 (  68->  82)    0.14 (  81->  88)    0.10 (  81->  87)
  36   4.975     249.2   0.092283   0.075534  -89.827701  -95.784672     0.18 (  81->  89)    0.09 (  78->  85)    0.05 (  81->  87)
  37   4.984     248.8   0.030612   0.026481  145.823247  133.700033     0.09 (  66->  83)    0.09 (  81->  88)    0.08 (  77->  85)

-----------------------------------------------------------------------------
         ABSORPTION SPECTRUM VIA TRANSITION ELECTRIC DIPOLE MOMENTS
-----------------------------------------------------------------------------
State   Energy  Wavelength   fosc         T2         TX        TY        TZ  
        (cm-1)    (nm)                  (au**2)     (au)      (au)      (au) 
-----------------------------------------------------------------------------
   0   18027.7    554.7   1.823503685  33.29975  -3.28531  -3.44150  -3.26536
   1   21168.0    472.4   1.124852533  17.49407  -3.81681   0.02807   1.71033
   2   23354.6    428.2   0.376485570   5.30703  -0.33966   0.77700   2.14195
   3   23867.5    419.0   0.086192693   1.18888   0.96558  -0.41817  -0.28576
   4   24216.9    412.9   0.414281332   5.63187   0.42112  -1.33157  -1.91871
   5   24343.6    410.8   0.326461888   4.41492  -0.28010   0.04017   2.08203
   6   26870.1    372.2   0.042591028   0.52182  -0.01544  -0.31388   0.65043
   7   27552.2    362.9   0.025844370   0.30881   0.05195  -0.19513   0.51772
   8   28568.8    350.0   0.280734533   3.23504   0.34596  -1.19913   1.29516
   9   29769.2    335.9   0.045802288   0.50652  -0.48669   0.51925   0.00526
  10   30366.4    329.3   0.018430531   0.19981  -0.14221   0.42285  -0.02807
  11   30532.6    327.5   0.092614273   0.99860   0.48860  -0.86505   0.10753
  12   31021.2    322.4   0.042830110   0.45453  -0.32620   0.42154  -0.41284
  13   31095.5    321.6   0.006037917   0.06392  -0.02334   0.03592  -0.24918
  14   31386.3    318.6   0.010072632   0.10565   0.15176  -0.01990   0.28675
  15   31843.1    314.0   0.090943392   0.94022  -0.04762   0.91331  -0.32222
  16   32280.8    309.8   0.011483331   0.11711   0.10423  -0.09308  -0.31238
  17   33098.8    302.1   0.000941228   0.00936  -0.09184   0.02239  -0.02064
  18   33158.7    301.6   0.187190840   1.85850   0.75291  -1.06259   0.40316
  19   33507.8    298.4   0.149590496   1.46971  -0.96660  -0.47896  -0.55317
  20   34523.0    289.7   0.008542227   0.08146   0.00935  -0.28523  -0.00385
  21   34958.4    286.1   0.011597612   0.10922  -0.02990   0.02729  -0.32799
  22   35085.2    285.0   0.019132045   0.17952   0.26403   0.33129   0.00728
  23   35270.7    283.5   0.054970271   0.51308  -0.59075   0.13080  -0.38340
  24   36274.9    275.7   0.009343670   0.08480   0.02959  -0.24542  -0.15391
  25   36777.0    271.9   0.070252747   0.62887  -0.00926   0.75774  -0.23370
  26   36816.4    271.6   0.007505896   0.06712  -0.25212  -0.03179   0.05043
  27   37479.4    266.8   0.012900943   0.11332   0.31483   0.09946   0.06566
  28   37629.4    265.7   0.012371031   0.10823  -0.31848  -0.03075  -0.07652
  29   37755.5    264.9   0.092118710   0.80324  -0.82484   0.17692  -0.30260
  30   38216.1    261.7   0.067212789   0.57900   0.17585  -0.66524   0.32487
  31   38303.6    261.1   0.040911944   0.35163   0.55301  -0.02621   0.21242
  32   38604.0    259.0   0.017265392   0.14724  -0.17304   0.24277  -0.24158
  33   38940.7    256.8   0.168317699   1.42299  -0.03600  -1.02275   0.61293
  34   39362.8    254.0   0.056359007   0.47136   0.54490   0.32250   0.26539
  35   39780.8    251.4   0.098538071   0.81547   0.42273   0.71478   0.35476
  36   40124.6    249.2   0.092282674   0.75716  -0.55439  -0.65242  -0.15541
  37   40194.7    248.8   0.030611885   0.25072  -0.45934   0.19932  -0.00163

-----------------------------------------------------------------------------
         ABSORPTION SPECTRUM VIA TRANSITION VELOCITY DIPOLE MOMENTS
-----------------------------------------------------------------------------
State   Energy  Wavelength   fosc         P2         PX        PY        PZ  
        (cm-1)    (nm)                  (au**2)     (au)      (au)      (au) 
-----------------------------------------------------------------------------
   0   18027.7    554.7   2.259637358   0.27841  -0.29723  -0.31594  -0.30041
   1   21168.0    472.4   1.305297941   0.18884  -0.39471   0.00594   0.18169
   2   23354.6    428.2   0.408007367   0.06512  -0.04016   0.08642   0.23673
   3   23867.5    419.0   0.101705626   0.01659   0.11525  -0.04600  -0.03451
   4   24216.9    412.9   0.436753156   0.07229   0.04856  -0.14839  -0.21888
   5   24343.6    410.8   0.356954139   0.05939  -0.03462   0.00575   0.24116
   6   26870.1    372.2   0.044507080   0.00817  -0.00246  -0.03451   0.08352
   7   27552.2    362.9   0.020527744   0.00387   0.00464  -0.02025   0.05860
   8   28568.8    350.0   0.285991591   0.05584   0.04506  -0.15836   0.16951
   9   29769.2    335.9   0.041835213   0.00851  -0.06247   0.06782   0.00315
  10   30366.4    329.3   0.013066186   0.00271  -0.01807   0.04878  -0.00233
  11   30532.6    327.5   0.086556830   0.01806   0.06541  -0.11664   0.01338
  12   31021.2    322.4   0.038585450   0.00818  -0.04202   0.05675  -0.05652
  13   31095.5    321.6   0.005557806   0.00118  -0.00252   0.00566  -0.03380
  14   31386.3    318.6   0.009521537   0.00204   0.02099  -0.00148   0.04000
  15   31843.1    314.0   0.084470297   0.01838  -0.00621   0.12784  -0.04473
  16   32280.8    309.8   0.011793519   0.00260   0.01354  -0.01307  -0.04741
  17   33098.8    302.1   0.000839719   0.00019  -0.01278   0.00365  -0.00365
  18   33158.7    301.6   0.175587131   0.03979   0.11213  -0.15472   0.05728
  19   33507.8    298.4   0.136090891   0.03117  -0.14154  -0.06932  -0.07955
  20   34523.0    289.7   0.007170492   0.00169   0.00398  -0.04074  -0.00402
  21   34958.4    286.1   0.009040518   0.00216   0.00428  -0.00125  -0.04626
  22   35085.2    285.0   0.016818157   0.00403   0.03703   0.05159  -0.00048
  23   35270.7    283.5   0.044327386   0.01069  -0.08646   0.01426  -0.05484
  24   36274.9    275.7   0.006276046   0.00156   0.00102  -0.03374  -0.02042
  25   36777.0    271.9   0.051752800   0.01301   0.00034   0.10937  -0.03233
  26   36816.4    271.6   0.004401198   0.00111  -0.03141  -0.00814   0.00739
  27   37479.4    266.8   0.014149305   0.00362   0.05568   0.01619   0.01620
  28   37629.4    265.7   0.010452440   0.00269  -0.04986  -0.00633  -0.01274
  29   37755.5    264.9   0.074657975   0.01926  -0.12879   0.02692  -0.04419
  30   38216.1    261.7   0.062874174   0.01642   0.02679  -0.11239   0.05543
  31   38303.6    261.1   0.032076119   0.00840   0.08605  -0.00517   0.03108
  32   38604.0    259.0   0.014809788   0.00391  -0.02865   0.03893  -0.03964
  33   38940.7    256.8   0.141384971   0.03763  -0.00619  -0.16447   0.10267
  34   39362.8    254.0   0.050718616   0.01364   0.09300   0.05273   0.04707
  35   39780.8    251.4   0.081427318   0.02214   0.06847   0.11844   0.05850
  36   40124.6    249.2   0.075534067   0.02071  -0.09152  -0.10870  -0.02287
  37   40194.7    248.8   0.026481214   0.00727  -0.07775   0.03505   0.00115

-------------------------------------------------------------------
                             CD SPECTRUM
-------------------------------------------------------------------
State   Energy Wavelength       R         MX        MY        MZ   
        (cm-1)   (nm)       (1e40*cgs)   (au)      (au)      (au)  
-------------------------------------------------------------------
   0   18027.7    554.7    -929.67217  -8.50295  -6.08663  13.76204
   1   21168.0    472.4    879.52741   7.41562  -4.72783  14.44486
   2   23354.6    428.2    -388.60453   3.83607   6.74025  -1.06708
   3   23867.5    419.0    144.49818  -1.24425   1.72797  -4.58780
   4   24216.9    412.9    -498.75795  -4.07423  -5.71459   1.96890
   5   24343.6    410.8    511.52916   4.44024   6.84044  -0.57690
   6   26870.1    372.2     69.65172   2.57551   1.12303   0.14879
   7   27552.2    362.9     20.11274   1.65058   0.81502  -0.02326
   8   28568.8    350.0    171.87354   5.18892   2.42918   0.30005
   9   29769.2    335.9    -107.50642  -0.19768   0.69528  -0.22013
  10   30366.4    329.3    -11.18377  -0.75909  -0.04193   1.52391
  11   30532.6    327.5     28.19191   1.21194   0.62522  -1.58943
  12   31021.2    322.4    -156.10185  -1.27932  -0.53877  -1.14338
  13   31095.5    321.6    -21.68998  -0.72352  -0.67313  -0.39852
  14   31386.3    318.6    -43.90963   0.76655   0.28676   0.26383
  15   31843.1    314.0    -133.80411  -2.15262   0.18556  -0.91757
  16   32280.8    309.8     54.04849  -1.47895  -1.09502   0.56682
  17   33098.8    302.1     -0.09579  -0.12083  -0.15871   0.34590
  18   33158.7    301.6    101.68531   3.65978   1.33909  -4.37534
  19   33507.8    298.4     50.00247  -0.97811  -1.42349   3.32510
  20   34523.0    289.7    -51.75072  -0.11265  -0.79568   1.65031
  21   34958.4    286.1    -25.42955  -0.94051  -0.60979  -0.29390
  22   35085.2    285.0      9.57853  -0.23142   0.09573  -1.54579
  23   35270.7    283.5     43.36468  -1.67397  -1.31463   2.61061
  24   36274.9    275.7      3.02918  -0.81639  -0.40915   0.57896
  25   36777.0    271.9    -127.90981  -1.93600   0.68610  -0.02061
  26   36816.4    271.6     73.80452   1.11094  -0.05995  -0.69235
  27   37479.4    266.8    -24.20030   0.44948   0.61132  -1.51770
  28   37629.4    265.7     31.37733   0.15240  -0.44623   1.28462
  29   37755.5    264.9    124.82063   0.46750   0.17973   0.58067
  30   38216.1    261.7     61.86105   1.35992   1.06020   0.62708
  31   38303.6    261.1    -29.54369   1.04578   0.97069  -2.01285
  32   38604.0    259.0     -5.52655  -0.90805  -0.56458  -0.01401
  33   38940.7    256.8    152.30953   4.33648   0.83097   0.58710
  34   39362.8    254.0    -41.93535   0.15206   2.15170  -2.25658
  35   39780.8    251.4    -53.56023   2.23535   0.90620  -3.84893
  36   40124.6    249.2    -89.82770  -0.34780  -1.16300   3.67100
  37   40194.7    248.8    145.82325   0.76881  -1.31723   1.79603

sTD-DFT done

Total run time:        2.800 sec

           *** ORCA-CIS/TD-DFT FINISHED WITHOUT ERROR ***

-------------------------   --------------------
FINAL SINGLE POINT ENERGY     -4730.265975470763
-------------------------   --------------------


                            ***************************************
                            *     ORCA property calculations      *
                            ***************************************

                                    ---------------------
                                    Active property flags
                                    ---------------------
   (+) Dipole Moment


------------------------------------------------------------------------------
                       ORCA ELECTRIC PROPERTIES CALCULATION
------------------------------------------------------------------------------

Dipole Moment Calculation                       ... on
Quadrupole Moment Calculation                   ... off
Polarizability Calculation                      ... off
GBWName                                         ... xtbopt.gbw
Electron density file                           ... xtbopt.scfp
The origin for moment calculation is the CENTER OF MASS  = ( 8.815476, -24.843174 -3.008167)

-------------
DIPOLE MOMENT
-------------
                                X             Y             Z
Electronic contribution:     -6.13961      12.28418      -5.87033
Nuclear contribution   :      7.47952     -14.45837       7.72000
                        -----------------------------------------
Total Dipole Moment    :      1.33991      -2.17419       1.84966
                        -----------------------------------------
Magnitude (a.u.)       :      3.15337
Magnitude (Debye)      :      8.01522



--------------------
Rotational spectrum 
--------------------
 
Rotational constants in cm-1:     0.001858     0.000204     0.000198 
Rotational constants in MHz :    55.700571     6.114949     5.922485 

 Dipole components along the rotational axes: 
x,y,z [a.u.] :     0.711351    -0.233194     3.063220 
x,y,z [Debye]:     1.808110    -0.592732     7.786086 

 

Timings for individual modules:

Sum of individual times         ...      482.678 sec (=   8.045 min)
GTO integral calculation        ...        2.892 sec (=   0.048 min)   0.6 %
SCF iterations                  ...      476.308 sec (=   7.938 min)  98.7 %
CIS module                      ...        3.477 sec (=   0.058 min)   0.7 %
                             ****ORCA TERMINATED NORMALLY****
TOTAL RUN TIME: 0 days 0 hours 8 minutes 3 seconds 622 msec
